/apps/openmpi/3.1_intel-19/bin/mpiexec
starting QE Mon Jun 1 13:00:57 PDT 2020

     Program PWSCF v.6.5 starts on  1Jun2020 at 13: 0:59 

     This program is part of the open-source Quantum ESPRESSO suite
     for quantum simulation of materials; please cite
         "P. Giannozzi et al., J. Phys.:Condens. Matter 21 395502 (2009);
         "P. Giannozzi et al., J. Phys.:Condens. Matter 29 465901 (2017);
          URL http://www.quantum-espresso.org", 
     in publications or presentations arising from this work. More details at
     http://www.quantum-espresso.org/quote

     Parallel version (MPI), running on    32 processors

     MPI processes distributed on     1 nodes
     K-points division:     npool     =       2
     R & G space division:  proc/nbgrp/npool/nimage =      16
     Reading input from QE_input_scripts/pw.NiPyC2_relax_meta_functionalized_NH2.in
Warning: card &CELL ignored
Warning: card CELL_DYNAMICS = 'BFGS' ignored
Warning: card CELL_DOFREE = 'XYZ' ignored
Warning: card / ignored

     Current dimensions of program PWSCF are:
     Max number of different atomic species (ntypx) = 10
     Max number of k-points (npk) =  40000
     Max angular momentum in pseudopotentials (lmaxx) =  3

     -------------------------------------------------
     Parameters for Dispersion (Grimme-D2) Correction:
     -------------------------------------------------
       atom      VdW radius       C_6     

        Ni2        2.952        374.666
        Ni1        2.952        374.666
        O          2.536         24.284
        N          2.640         42.670
        C          2.744         60.710
        H          1.892          4.857

     gamma-point specific algorithms are used

     Subspace diagonalization in iterative solution of the eigenvalue problem:
     a serial algorithm will be used

 
     Parallelization info
     --------------------
     sticks:   dense  smooth     PW     G-vecs:    dense   smooth      PW
     Min        1113    1113    277                91686    91686   11456
     Max        1116    1116    280                91692    91692   11460
     Sum       17829   17829   4453              1467017  1467017  183325
 


     bravais-lattice index     =            0
     lattice parameter (alat)  =      23.6322  a.u.
     unit-cell volume          =   10858.6228 (a.u.)^3
     number of atoms/cell      =          124
     number of atomic types    =            6
     number of electrons       =       448.00 (up: 228.00, down: 220.00)
     number of Kohn-Sham states=          274
     kinetic-energy cutoff     =     100.0000  Ry
     charge density cutoff     =     400.0000  Ry
     convergence threshold     =      1.0E-06
     mixing beta               =       0.7000
     number of iterations used =            8  local-TF  mixing
     Exchange-correlation= PBESOL
                           (   1   4  10   8   0   0   0)
     nstep                     =          200


     celldm(1)=  23.632159  celldm(2)=   0.000000  celldm(3)=   0.000000
     celldm(4)=   0.000000  celldm(5)=   0.000000  celldm(6)=   0.000000

     crystal axes: (cart. coord. in units of alat)
               a(1) = (   1.000000   0.000000   0.000000 )  
               a(2) = (   0.000000   1.001423   0.000000 )  
               a(3) = (  -0.018199   0.000000   0.821574 )  

     reciprocal axes: (cart. coord. in units 2 pi/alat)
               b(1) = (  1.000000  0.000000  0.022152 )  
               b(2) = (  0.000000  0.998579  0.000000 )  
               b(3) = (  0.000000  0.000000  1.217175 )  


     PseudoPot. # 1 for Ni read from file:
     ./pseudo/Ni.pbesol-n-nc.UPF
     MD5 check sum: 623411631e0c2eb7c0b2b9815547d2d9
     Pseudo is Norm-conserving + core correction, Zval = 10.0
     Generated using "atomic" code by A. Dal Corso v.6.5
     Using radial grid of 1195 points,  2 beta functions with: 
                l(1) =   1
                l(2) =   2

     PseudoPot. # 2 for Ni read from file:
     ./pseudo/Ni.pbesol-n-nc.UPF
     MD5 check sum: 623411631e0c2eb7c0b2b9815547d2d9
     Pseudo is Norm-conserving + core correction, Zval = 10.0
     Generated using "atomic" code by A. Dal Corso v.6.5
     Using radial grid of 1195 points,  2 beta functions with: 
                l(1) =   1
                l(2) =   2

     PseudoPot. # 3 for O  read from file:
     ./pseudo/O.pbesol-nc.UPF
     MD5 check sum: 73d10e7e91dbfcbe8a7e362101007f84
     Pseudo is Norm-conserving, Zval =  6.0
     Generated using "atomic" code by A. Dal Corso v.6.5
     Using radial grid of 1095 points,  1 beta functions with: 
                l(1) =   1

     PseudoPot. # 4 for N  read from file:
     ./pseudo/N.pbesol-nc.UPF
     MD5 check sum: e18cc5e4b8a5600c1a19b30c2cab1ca0
     Pseudo is Norm-conserving, Zval =  5.0
     Generated using "atomic" code by A. Dal Corso v.6.5
     Using radial grid of 1085 points,  1 beta functions with: 
                l(1) =   1

     PseudoPot. # 5 for C  read from file:
     ./pseudo/C.pbesol-nc.UPF
     MD5 check sum: ce26087537ded160c8d400e183a8bf42
     Pseudo is Norm-conserving, Zval =  4.0
     Generated using "atomic" code by A. Dal Corso v.6.5
     Using radial grid of 1073 points,  1 beta functions with: 
                l(1) =   1

     PseudoPot. # 6 for H  read from file:
     ./pseudo/H.pbesol-n-nc.UPF
     MD5 check sum: 7995ef24074557c85b430109caaacc09
     Pseudo is Norm-conserving, Zval =  1.0
     Generated using "atomic" code by A. Dal Corso v.6.5
     Using radial grid of  929 points,  0 beta functions with: 

     atomic species   valence    mass     pseudopotential
        Ni2           10.00    58.69340     Ni( 1.00)
        Ni1           10.00    58.69340     Ni( 1.00)
        O              6.00    15.99940     O ( 1.00)
        N              5.00    14.00670     N ( 1.00)
        C              4.00    12.01070     C ( 1.00)
        H              1.00     1.00794     H ( 1.00)

     Starting magnetic structure 
     atomic species   magnetization
        Ni2          0.250
        Ni1          0.250
        O            0.000
        N            0.000
        C            0.000
        H            0.000

     No symmetry found



   Cartesian axes

     site n.     atom                  positions (alat units)
         1           Ni2 tau(   1) = (   0.2317814   0.7525556   0.6871039  )
         2           Ni1 tau(   2) = (   0.4937992   0.2483520   0.2786599  )
         3           O   tau(   3) = (   0.1158100   0.3481839   0.3145586  )
         4           O   tau(   4) = (   0.3551690   0.6519036   0.7240468  )
         5           O   tau(   5) = (   0.3707656   0.1477170   0.3098797  )
         6           O   tau(   6) = (   0.1091506   0.8535652   0.7199135  )
         7           O   tau(   7) = (   0.4642788   0.3566669   0.3968154  )
         8           O   tau(   8) = (   0.2033039   0.6423280   0.8050417  )
         9           O   tau(   9) = (   0.0200847   0.1353504   0.3952413  )
        10           O   tau(  10) = (   0.2588616   0.8639860   0.8046490  )
        11           N   tau(  11) = (   0.2956096   0.8524646   0.5790685  )
        12           N   tau(  12) = (   0.0569790   0.1490689   0.1692870  )
        13           N   tau(  13) = (   0.1736962   0.6512356   0.5798983  )
        14           N   tau(  14) = (   0.4350238   0.3514275   0.1709211  )
        15           C   tau(  15) = (   0.2787122   0.9714307   0.4288486  )
        16           C   tau(  16) = (   0.0379730   0.0311503   0.0183277  )
        17           H   tau(  17) = (   0.2290596   1.0009978   0.3640502  )
        18           H   tau(  18) = (   0.4693669   0.0026958   0.7751545  )
        19           C   tau(  19) = (   0.3806882   0.0117868   0.4489838  )
        20           C   tau(  20) = (   0.1394042   0.9891499   0.0379124  )
        21           C   tau(  21) = (   0.4400787   0.9715829   0.5343281  )
        22           C   tau(  22) = (   0.1997920   0.0283934   0.1231482  )
        23           H   tau(  23) = (   0.0198054   1.0002267   0.5533467  )
        24           C   tau(  24) = (   0.1986011   0.5304580   0.4324635  )
        25           C   tau(  25) = (   0.4580372   0.4720800   0.0229252  )
        26           H   tau(  26) = (   0.2505234   0.5016080   0.3691185  )
        27           C   tau(  27) = (   0.2341003   0.6142040   0.4982314  )
        28           C   tau(  28) = (   0.4948422   0.3892302   0.0892369  )
        29           H   tau(  29) = (   0.3118554   0.6514319   0.4868937  )
        30           H   tau(  30) = (   0.0732386   0.3533532   0.0780726  )
        31           C   tau(  31) = (   0.2384981   0.8904717   0.4955761  )
        32           C   tau(  32) = (  -0.0008282   0.1123917   0.0856467  )
        33           H   tau(  33) = (   0.1594426   0.8563401   0.4835457  )
        34           H   tau(  34) = (   0.4206861   0.1479423   0.0738480  )
        35           C   tau(  35) = (   0.3947360   0.8906489   0.5977380  )
        36           C   tau(  36) = (   0.1557890   0.1097029   0.1871645  )
        37           H   tau(  37) = (   0.4386511   0.8563902   0.6644572  )
        38           H   tau(  38) = (   0.2006191   0.1433067   0.2536997  )
        39           C   tau(  39) = (   0.0756247   0.6098498   0.5975737  )
        40           C   tau(  40) = (   0.3367152   0.3921904   0.1884642  )
        41           H   tau(  41) = (   0.0290492   0.6438591   0.6626884  )
        42           H   tau(  42) = (   0.2907535   0.3580349   0.2539083  )
        43           C   tau(  43) = (   0.0350715   0.5258264   0.5351012  )
        44           C   tau(  44) = (   0.2948780   0.4753867   0.1254988  )
        45           H   tau(  45) = (   0.4564147   0.4939330   0.5533319  )
        46           H   tau(  46) = (   0.2157623   0.5059201   0.1439924  )
        47           C   tau(  47) = (   0.0981522   0.4849593   0.4519611  )
        48           C   tau(  48) = (   0.3569104   0.5163900   0.0416029  )
        49           C   tau(  49) = (   0.4248178   0.0994604   0.3833638  )
        50           C   tau(  50) = (   0.1639424   0.9010006   0.7933713  )
        51           C   tau(  51) = (   0.0588120   0.3950355   0.3866953  )
        52           C   tau(  52) = (   0.2984059   0.6050320   0.7961934  )
        53           Ni2 tau(  53) = (   0.7317814   0.7525556   0.6871039  )
        54           Ni1 tau(  54) = (   0.9937992   0.2483520   0.2786599  )
        55           O   tau(  55) = (   0.6158110   0.3481839   0.3145586  )
        56           O   tau(  56) = (   0.8551690   0.6519036   0.7240468  )
        57           O   tau(  57) = (   0.8707656   0.1477170   0.3098797  )
        58           O   tau(  58) = (   0.6091506   0.8535652   0.7199135  )
        59           O   tau(  59) = (   0.9642788   0.3566669   0.3968154  )
        60           O   tau(  60) = (   0.7033039   0.6423280   0.8050417  )
        61           O   tau(  61) = (   0.5200847   0.1353504   0.3952413  )
        62           O   tau(  62) = (   0.7588616   0.8639860   0.8046490  )
        63           N   tau(  63) = (   0.7956096   0.8524646   0.5790685  )
        64           N   tau(  64) = (   0.5569790   0.1490689   0.1692870  )
        65           N   tau(  65) = (   0.6736972   0.6512356   0.5798983  )
        66           N   tau(  66) = (   0.9350238   0.3514275   0.1709211  )
        67           C   tau(  67) = (   0.7787122   0.9714307   0.4288486  )
        68           C   tau(  68) = (   0.5379730   0.0311503   0.0183277  )
        69           H   tau(  69) = (   0.9693669   0.0026958   0.7751545  )
        70           C   tau(  70) = (   0.8806882   0.0117868   0.4489838  )
        71           C   tau(  71) = (   0.6394042   0.9891499   0.0379124  )
        72           C   tau(  72) = (   0.9400787   0.9715829   0.5343281  )
        73           C   tau(  73) = (   0.6997920   0.0283934   0.1231482  )
        74           C   tau(  74) = (   0.6986021   0.5304580   0.4324635  )
        75           C   tau(  75) = (   0.9580382   0.4720800   0.0229252  )
        76           C   tau(  76) = (   0.7341003   0.6142040   0.4982314  )
        77           C   tau(  77) = (   0.9948422   0.3892302   0.0892369  )
        78           H   tau(  78) = (   0.8118554   0.6514319   0.4868937  )
        79           H   tau(  79) = (   0.5732386   0.3533532   0.0780726  )
        80           C   tau(  80) = (   0.7384981   0.8904717   0.4955761  )
        81           C   tau(  81) = (   0.4991718   0.1123917   0.0856467  )
        82           H   tau(  82) = (   0.6594426   0.8563401   0.4835457  )
        83           H   tau(  83) = (   0.9206861   0.1479423   0.0738480  )
        84           C   tau(  84) = (   0.8947360   0.8906489   0.5977380  )
        85           C   tau(  85) = (   0.6557880   0.1097029   0.1871645  )
        86           H   tau(  86) = (   0.9386511   0.8563902   0.6644572  )
        87           H   tau(  87) = (   0.7006201   0.1433067   0.2536997  )
        88           C   tau(  88) = (   0.5756247   0.6098498   0.5975737  )
        89           C   tau(  89) = (   0.8367152   0.3921904   0.1884642  )
        90           H   tau(  90) = (   0.5290492   0.6438591   0.6626884  )
        91           H   tau(  91) = (   0.7907535   0.3580349   0.2539083  )
        92           C   tau(  92) = (   0.5350715   0.5258264   0.5351012  )
        93           C   tau(  93) = (   0.7948780   0.4753867   0.1254988  )
        94           H   tau(  94) = (   0.7157623   0.5059201   0.1439924  )
        95           C   tau(  95) = (   0.5981522   0.4849593   0.4519611  )
        96           C   tau(  96) = (   0.8569104   0.5163900   0.0416029  )
        97           C   tau(  97) = (   0.9248178   0.0994604   0.3833638  )
        98           C   tau(  98) = (   0.6639424   0.9010006   0.7933713  )
        99           C   tau(  99) = (   0.5588110   0.3950355   0.3866953  )
       100           C   tau( 100) = (   0.7984059   0.6050320   0.7961934  )
       101           N   tau( 101) = (   0.5457124   0.0045344   0.5624629  )
       102           H   tau( 102) = (   0.5845690   0.9715399   0.6264947  )
       103           H   tau( 103) = (   0.5863772   0.0626741   0.5220677  )
       104           N   tau( 104) = (   0.3051528   0.9940689   0.1505592  )
       105           H   tau( 105) = (   0.3447827   0.0263645   0.2144892  )
       106           H   tau( 106) = (   0.3448843   0.9355868   0.1097311  )
       107           N   tau( 107) = (   0.9304020   0.4876141   0.5616257  )
       108           H   tau( 108) = (   0.8887047   0.5217065   0.6240234  )
       109           H   tau( 109) = (   0.8931207   0.4269759   0.5216430  )
       110           N   tau( 110) = (   0.5105096   0.5058249   0.7605436  )
       111           H   tau( 111) = (   0.5839679   0.4695514   0.7514554  )
       112           H   tau( 112) = (   0.4923365   0.5652134   0.7075496  )
       113           N   tau( 113) = (   0.7106271   0.0044924   0.3431732  )
       114           H   tau( 114) = (   0.6363964   0.9715128   0.3331393  )
       115           H   tau( 115) = (   0.7314039   0.0626561   0.2897791  )
       116           N   tau( 116) = (   0.8051539   0.9940689   0.1505584  )
       117           H   tau( 117) = (   0.8447827   0.0263655   0.2144876  )
       118           H   tau( 118) = (   0.8448832   0.9355848   0.1097327  )
       119           N   tau( 119) = (   0.7693955   0.4972357   0.3486178  )
       120           H   tau( 120) = (   0.8422842   0.5345247   0.3390612  )
       121           H   tau( 121) = (   0.7519385   0.4372385   0.2960707  )
       122           N   tau( 122) = (   0.0105086   0.5058249   0.7605428  )
       123           H   tau( 123) = (   0.0839669   0.4695494   0.7514545  )
       124           H   tau( 124) = (  -0.0076625   0.5652154   0.7075513  )

     number of k points=     1  Marzari-Vanderbilt smearing, width (Ry)=  0.2000
                       cart. coord. in units 2pi/alat
        k(    1) = (   0.0000000   0.0000000   0.0000000), wk =   1.0000000

     Dense  grid:   733509 G-vectors     FFT dimensions: ( 160, 160, 125)

     Estimated max dynamical RAM per process >     334.55 MB

     Estimated total dynamical RAM >      10.45 GB
     Generating pointlists ...
     new r_m :   0.0654 (alat units)  1.5454 (a.u.) for type    1
     new r_m :   0.0661 (alat units)  1.5624 (a.u.) for type    2
     new r_m :   0.0423 (alat units)  0.9991 (a.u.) for type    3
     new r_m :   0.0337 (alat units)  0.7959 (a.u.) for type    4
     new r_m :   0.0358 (alat units)  0.8461 (a.u.) for type    5
     new r_m :   0.0337 (alat units)  0.7959 (a.u.) for type    6

     Check: negative core charge=   -0.000145

     Initial potential from superposition of free atoms

     starting charge  447.99655, renormalised to  448.00000
     Starting wfcs are  396 randomized atomic wfcs

     total cpu time spent up to now is       46.1 secs

     Self-consistent Calculation

     iteration #  1     ecut=   100.00 Ry     beta= 0.70
     Davidson diagonalization with overlap
     ethr =  1.00E-02,  avg # of iterations =  4.0

     total cpu time spent up to now is      157.3 secs

     total energy              =   -1788.11892865 Ry
     Harris-Foulkes estimate   =   -1795.68094838 Ry
     estimated scf accuracy    <      19.10448405 Ry

     total magnetization       =     8.00 Bohr mag/cell
     absolute magnetization    =     8.53 Bohr mag/cell

     iteration #  2     ecut=   100.00 Ry     beta= 0.70
     Davidson diagonalization with overlap
     ethr =  4.26E-03,  avg # of iterations =  2.0

     total cpu time spent up to now is      225.6 secs

     total energy              =   -1790.65627967 Ry
     Harris-Foulkes estimate   =   -1794.16057531 Ry
     estimated scf accuracy    <      18.18777907 Ry

     total magnetization       =     8.00 Bohr mag/cell
     absolute magnetization    =     8.39 Bohr mag/cell

     iteration #  3     ecut=   100.00 Ry     beta= 0.70
     Davidson diagonalization with overlap
     ethr =  4.06E-03,  avg # of iterations =  1.0

     total cpu time spent up to now is      286.9 secs

     total energy              =   -1790.82411096 Ry
     Harris-Foulkes estimate   =   -1791.53642564 Ry
     estimated scf accuracy    <       2.07200526 Ry

     total magnetization       =     8.00 Bohr mag/cell
     absolute magnetization    =     8.19 Bohr mag/cell

     iteration #  4     ecut=   100.00 Ry     beta= 0.70
     Davidson diagonalization with overlap
     ethr =  4.63E-04,  avg # of iterations =  7.0

     total cpu time spent up to now is      371.8 secs

     total energy              =   -1790.68921993 Ry
     Harris-Foulkes estimate   =   -1791.24813760 Ry
     estimated scf accuracy    <       3.38088549 Ry

     total magnetization       =     8.00 Bohr mag/cell
     absolute magnetization    =     8.26 Bohr mag/cell

     iteration #  5     ecut=   100.00 Ry     beta= 0.70
     Davidson diagonalization with overlap
     ethr =  4.63E-04,  avg # of iterations =  1.5

     total cpu time spent up to now is      434.0 secs

     total energy              =   -1790.98523181 Ry
     Harris-Foulkes estimate   =   -1791.07069911 Ry
     estimated scf accuracy    <       1.07905924 Ry

     total magnetization       =     8.00 Bohr mag/cell
     absolute magnetization    =     8.26 Bohr mag/cell

     iteration #  6     ecut=   100.00 Ry     beta= 0.70
     Davidson diagonalization with overlap
     ethr =  2.41E-04,  avg # of iterations =  1.0

     total cpu time spent up to now is      495.3 secs

     total energy              =   -1790.95677217 Ry
     Harris-Foulkes estimate   =   -1791.02693101 Ry
     estimated scf accuracy    <       1.07506935 Ry

     total magnetization       =     8.00 Bohr mag/cell
     absolute magnetization    =     8.27 Bohr mag/cell

     iteration #  7     ecut=   100.00 Ry     beta= 0.70
     Davidson diagonalization with overlap
     ethr =  2.40E-04,  avg # of iterations =  1.0

     total cpu time spent up to now is      556.7 secs

     total energy              =   -1790.89574735 Ry
     Harris-Foulkes estimate   =   -1790.97977429 Ry
     estimated scf accuracy    <       0.43869406 Ry

     total magnetization       =     8.00 Bohr mag/cell
     absolute magnetization    =     8.28 Bohr mag/cell

     iteration #  8     ecut=   100.00 Ry     beta= 0.70
     Davidson diagonalization with overlap
     ethr =  9.79E-05,  avg # of iterations =  7.0

     total cpu time spent up to now is      625.2 secs

     total energy              =   -1790.92899128 Ry
     Harris-Foulkes estimate   =   -1790.94126532 Ry
     estimated scf accuracy    <       0.17732452 Ry

     total magnetization       =     8.00 Bohr mag/cell
     absolute magnetization    =     8.30 Bohr mag/cell

     iteration #  9     ecut=   100.00 Ry     beta= 0.70
     Davidson diagonalization with overlap
     ethr =  3.96E-05,  avg # of iterations =  4.0

     total cpu time spent up to now is      690.4 secs

     total energy              =   -1790.92464514 Ry
     Harris-Foulkes estimate   =   -1790.93766490 Ry
     estimated scf accuracy    <       0.14019356 Ry

     total magnetization       =     8.00 Bohr mag/cell
     absolute magnetization    =     8.30 Bohr mag/cell

     iteration # 10     ecut=   100.00 Ry     beta= 0.70
     Davidson diagonalization with overlap
     ethr =  3.13E-05,  avg # of iterations =  2.0

     total cpu time spent up to now is      752.8 secs

     total energy              =   -1790.93443876 Ry
     Harris-Foulkes estimate   =   -1790.93511260 Ry
     estimated scf accuracy    <       0.03958672 Ry

     total magnetization       =     8.00 Bohr mag/cell
     absolute magnetization    =     8.29 Bohr mag/cell

     iteration # 11     ecut=   100.00 Ry     beta= 0.70
     Davidson diagonalization with overlap
     ethr =  8.84E-06,  avg # of iterations =  8.5

     total cpu time spent up to now is      826.3 secs

     total energy              =   -1790.93981902 Ry
     Harris-Foulkes estimate   =   -1790.93761548 Ry
     estimated scf accuracy    <       0.00844569 Ry

     total magnetization       =     8.00 Bohr mag/cell
     absolute magnetization    =     8.28 Bohr mag/cell

     iteration # 12     ecut=   100.00 Ry     beta= 0.70
     Davidson diagonalization with overlap
     c_bands:  1 eigenvalues not converged
     ethr =  1.89E-06,  avg # of iterations = 20.0

     total cpu time spent up to now is      920.9 secs

     total energy              =   -1790.94058693 Ry
     Harris-Foulkes estimate   =   -1790.94041641 Ry
     estimated scf accuracy    <       0.00274437 Ry

     total magnetization       =     8.00 Bohr mag/cell
     absolute magnetization    =     8.27 Bohr mag/cell

     iteration # 13     ecut=   100.00 Ry     beta= 0.70
     Davidson diagonalization with overlap
     ethr =  6.13E-07,  avg # of iterations =  2.5

     total cpu time spent up to now is      983.8 secs

     total energy              =   -1790.94144522 Ry
     Harris-Foulkes estimate   =   -1790.94087385 Ry
     estimated scf accuracy    <       0.00314457 Ry

     total magnetization       =     8.00 Bohr mag/cell
     absolute magnetization    =     8.27 Bohr mag/cell

     iteration # 14     ecut=   100.00 Ry     beta= 0.70
     Davidson diagonalization with overlap
     ethr =  6.13E-07,  avg # of iterations =  3.5

     total cpu time spent up to now is     1049.6 secs

     total energy              =   -1790.94173811 Ry
     Harris-Foulkes estimate   =   -1790.94159147 Ry
     estimated scf accuracy    <       0.00036328 Ry

     total magnetization       =     8.00 Bohr mag/cell
     absolute magnetization    =     8.27 Bohr mag/cell

     iteration # 15     ecut=   100.00 Ry     beta= 0.70
     Davidson diagonalization with overlap
     ethr =  8.11E-08,  avg # of iterations =  4.0

     total cpu time spent up to now is     1117.0 secs

     total energy              =   -1790.94179619 Ry
     Harris-Foulkes estimate   =   -1790.94176545 Ry
     estimated scf accuracy    <       0.00006646 Ry

     total magnetization       =     8.00 Bohr mag/cell
     absolute magnetization    =     8.27 Bohr mag/cell

     iteration # 16     ecut=   100.00 Ry     beta= 0.70
     Davidson diagonalization with overlap
     ethr =  1.48E-08,  avg # of iterations =  3.5

     total cpu time spent up to now is     1183.4 secs

     total energy              =   -1790.94180881 Ry
     Harris-Foulkes estimate   =   -1790.94180092 Ry
     estimated scf accuracy    <       0.00002377 Ry

     total magnetization       =     8.00 Bohr mag/cell
     absolute magnetization    =     8.27 Bohr mag/cell

     iteration # 17     ecut=   100.00 Ry     beta= 0.70
     Davidson diagonalization with overlap
     ethr =  5.31E-09,  avg # of iterations =  4.0

     total cpu time spent up to now is     1251.4 secs

     total energy              =   -1790.94181323 Ry
     Harris-Foulkes estimate   =   -1790.94181077 Ry
     estimated scf accuracy    <       0.00001180 Ry

     total magnetization       =     8.00 Bohr mag/cell
     absolute magnetization    =     8.27 Bohr mag/cell

     iteration # 18     ecut=   100.00 Ry     beta= 0.70
     Davidson diagonalization with overlap
     ethr =  2.63E-09,  avg # of iterations =  3.5

     total cpu time spent up to now is     1318.0 secs

     total energy              =   -1790.94181520 Ry
     Harris-Foulkes estimate   =   -1790.94181408 Ry
     estimated scf accuracy    <       0.00000623 Ry

     total magnetization       =     8.00 Bohr mag/cell
     absolute magnetization    =     8.27 Bohr mag/cell

     iteration # 19     ecut=   100.00 Ry     beta= 0.70
     Davidson diagonalization with overlap
     ethr =  1.39E-09,  avg # of iterations =  3.0

     total cpu time spent up to now is     1382.8 secs

     total energy              =   -1790.94181628 Ry
     Harris-Foulkes estimate   =   -1790.94181562 Ry
     estimated scf accuracy    <       0.00000611 Ry

     total magnetization       =     8.00 Bohr mag/cell
     absolute magnetization    =     8.27 Bohr mag/cell

     iteration # 20     ecut=   100.00 Ry     beta= 0.70
     Davidson diagonalization with overlap
     ethr =  1.36E-09,  avg # of iterations =  3.5

     total cpu time spent up to now is     1447.6 secs

     total energy              =   -1790.94181663 Ry
     Harris-Foulkes estimate   =   -1790.94181665 Ry
     estimated scf accuracy    <       0.00000151 Ry

     total magnetization       =     8.00 Bohr mag/cell
     absolute magnetization    =     8.28 Bohr mag/cell

     iteration # 21     ecut=   100.00 Ry     beta= 0.70
     Davidson diagonalization with overlap
     ethr =  3.37E-10,  avg # of iterations =  3.5

     total cpu time spent up to now is     1512.1 secs

     total energy              =   -1790.94181683 Ry
     Harris-Foulkes estimate   =   -1790.94181688 Ry
     estimated scf accuracy    <       0.00000183 Ry

     total magnetization       =     8.00 Bohr mag/cell
     absolute magnetization    =     8.28 Bohr mag/cell

     iteration # 22     ecut=   100.00 Ry     beta= 0.70
     Davidson diagonalization with overlap
     ethr =  3.37E-10,  avg # of iterations =  3.0
 
     Magnetic moment per site:
     atom:    1    charge:    7.4363    magn:    1.1507    constr:    0.0000
     atom:    2    charge:    7.4878    magn:    1.1549    constr:    0.0000
     atom:    3    charge:    3.2604    magn:    0.0566    constr:    0.0000
     atom:    4    charge:    3.2660    magn:    0.0523    constr:    0.0000
     atom:    5    charge:    3.2688    magn:    0.0490    constr:    0.0000
     atom:    6    charge:    3.2582    magn:    0.0579    constr:    0.0000
     atom:    7    charge:    3.2579    magn:    0.0576    constr:    0.0000
     atom:    8    charge:    3.2608    magn:    0.0580    constr:    0.0000
     atom:    9    charge:    3.2602    magn:    0.0568    constr:    0.0000
     atom:   10    charge:    3.2656    magn:    0.0529    constr:    0.0000
     atom:   11    charge:    1.3306    magn:    0.0074    constr:    0.0000
     atom:   12    charge:    1.3308    magn:    0.0074    constr:    0.0000
     atom:   13    charge:    1.3302    magn:    0.0074    constr:    0.0000
     atom:   14    charge:    1.3307    magn:    0.0075    constr:    0.0000
     atom:   15    charge:    0.8451    magn:    0.0043    constr:    0.0000
     atom:   16    charge:    0.8460    magn:    0.0042    constr:    0.0000
     atom:   17    charge:    0.4288    magn:   -0.0013    constr:    0.0000
     atom:   18    charge:    0.4285    magn:   -0.0013    constr:    0.0000
     atom:   19    charge:    0.8501    magn:    0.0060    constr:    0.0000
     atom:   20    charge:    0.8491    magn:    0.0064    constr:    0.0000
     atom:   21    charge:    0.8288    magn:    0.0000    constr:    0.0000
     atom:   22    charge:    0.8300    magn:   -0.0001    constr:    0.0000
     atom:   23    charge:    0.4280    magn:   -0.0014    constr:    0.0000
     atom:   24    charge:    0.8464    magn:    0.0041    constr:    0.0000
     atom:   25    charge:    0.8291    magn:   -0.0001    constr:    0.0000
     atom:   26    charge:    0.4282    magn:   -0.0014    constr:    0.0000
     atom:   27    charge:    0.8382    magn:    0.0060    constr:    0.0000
     atom:   28    charge:    0.8411    magn:    0.0087    constr:    0.0000
     atom:   29    charge:    0.4321    magn:   -0.0011    constr:    0.0000
     atom:   30    charge:    0.4289    magn:   -0.0011    constr:    0.0000
     atom:   31    charge:    0.8380    magn:    0.0062    constr:    0.0000
     atom:   32    charge:    0.8386    magn:    0.0061    constr:    0.0000
     atom:   33    charge:    0.4327    magn:   -0.0011    constr:    0.0000
     atom:   34    charge:    0.4315    magn:   -0.0010    constr:    0.0000
     atom:   35    charge:    0.8441    magn:    0.0084    constr:    0.0000
     atom:   36    charge:    0.8432    magn:    0.0085    constr:    0.0000
     atom:   37    charge:    0.4262    magn:   -0.0009    constr:    0.0000
     atom:   38    charge:    0.4249    magn:   -0.0009    constr:    0.0000
     atom:   39    charge:    0.8485    magn:    0.0083    constr:    0.0000
     atom:   40    charge:    0.8397    magn:    0.0061    constr:    0.0000
     atom:   41    charge:    0.4399    magn:   -0.0009    constr:    0.0000
     atom:   42    charge:    0.4294    magn:   -0.0009    constr:    0.0000
     atom:   43    charge:    0.8305    magn:    0.0003    constr:    0.0000
     atom:   44    charge:    0.8456    magn:    0.0044    constr:    0.0000
     atom:   45    charge:    0.4269    magn:   -0.0011    constr:    0.0000
     atom:   46    charge:    0.4289    magn:   -0.0014    constr:    0.0000
     atom:   47    charge:    0.8515    magn:    0.0061    constr:    0.0000
     atom:   48    charge:    0.8490    magn:    0.0064    constr:    0.0000
     atom:   49    charge:    0.8221    magn:   -0.0008    constr:    0.0000
     atom:   50    charge:    0.8223    magn:   -0.0015    constr:    0.0000
     atom:   51    charge:    0.8222    magn:   -0.0013    constr:    0.0000
     atom:   52    charge:    0.8232    magn:   -0.0015    constr:    0.0000
     atom:   53    charge:    7.4409    magn:    1.1541    constr:    0.0000
     atom:   54    charge:    7.4874    magn:    1.1553    constr:    0.0000
     atom:   55    charge:    3.2678    magn:    0.0502    constr:    0.0000
     atom:   56    charge:    3.2716    magn:    0.0453    constr:    0.0000
     atom:   57    charge:    3.2752    magn:    0.0438    constr:    0.0000
     atom:   58    charge:    3.2675    magn:    0.0481    constr:    0.0000
     atom:   59    charge:    3.2679    magn:    0.0501    constr:    0.0000
     atom:   60    charge:    3.2616    magn:    0.0547    constr:    0.0000
     atom:   61    charge:    3.2705    magn:    0.0490    constr:    0.0000
     atom:   62    charge:    3.2663    magn:    0.0491    constr:    0.0000
     atom:   63    charge:    1.3312    magn:    0.0077    constr:    0.0000
     atom:   64    charge:    1.3309    magn:    0.0075    constr:    0.0000
     atom:   65    charge:    1.3308    magn:    0.0072    constr:    0.0000
     atom:   66    charge:    1.3308    magn:    0.0073    constr:    0.0000
     atom:   67    charge:    0.8299    magn:    0.0003    constr:    0.0000
     atom:   68    charge:    0.8464    magn:    0.0040    constr:    0.0000
     atom:   69    charge:    0.4282    magn:   -0.0013    constr:    0.0000
     atom:   70    charge:    0.8499    magn:    0.0060    constr:    0.0000
     atom:   71    charge:    0.8493    magn:    0.0057    constr:    0.0000
     atom:   72    charge:    0.8453    magn:    0.0045    constr:    0.0000
     atom:   73    charge:    0.8316    magn:    0.0002    constr:    0.0000
     atom:   74    charge:    0.8310    magn:   -0.0001    constr:    0.0000
     atom:   75    charge:    0.8295    magn:   -0.0001    constr:    0.0000
     atom:   76    charge:    0.8426    magn:    0.0085    constr:    0.0000
     atom:   77    charge:    0.8411    magn:    0.0085    constr:    0.0000
     atom:   78    charge:    0.4288    magn:   -0.0009    constr:    0.0000
     atom:   79    charge:    0.4299    magn:   -0.0011    constr:    0.0000
     atom:   80    charge:    0.8426    magn:    0.0086    constr:    0.0000
     atom:   81    charge:    0.8385    magn:    0.0060    constr:    0.0000
     atom:   82    charge:    0.4294    magn:   -0.0008    constr:    0.0000
     atom:   83    charge:    0.4325    magn:   -0.0009    constr:    0.0000
     atom:   84    charge:    0.8407    magn:    0.0061    constr:    0.0000
     atom:   85    charge:    0.8503    magn:    0.0083    constr:    0.0000
     atom:   86    charge:    0.4295    magn:   -0.0009    constr:    0.0000
     atom:   87    charge:    0.4418    magn:   -0.0008    constr:    0.0000
     atom:   88    charge:    0.8449    magn:    0.0062    constr:    0.0000
     atom:   89    charge:    0.8449    magn:    0.0061    constr:    0.0000
     atom:   90    charge:    0.4427    magn:   -0.0010    constr:    0.0000
     atom:   91    charge:    0.4435    magn:   -0.0010    constr:    0.0000
     atom:   92    charge:    0.8470    magn:    0.0040    constr:    0.0000
     atom:   93    charge:    0.8471    magn:    0.0041    constr:    0.0000
     atom:   94    charge:    0.4274    magn:   -0.0011    constr:    0.0000
     atom:   95    charge:    0.8512    magn:    0.0063    constr:    0.0000
     atom:   96    charge:    0.8491    magn:    0.0060    constr:    0.0000
     atom:   97    charge:    0.8223    magn:   -0.0010    constr:    0.0000
     atom:   98    charge:    0.8227    magn:   -0.0008    constr:    0.0000
     atom:   99    charge:    0.8224    magn:   -0.0014    constr:    0.0000
     atom:  100    charge:    0.8235    magn:   -0.0010    constr:    0.0000
     atom:  101    charge:    1.3394    magn:    0.0210    constr:    0.0000
     atom:  102    charge:    0.4179    magn:   -0.0005    constr:    0.0000
     atom:  103    charge:    0.4226    magn:   -0.0005    constr:    0.0000
     atom:  104    charge:    1.3385    magn:    0.0215    constr:    0.0000
     atom:  105    charge:    0.4179    magn:   -0.0006    constr:    0.0000
     atom:  106    charge:    0.4219    magn:   -0.0005    constr:    0.0000
     atom:  107    charge:    1.3398    magn:    0.0203    constr:    0.0000
     atom:  108    charge:    0.4207    magn:   -0.0005    constr:    0.0000
     atom:  109    charge:    0.4203    magn:   -0.0004    constr:    0.0000
     atom:  110    charge:    1.3397    magn:    0.0215    constr:    0.0000
     atom:  111    charge:    0.4214    magn:   -0.0006    constr:    0.0000
     atom:  112    charge:    0.4345    magn:   -0.0006    constr:    0.0000
     atom:  113    charge:    1.3438    magn:    0.0206    constr:    0.0000
     atom:  114    charge:    0.4214    magn:   -0.0006    constr:    0.0000
     atom:  115    charge:    0.4434    magn:   -0.0006    constr:    0.0000
     atom:  116    charge:    1.3405    magn:    0.0212    constr:    0.0000
     atom:  117    charge:    0.4205    magn:   -0.0005    constr:    0.0000
     atom:  118    charge:    0.4203    magn:   -0.0004    constr:    0.0000
     atom:  119    charge:    1.3401    magn:    0.0202    constr:    0.0000
     atom:  120    charge:    0.4218    magn:   -0.0006    constr:    0.0000
     atom:  121    charge:    0.4349    magn:   -0.0006    constr:    0.0000
     atom:  122    charge:    1.3413    magn:    0.0212    constr:    0.0000
     atom:  123    charge:    0.4202    magn:   -0.0006    constr:    0.0000
     atom:  124    charge:    0.4387    magn:   -0.0006    constr:    0.0000

     total cpu time spent up to now is     1574.7 secs

     End of self-consistent calculation

 ------ SPIN UP ------------


          k = 0.0000 0.0000 0.0000 ( 91663 PWs)   bands (ev):

   -21.6748 -21.6534 -21.6462 -21.5772 -21.5529 -21.5097 -21.4959 -21.4523
   -18.8087 -18.7616 -18.7146 -18.6947 -18.6660 -18.6284 -18.6131 -18.6089
   -18.5794 -18.5700 -18.5690 -18.5530 -18.4828 -18.4365 -18.4282 -18.4219
   -17.5642 -17.5438 -17.3158 -17.1670 -17.1142 -17.0805 -17.0509 -17.0391
   -14.7236 -14.6822 -14.6387 -14.5549 -14.5423 -14.5058 -14.4902 -14.4679
   -13.7960 -13.6245 -13.5051 -13.2583 -13.2095 -13.1541 -13.0838 -13.0516
   -11.4854 -11.3761 -11.2399 -11.0969 -11.0227 -11.0114 -10.9718 -10.9366
   -10.5623 -10.5112 -10.4434 -10.3101 -10.2795 -10.2479 -10.2162 -10.1789
    -9.5179  -9.3737  -9.2157  -8.9656  -8.7250  -8.6421  -8.4177  -8.3445
    -8.1872  -8.0815  -7.9748  -7.8699  -7.8244  -7.7279  -7.7051  -7.6910
    -7.4910  -7.3884  -7.3231  -7.2437  -7.1322  -7.1187  -7.0441  -7.0112
    -6.9516  -6.9358  -6.8751  -6.8155  -6.7488  -6.5522  -6.5072  -6.4800
    -6.3720  -6.3514  -6.3091  -6.1879  -6.1810  -6.1465  -6.1195  -6.0278
    -5.9491  -5.9235  -5.9124  -5.9029  -5.8253  -5.8113  -5.7788  -5.7306
    -5.7112  -5.6858  -5.6577  -5.5507  -5.5208  -5.4844  -5.4557  -5.4493
    -5.4405  -5.4309  -5.3909  -5.3881  -5.3438  -5.3293  -5.2894  -5.2080
    -5.1546  -5.1231  -5.0943  -5.0211  -5.0138  -4.9688  -4.9019  -4.8916
    -4.8733  -4.7517  -4.7009  -4.6635  -4.6264  -4.5882  -4.4900  -4.3105
    -3.9471  -3.8648  -3.8331  -3.8081  -3.7390  -3.7167  -3.6876  -3.6554
    -3.6237  -3.5865  -3.5433  -3.4836  -3.4243  -3.3699  -3.2363  -3.2040
    -3.1459  -3.0858  -3.0673  -3.0349  -2.9824  -2.9165  -2.8419  -2.7921
    -2.7756  -2.7397  -2.7100  -2.6371  -2.5674  -2.4009  -2.3827  -2.2954
    -2.2409  -2.2245  -2.2069  -2.1446  -2.1246  -2.0668  -2.0068  -1.9380
    -1.9216  -1.8857  -1.8099  -1.7137  -1.6928  -1.6633  -1.6441  -1.6252
    -1.5975  -1.5674  -1.4827  -1.4585  -1.4444  -1.4107  -1.3865  -1.3710
    -1.3256  -1.2695  -1.2643  -1.2195  -1.2066  -1.1728  -1.1496  -1.1246
    -1.1111  -1.0900  -1.0629  -0.9845  -0.4998  -0.3664  -0.1675  -0.1494
    -0.0385   0.0170   0.0271   0.2256   0.5973   0.6498   0.7047   0.7267
     0.9391   0.9773   0.9878   1.0334   2.6123   2.6566   2.7157   2.7387
     2.7496   2.8198   2.8481   2.8725   3.8015   3.9372   3.9900   4.0375
     4.0820   4.1901   4.2707   4.3445   4.3549   4.6232   4.6746   4.7819
     5.1513   5.1594   5.2363   5.2808   5.3277   5.3443   5.3864   5.4020
     5.4238   5.5696   5.6785   5.7471   5.7956   5.8626   6.0091   6.1429
     6.2534   6.3362   6.4272   6.6949   6.9415   6.9529   6.9656   7.0914
     7.2108   7.2783

 ------ SPIN DOWN ----------


          k = 0.0000 0.0000 0.0000 ( 91663 PWs)   bands (ev):

   -21.5831 -21.5603 -21.5518 -21.4748 -21.4621 -21.4136 -21.3983 -21.3507
   -18.7460 -18.6946 -18.6439 -18.6108 -18.5751 -18.5546 -18.5250 -18.5146
   -18.4721 -18.4655 -18.4531 -18.4486 -18.4318 -18.3860 -18.3828 -18.3684
   -17.5048 -17.4839 -17.2554 -17.1044 -17.0526 -17.0180 -16.9904 -16.9774
   -14.6873 -14.6456 -14.6019 -14.5151 -14.5022 -14.4660 -14.4498 -14.4270
   -13.7579 -13.5828 -13.4641 -13.2156 -13.1669 -13.1109 -13.0402 -13.0068
   -11.4493 -11.3411 -11.2010 -11.0555 -10.9824 -10.9708 -10.9314 -10.8958
   -10.5359 -10.4849 -10.4177 -10.2829 -10.2522 -10.2217 -10.1882 -10.1524
    -9.4877  -9.3448  -9.1861  -8.9373  -8.6922  -8.6096  -8.3845  -8.3110
    -8.1564  -8.0515  -7.9426  -7.8361  -7.7911  -7.6948  -7.6743  -7.6597
    -7.4557  -7.3493  -7.2742  -7.2033  -7.0828  -7.0657  -6.9988  -6.9710
    -6.9012  -6.8787  -6.8138  -6.7673  -6.6964  -6.4975  -6.4511  -6.4233
    -6.3120  -6.2950  -6.2563  -6.1250  -6.1156  -6.0790  -6.0551  -5.9628
    -5.8505  -5.8405  -5.8273  -5.8093  -5.7242  -5.7168  -5.6933  -5.6294
    -5.6215  -5.6077  -5.5764  -5.4619  -5.4384  -5.3980  -5.3806  -5.3666
    -5.3504  -5.3360  -5.2979  -5.2928  -5.2374  -5.2172  -5.1938  -5.1487
    -5.0818  -5.0790  -5.0388  -4.9751  -4.9716  -4.9299  -4.8523  -4.8438
    -4.8160  -4.6810  -4.6323  -4.5805  -4.5424  -4.5223  -4.4040  -4.2249
    -3.8593  -3.7838  -3.7626  -3.6983  -3.6607  -3.6298  -3.5582  -3.5299
    -3.4761  -3.4618  -3.3839  -3.3146  -3.2639  -3.1352  -3.0582  -2.9564
    -2.9334  -2.8651  -2.8156  -2.7669  -2.7199  -2.6929  -2.6384  -2.6199
    -2.5488  -2.4946  -2.4858  -2.2735  -2.2502  -2.0498  -2.0149  -1.9835
    -1.8958  -1.8691  -1.8331  -1.8132  -1.7819  -1.7370  -1.7145  -1.6683
    -1.6654  -1.5719  -1.5385  -1.4865  -1.4554  -1.4310  -1.3954  -1.3817
    -1.3510  -1.2867  -1.2522  -1.2208  -1.2042  -1.1802  -1.0665  -1.0379
    -0.5981  -0.5316  -0.4598  -0.4284  -0.3568  -0.3077  -0.2952  -0.2804
    -0.2676  -0.2572  -0.2402  -0.2161  -0.1596  -0.1021   0.0212   0.0409
     0.1308   0.1799   0.1965   0.3898   1.4228   1.4651   1.5045   1.5340
     1.6934   1.7348   1.7417   1.7756   2.7280   2.7701   2.8346   2.8515
     2.8614   2.9351   2.9671   2.9807   3.8763   4.0045   4.0646   4.1181
     4.1598   4.2730   4.3528   4.4295   4.4398   4.7024   4.7400   4.8470
     5.2265   5.2367   5.3106   5.3387   5.4012   5.4243   5.4678   5.4771
     5.4953   5.6188   5.7342   5.8031   5.8553   5.9232   6.0587   6.1920
     6.2950   6.3863   6.4711   6.7541   6.9832   6.9954   7.0083   7.1336
     7.2593   7.3231

     the spin up/dw Fermi energies are     1.3134    0.9523 ev

!    total energy              =   -1790.94181690 Ry
     Harris-Foulkes estimate   =   -1790.94181695 Ry
     estimated scf accuracy    <       0.00000045 Ry

     The total energy is the sum of the following terms:

     one-electron contribution =   -2557.73920748 Ry
     hartree contribution      =    1445.26522072 Ry
     xc contribution           =    -539.62624186 Ry
     ewald contribution        =    -140.83575110 Ry
     Dispersion Correction     =      -0.55240793 Ry
     smearing contrib. (-TS)   =       2.54657075 Ry

     total magnetization       =     8.00 Bohr mag/cell
     absolute magnetization    =     8.28 Bohr mag/cell

     convergence has been achieved in  22 iterations

     Forces acting on atoms (cartesian axes, Ry/au):

     atom    1 type  1   force =     0.00967578    0.00134603    0.00194300
     atom    2 type  2   force =    -0.00227675    0.00515883    0.00635658
     atom    3 type  3   force =     0.00253208    0.00496773    0.00280770
     atom    4 type  3   force =     0.01039488    0.00200799   -0.00533865
     atom    5 type  3   force =    -0.01040749   -0.00677817   -0.00604628
     atom    6 type  3   force =    -0.00506465    0.00322071    0.00167577
     atom    7 type  3   force =    -0.00170317    0.00373906    0.00315583
     atom    8 type  3   force =    -0.00676794   -0.00362908    0.00343519
     atom    9 type  3   force =    -0.00452745   -0.00554354    0.00240947
     atom   10 type  3   force =     0.01152825   -0.00294991    0.00035063
     atom   11 type  4   force =     0.01255619   -0.00177917    0.00737923
     atom   12 type  4   force =     0.01204489    0.00328406    0.00838539
     atom   13 type  4   force =    -0.01570838    0.00624236    0.01058350
     atom   14 type  4   force =     0.01364921   -0.00351660   -0.00952027
     atom   15 type  5   force =     0.00813757   -0.00663724    0.01396742
     atom   16 type  5   force =     0.00787485    0.00591713    0.01501801
     atom   17 type  6   force =     0.00094136    0.00260863   -0.00015842
     atom   18 type  6   force =     0.00128452   -0.00283293   -0.00183886
     atom   19 type  5   force =    -0.00495532    0.03082695   -0.03901968
     atom   20 type  5   force =    -0.00581265   -0.03013125   -0.03640951
     atom   21 type  5   force =     0.13217382    0.03180935    0.04338505
     atom   22 type  5   force =     0.13157726   -0.03347263    0.04100720
     atom   23 type  6   force =    -0.00068275    0.00261997   -0.00343998
     atom   24 type  5   force =    -0.00650628    0.00814563    0.01493057
     atom   25 type  5   force =     0.10893398    0.02620657   -0.10137345
     atom   26 type  6   force =    -0.00285634   -0.00324088   -0.00119669
     atom   27 type  5   force =    -0.00272947   -0.01290556   -0.00806607
     atom   28 type  5   force =    -0.00898909   -0.01780173    0.02937683
     atom   29 type  6   force =    -0.00067621    0.00092741    0.00256972
     atom   30 type  6   force =     0.00454212   -0.00127464   -0.00040301
     atom   31 type  5   force =     0.00028951    0.00816253   -0.00671967
     atom   32 type  5   force =     0.00323344   -0.00699310   -0.00939272
     atom   33 type  6   force =    -0.00008667    0.00001141    0.00106992
     atom   34 type  6   force =     0.00221679    0.00093543    0.00082890
     atom   35 type  5   force =    -0.02034020   -0.02101407    0.01131367
     atom   36 type  5   force =    -0.01784171    0.02032392    0.01253654
     atom   37 type  6   force =     0.00251903    0.00028006    0.00244493
     atom   38 type  6   force =     0.00167514   -0.00043319    0.00182277
     atom   39 type  5   force =     0.03569457    0.03549876   -0.03499561
     atom   40 type  5   force =    -0.01126070    0.00578736   -0.00101121
     atom   41 type  6   force =     0.01837560    0.05178191   -0.03041706
     atom   42 type  6   force =     0.00126098    0.00026273   -0.00014771
     atom   43 type  5   force =    -0.12597652   -0.03319540    0.02988533
     atom   44 type  5   force =     0.01831072   -0.01017924   -0.00622205
     atom   45 type  6   force =    -0.00199336   -0.00506959   -0.00636498
     atom   46 type  6   force =    -0.00057493    0.00400450   -0.00373542
     atom   47 type  5   force =     0.00717511   -0.03012405   -0.03478615
     atom   48 type  5   force =    -0.03511531    0.03156211   -0.01094257
     atom   49 type  5   force =    -0.00347777    0.00175553    0.00854866
     atom   50 type  5   force =    -0.00955872   -0.00153076   -0.00499036
     atom   51 type  5   force =     0.01587716   -0.00095432   -0.00667273
     atom   52 type  5   force =    -0.00269917    0.00109960    0.00338387
     atom   53 type  1   force =     0.01116830    0.00024238    0.00155337
     atom   54 type  2   force =     0.00980110    0.00026559    0.00639895
     atom   55 type  3   force =     0.01331257   -0.00241161   -0.00703171
     atom   56 type  3   force =     0.01964072   -0.00249452   -0.01578708
     atom   57 type  3   force =    -0.02187601    0.00099490   -0.01679192
     atom   58 type  3   force =    -0.01450650    0.00555967   -0.00695973
     atom   59 type  3   force =    -0.01707098   -0.00363284    0.00095653
     atom   60 type  3   force =    -0.00260169   -0.00551040    0.00488357
     atom   61 type  3   force =     0.01066445    0.00176729    0.00075586
     atom   62 type  3   force =     0.00672375   -0.00029743    0.00194890
     atom   63 type  4   force =    -0.01433369   -0.00440411   -0.00736189
     atom   64 type  4   force =     0.01351074    0.00832190    0.01430248
     atom   65 type  4   force =     0.00869258    0.01040734   -0.00282991
     atom   66 type  4   force =     0.01004920   -0.00966411   -0.00263096
     atom   67 type  5   force =    -0.10328793    0.02447764   -0.09710108
     atom   68 type  5   force =     0.00720498    0.00820501    0.01665155
     atom   69 type  6   force =     0.00238350   -0.00300832   -0.00270560
     atom   70 type  5   force =     0.03463828    0.03147903   -0.01185973
     atom   71 type  5   force =    -0.00607326   -0.03078110   -0.03610066
     atom   72 type  5   force =    -0.01635766   -0.01061511   -0.00328279
     atom   73 type  5   force =     0.13171153   -0.03018073    0.02803768
     atom   74 type  5   force =     0.10414620   -0.02105027   -0.09713027
     atom   75 type  5   force =     0.10963896    0.02392697   -0.09520086
     atom   76 type  5   force =    -0.01025517    0.01523221    0.02505685
     atom   77 type  5   force =    -0.01007461   -0.01386583    0.02577660
     atom   78 type  6   force =     0.00248400    0.00149700   -0.00147188
     atom   79 type  6   force =     0.00482423   -0.00114370   -0.00170838
     atom   80 type  5   force =     0.00832828   -0.02079532    0.02582963
     atom   81 type  5   force =     0.00307911   -0.01092848   -0.01229887
     atom   82 type  6   force =    -0.00218785   -0.00120741   -0.00379035
     atom   83 type  6   force =     0.00187433    0.00066697   -0.00020076
     atom   84 type  5   force =     0.01152285    0.00712270   -0.00158024
     atom   85 type  5   force =    -0.03958919    0.04639742   -0.05019446
     atom   86 type  6   force =    -0.00136803    0.00018678    0.00006993
     atom   87 type  6   force =    -0.01953527    0.06490537   -0.03602046
     atom   88 type  5   force =     0.00950664    0.00501138   -0.05326015
     atom   89 type  5   force =     0.01168400   -0.00752265   -0.05510432
     atom   90 type  6   force =     0.02221943    0.05135736   -0.03057037
     atom   91 type  6   force =     0.02215341   -0.05094422   -0.02928297
     atom   92 type  5   force =     0.01920409    0.01492729   -0.00746226
     atom   93 type  5   force =     0.01847686   -0.01678735   -0.00879569
     atom   94 type  6   force =    -0.00272706    0.00662210   -0.00648256
     atom   95 type  5   force =    -0.03356937   -0.03285716   -0.01035600
     atom   96 type  5   force =    -0.03462740    0.03328358   -0.01380831
     atom   97 type  5   force =     0.02325288   -0.00045084    0.02104943
     atom   98 type  5   force =     0.00700133   -0.00147805    0.01209170
     atom   99 type  5   force =    -0.01012764   -0.00016454    0.00447224
     atom  100 type  5   force =    -0.01618438    0.00031506    0.01477400
     atom  101 type  4   force =    -0.09661116   -0.03379657   -0.01273493
     atom  102 type  6   force =    -0.02064252   -0.01442262   -0.00466829
     atom  103 type  6   force =    -0.02229105    0.00478835   -0.01790989
     atom  104 type  4   force =    -0.09767308    0.03731536   -0.01015789
     atom  105 type  6   force =    -0.02073197    0.01394985   -0.00577039
     atom  106 type  6   force =    -0.02166297   -0.00363273   -0.01783609
     atom  107 type  4   force =     0.07996632    0.04215797   -0.01865330
     atom  108 type  6   force =     0.00961443    0.00596518   -0.01836074
     atom  109 type  6   force =     0.02083831   -0.00405164   -0.01795280
     atom  110 type  4   force =    -0.08157628   -0.08151916    0.12632472
     atom  111 type  6   force =    -0.01961854    0.00780749    0.01109835
     atom  112 type  6   force =    -0.03067992   -0.03299949    0.04419817
     atom  113 type  4   force =     0.07383183   -0.08658292    0.14902055
     atom  114 type  6   force =     0.01938985    0.00541560    0.01075333
     atom  115 type  6   force =     0.01949429   -0.04454323    0.06631765
     atom  116 type  4   force =    -0.08763124    0.03495883   -0.02306857
     atom  117 type  6   force =    -0.00873331    0.00913379   -0.01700325
     atom  118 type  6   force =    -0.02085283   -0.00418293   -0.01854359
     atom  119 type  4   force =    -0.07913348    0.07726375    0.12463217
     atom  120 type  6   force =    -0.01987781   -0.00679068    0.01023379
     atom  121 type  6   force =    -0.03196228    0.03415634    0.04402429
     atom  122 type  4   force =    -0.07453417   -0.07679443    0.13526728
     atom  123 type  6   force =    -0.01900139    0.00691242    0.01022001
     atom  124 type  6   force =    -0.01835142   -0.02999255    0.05975980

     Total force =     0.651416     Total SCF correction =     0.001455

     BFGS Geometry Optimization

     number of scf cycles    =   1
     number of bfgs steps    =   0

     energy   new            =   -1790.9418169021 Ry

     new trust radius        =       0.1874963098 bohr
     new conv_thr            =       0.0000010000 Ry


ATOMIC_POSITIONS (crystal)
Ni2           0.2474132541        0.7515428767        0.8364260742
Ni1           0.4998816173        0.2482169869        0.3395053959
O             0.1228877776        0.3478989118        0.3830176110
O             0.3716428572        0.6510618479        0.8810170323
O             0.3771839372        0.1472205878        0.3768665862
O             0.1248852589        0.8524880914        0.8763473108
O             0.4729998881        0.3563179942        0.4831565414
O             0.2208538331        0.6412616529        0.9800539295
O             0.0286506787        0.1349237571        0.4812020998
O             0.2771741490        0.8626333515        0.9794170591
N             0.3089752351        0.8511778210        0.7052080678
N             0.0612465423        0.1489957683        0.2064838899
N             0.1858872168        0.6505737713        0.7063831037
N             0.4393786454        0.3507794056        0.2075506580
C             0.2885694357        0.9697695428        0.5227033924
C             0.0387263033        0.0313560288        0.0230815032
H             0.2371636855        0.9996852278        0.4431048407
H             0.4865906311        0.0025722942        0.9434042897
C             0.3903877393        0.0130725953        0.5444822898
C             0.1399639075        0.9864708016        0.0442707265
C             0.4575486314        0.9715461065        0.6526055489
C             0.2081261591        0.0269386115        0.1520050776
H             0.0320308848        0.9989157069        0.6733428236
C             0.2079196807        0.5300481943        0.5271529995
C             0.4630595419        0.4725163605        0.0226827560
H             0.2585780115        0.5007580565        0.4492203643
C             0.2450139412        0.6127856746        0.6060195569
C             0.4964661615        0.3879247864        0.1101300550
H             0.3226147948        0.6505451878        0.5927673534
H             0.0751598230        0.3527971398        0.0950072431
C             0.2494819518        0.8895509084        0.6028569030
C             0.0011970194        0.1119365060        0.1037632277
H             0.1701513356        0.8551234823        0.5886151062
H             0.4224165811        0.1477715268        0.0899286928
C             0.4071269048        0.8884950489        0.7281347110
C             0.1591917753        0.1104057887        0.2284576952
H             0.4534788851        0.8551848341        0.8088869261
H             0.2063115926        0.1430846956        0.3088908817
C             0.0903396201        0.6104830026        0.7255495495
C             0.3404125532        0.3918775452        0.2293419177
H             0.0444780560        0.6451320485        0.8050413677
H             0.2964312204        0.3575371016        0.3090433923
C             0.0416222893        0.5236763258        0.6528512451
C             0.2984269900        0.4742808753        0.1524335328
H             0.4685816844        0.4930167842        0.6731741715
H             0.2189241702        0.5053702105        0.1750716068
C             0.1084350093        0.4829971059        0.5483243379
C             0.3563358308        0.5169896593        0.0500744022
C             0.4331708504        0.0993931801        0.4670612993
C             0.1811078429        0.8996553175        0.9654149711
C             0.0680435908        0.3944336753        0.4703323207
C             0.3159319559        0.6042184638        0.9692812866
Ni2           0.7474760450        0.7514962418        0.8364060064
Ni1           1.0003927337        0.2480102224        0.3395075784
O             0.6233357330        0.3475870973        0.3825108314
O             0.8720243031        0.6508715938        0.8804788857
O             0.8766885716        0.1475490396        0.3763131314
O             0.6244776304        0.8525869242        0.8759025388
O             0.9723475344        0.3560064939        0.4830432663
O             0.7210314866        0.6411821575        0.9801285287
O             0.5292919769        0.1352326769        0.4811169304
O             0.7769723437        0.8627454323        0.9794993780
N             0.8078235660        0.8510669040        0.7044488253
N             0.5613141167        0.1492086426        0.2067886497
N             0.6869081758        0.6507497630        0.7056922454
N             0.9392327678        0.3505196422        0.2079054925
C             0.7837503300        0.9710843044        0.5169828042
C             0.5386994888        0.0314527034        0.0231656387
H             0.9866363221        0.0025648830        0.9433596481
C             0.8920886095        0.0131001487        0.5458811639
C             0.6399531693        0.9864433425        0.0442866340
C             0.9512197447        0.9697534578        0.6502019197
C             0.7081196836        0.0270777110        0.1513370819
C             0.7124979233        0.5288145195        0.5213813012
C             0.9630961593        0.4724200357        0.0230006753
C             0.7447265376        0.6139746382        0.6077255544
C             0.9964168525        0.3880910982        0.1099446249
H             0.8227447312        0.6505692561        0.5925591908
H             0.5751705368        0.3528026727        0.0949400097
C             0.7498526245        0.8883272920        0.6045333564
C             0.5011877647        0.1117702164        0.1036135463
H             0.6700578679        0.8550719807        0.5883647777
H             0.9224011246        0.1477601829        0.0898756596
C             0.9084631107        0.8896839703        0.7274706095
C             0.6582117244        0.1115075264        0.2252267319
H             0.9533121772        0.8551808922        0.8087646016
H             0.7053795968        0.1458455811        0.3069417647
C             0.5892143515        0.6091947562        0.7246088334
C             0.8413327584        0.3913151298        0.2265558495
H             0.5446405645        0.6451141089        0.8050334717
H             0.7972879779        0.3553733482        0.3075427794
C             0.5477306305        0.5257097537        0.6509276562
C             0.7984316077        0.4740016492        0.1523009774
H             0.7188305274        0.5054808174        0.1749301153
C             0.6067337975        0.4828816181        0.5495826138
C             0.8563537905        0.5170624004        0.0499268023
C             0.9343136817        0.0992999497        0.4677051518
C             0.6818245972        0.8996575451        0.9662947838
C             0.5669526387        0.3944670473        0.4709063431
C             0.8153720029        0.6041853128        0.9698679357
N             0.5540719402        0.0030999234        0.6839600867
H             0.5975691312        0.9695495713        0.7623135597
H             0.5969819613        0.0627873320        0.6345255504
N             0.3043454205        0.9942327634        0.1827338172
H             0.3486513133        0.0269164520        0.2607737957
H             0.3463816080        0.9341034988        0.1326433511
N             0.9462093074        0.4887023884        0.6826362610
H             0.9029176260        0.5212170590        0.7586003292
H             0.9055409494        0.4261977976        0.6340063401
N             0.5240234936        0.5016614016        0.9322213606
H             0.5997942401        0.4692139061        0.9152246212
H             0.5067532021        0.5630156040        0.8634884286
N             0.7214928958        0.0008274323        0.4253773105
H             0.6446065655        0.9703608367        0.4060428509
H             0.7387100688        0.0606848224        0.3561276935
N             0.8047592413        0.9941331880        0.1820678525
H             0.8491485100        0.0267139491        0.2601932468
H             0.8464142257        0.9340782498        0.1326089118
N             0.7738862744        0.4997937857        0.4307481857
H             0.8489634590        0.5334780594        0.4132240917
H             0.7571857755        0.4380602786        0.3626374731
N             0.0243288643        0.5018610454        0.9326809472
H             0.0998185319        0.4691740848        0.9151783823
H             0.0072904719        0.5631446625        0.8642919310



     Writing output data file ./NiPyC2_relax_meta_functionalized_NH2.save/
     NEW-OLD atomic charge density approx. for the potential

     Check: negative core charge=   -0.000145

     total cpu time spent up to now is     1603.3 secs

     Self-consistent Calculation

     iteration #  1     ecut=   100.00 Ry     beta= 0.70
     Davidson diagonalization with overlap
     ethr =  1.00E-06,  avg # of iterations = 14.5

     total cpu time spent up to now is     1944.1 secs

     total energy              =   -1791.03383077 Ry
     Harris-Foulkes estimate   =   -1791.10144690 Ry
     estimated scf accuracy    <       0.17285557 Ry

     total magnetization       =     8.00 Bohr mag/cell
     absolute magnetization    =     8.29 Bohr mag/cell

     iteration #  2     ecut=   100.00 Ry     beta= 0.70
     Davidson diagonalization with overlap
     ethr =  3.86E-05,  avg # of iterations =  2.0

     total cpu time spent up to now is     2009.6 secs

     total energy              =   -1791.02521080 Ry
     Harris-Foulkes estimate   =   -1791.05259175 Ry
     estimated scf accuracy    <       0.09829624 Ry

     total magnetization       =     8.00 Bohr mag/cell
     absolute magnetization    =     8.29 Bohr mag/cell

     iteration #  3     ecut=   100.00 Ry     beta= 0.70
     Davidson diagonalization with overlap
     ethr =  2.19E-05,  avg # of iterations =  2.0

     total cpu time spent up to now is     2074.7 secs

     total energy              =   -1791.02848744 Ry
     Harris-Foulkes estimate   =   -1791.05368598 Ry
     estimated scf accuracy    <       0.21016987 Ry

     total magnetization       =     8.00 Bohr mag/cell
     absolute magnetization    =     8.27 Bohr mag/cell

     iteration #  4     ecut=   100.00 Ry     beta= 0.70
     Davidson diagonalization with overlap
     ethr =  2.19E-05,  avg # of iterations =  1.5

     total cpu time spent up to now is     2137.2 secs

     total energy              =   -1791.03774469 Ry
     Harris-Foulkes estimate   =   -1791.03953041 Ry
     estimated scf accuracy    <       0.01388057 Ry

     total magnetization       =     8.00 Bohr mag/cell
     absolute magnetization    =     8.28 Bohr mag/cell

     iteration #  5     ecut=   100.00 Ry     beta= 0.70
     Davidson diagonalization with overlap
     ethr =  3.10E-06,  avg # of iterations =  5.0

     total cpu time spent up to now is     2202.9 secs

     total energy              =   -1791.03837493 Ry
     Harris-Foulkes estimate   =   -1791.03948474 Ry
     estimated scf accuracy    <       0.01504585 Ry

     total magnetization       =     8.00 Bohr mag/cell
     absolute magnetization    =     8.28 Bohr mag/cell

     iteration #  6     ecut=   100.00 Ry     beta= 0.70
     Davidson diagonalization with overlap
     ethr =  3.10E-06,  avg # of iterations =  2.5

     total cpu time spent up to now is     2264.7 secs

     total energy              =   -1791.03864622 Ry
     Harris-Foulkes estimate   =   -1791.03885250 Ry
     estimated scf accuracy    <       0.00124822 Ry

     total magnetization       =     8.00 Bohr mag/cell
     absolute magnetization    =     8.27 Bohr mag/cell

     iteration #  7     ecut=   100.00 Ry     beta= 0.70
     Davidson diagonalization with overlap
     ethr =  2.79E-07,  avg # of iterations =  5.5

     total cpu time spent up to now is     2337.9 secs

     total energy              =   -1791.03868308 Ry
     Harris-Foulkes estimate   =   -1791.03874209 Ry
     estimated scf accuracy    <       0.00042759 Ry

     total magnetization       =     8.00 Bohr mag/cell
     absolute magnetization    =     8.27 Bohr mag/cell

     iteration #  8     ecut=   100.00 Ry     beta= 0.70
     Davidson diagonalization with overlap
     ethr =  9.54E-08,  avg # of iterations =  1.5

     total cpu time spent up to now is     2399.4 secs

     total energy              =   -1791.03867175 Ry
     Harris-Foulkes estimate   =   -1791.03875629 Ry
     estimated scf accuracy    <       0.00122762 Ry

     total magnetization       =     8.00 Bohr mag/cell
     absolute magnetization    =     8.27 Bohr mag/cell

     iteration #  9     ecut=   100.00 Ry     beta= 0.70
     Davidson diagonalization with overlap
     ethr =  9.54E-08,  avg # of iterations =  1.0

     total cpu time spent up to now is     2460.5 secs

     total energy              =   -1791.03871220 Ry
     Harris-Foulkes estimate   =   -1791.03871897 Ry
     estimated scf accuracy    <       0.00014501 Ry

     total magnetization       =     8.00 Bohr mag/cell
     absolute magnetization    =     8.27 Bohr mag/cell

     iteration # 10     ecut=   100.00 Ry     beta= 0.70
     Davidson diagonalization with overlap
     ethr =  3.24E-08,  avg # of iterations =  3.5

     total cpu time spent up to now is     2525.4 secs

     total energy              =   -1791.03871932 Ry
     Harris-Foulkes estimate   =   -1791.03871875 Ry
     estimated scf accuracy    <       0.00004509 Ry

     total magnetization       =     8.00 Bohr mag/cell
     absolute magnetization    =     8.27 Bohr mag/cell

     iteration # 11     ecut=   100.00 Ry     beta= 0.70
     Davidson diagonalization with overlap
     ethr =  1.01E-08,  avg # of iterations =  3.0

     total cpu time spent up to now is     2588.9 secs

     total energy              =   -1791.03872010 Ry
     Harris-Foulkes estimate   =   -1791.03872107 Ry
     estimated scf accuracy    <       0.00003173 Ry

     total magnetization       =     8.00 Bohr mag/cell
     absolute magnetization    =     8.27 Bohr mag/cell

     iteration # 12     ecut=   100.00 Ry     beta= 0.70
     Davidson diagonalization with overlap
     ethr =  7.08E-09,  avg # of iterations =  3.0

     total cpu time spent up to now is     2652.2 secs

     total energy              =   -1791.03871902 Ry
     Harris-Foulkes estimate   =   -1791.03872369 Ry
     estimated scf accuracy    <       0.00007076 Ry

     total magnetization       =     8.00 Bohr mag/cell
     absolute magnetization    =     8.27 Bohr mag/cell

     iteration # 13     ecut=   100.00 Ry     beta= 0.70
     Davidson diagonalization with overlap
     ethr =  7.08E-09,  avg # of iterations =  2.0

     total cpu time spent up to now is     2714.4 secs

     total energy              =   -1791.03872130 Ry
     Harris-Foulkes estimate   =   -1791.03872190 Ry
     estimated scf accuracy    <       0.00000853 Ry

     total magnetization       =     8.00 Bohr mag/cell
     absolute magnetization    =     8.27 Bohr mag/cell

     iteration # 14     ecut=   100.00 Ry     beta= 0.70
     Davidson diagonalization with overlap
     ethr =  1.90E-09,  avg # of iterations =  3.0

     total cpu time spent up to now is     2779.2 secs

     total energy              =   -1791.03872171 Ry
     Harris-Foulkes estimate   =   -1791.03872215 Ry
     estimated scf accuracy    <       0.00000658 Ry

     total magnetization       =     8.00 Bohr mag/cell
     absolute magnetization    =     8.27 Bohr mag/cell

     iteration # 15     ecut=   100.00 Ry     beta= 0.70
     Davidson diagonalization with overlap
     ethr =  1.47E-09,  avg # of iterations =  2.0

     total cpu time spent up to now is     2841.1 secs

     total energy              =   -1791.03872226 Ry
     Harris-Foulkes estimate   =   -1791.03872208 Ry
     estimated scf accuracy    <       0.00000125 Ry

     total magnetization       =     8.00 Bohr mag/cell
     absolute magnetization    =     8.27 Bohr mag/cell

     iteration # 16     ecut=   100.00 Ry     beta= 0.70
     Davidson diagonalization with overlap
     ethr =  2.78E-10,  avg # of iterations =  4.0

     total cpu time spent up to now is     2908.7 secs

     total energy              =   -1791.03872216 Ry
     Harris-Foulkes estimate   =   -1791.03872237 Ry
     estimated scf accuracy    <       0.00000149 Ry

     total magnetization       =     8.00 Bohr mag/cell
     absolute magnetization    =     8.27 Bohr mag/cell

     iteration # 17     ecut=   100.00 Ry     beta= 0.70
     Davidson diagonalization with overlap
     ethr =  2.78E-10,  avg # of iterations =  3.0
 
     Magnetic moment per site:
     atom:    1    charge:    7.4378    magn:    1.1704    constr:    0.0000
     atom:    2    charge:    7.4894    magn:    1.1745    constr:    0.0000
     atom:    3    charge:    3.2652    magn:    0.0560    constr:    0.0000
     atom:    4    charge:    3.2645    magn:    0.0534    constr:    0.0000
     atom:    5    charge:    3.2675    magn:    0.0502    constr:    0.0000
     atom:    6    charge:    3.2610    magn:    0.0589    constr:    0.0000
     atom:    7    charge:    3.2614    magn:    0.0578    constr:    0.0000
     atom:    8    charge:    3.2621    magn:    0.0592    constr:    0.0000
     atom:    9    charge:    3.2680    magn:    0.0547    constr:    0.0000
     atom:   10    charge:    3.2627    magn:    0.0548    constr:    0.0000
     atom:   11    charge:    1.3319    magn:    0.0071    constr:    0.0000
     atom:   12    charge:    1.3316    magn:    0.0070    constr:    0.0000
     atom:   13    charge:    1.3346    magn:    0.0072    constr:    0.0000
     atom:   14    charge:    1.3325    magn:    0.0070    constr:    0.0000
     atom:   15    charge:    0.8458    magn:    0.0034    constr:    0.0000
     atom:   16    charge:    0.8468    magn:    0.0032    constr:    0.0000
     atom:   17    charge:    0.4239    magn:   -0.0012    constr:    0.0000
     atom:   18    charge:    0.4229    magn:   -0.0011    constr:    0.0000
     atom:   19    charge:    0.8402    magn:    0.0074    constr:    0.0000
     atom:   20    charge:    0.8389    magn:    0.0081    constr:    0.0000
     atom:   21    charge:    0.8274    magn:    0.0005    constr:    0.0000
     atom:   22    charge:    0.8293    magn:    0.0002    constr:    0.0000
     atom:   23    charge:    0.4222    magn:   -0.0013    constr:    0.0000
     atom:   24    charge:    0.8479    magn:    0.0031    constr:    0.0000
     atom:   25    charge:    0.8343    magn:    0.0001    constr:    0.0000
     atom:   26    charge:    0.4229    magn:   -0.0013    constr:    0.0000
     atom:   27    charge:    0.8372    magn:    0.0073    constr:    0.0000
     atom:   28    charge:    0.8390    magn:    0.0098    constr:    0.0000
     atom:   29    charge:    0.4301    magn:   -0.0014    constr:    0.0000
     atom:   30    charge:    0.4288    magn:   -0.0010    constr:    0.0000
     atom:   31    charge:    0.8370    magn:    0.0075    constr:    0.0000
     atom:   32    charge:    0.8379    magn:    0.0073    constr:    0.0000
     atom:   33    charge:    0.4315    magn:   -0.0014    constr:    0.0000
     atom:   34    charge:    0.4303    magn:   -0.0013    constr:    0.0000
     atom:   35    charge:    0.8402    magn:    0.0095    constr:    0.0000
     atom:   36    charge:    0.8393    magn:    0.0096    constr:    0.0000
     atom:   37    charge:    0.4292    magn:   -0.0006    constr:    0.0000
     atom:   38    charge:    0.4285    magn:   -0.0006    constr:    0.0000
     atom:   39    charge:    0.8449    magn:    0.0086    constr:    0.0000
     atom:   40    charge:    0.8384    magn:    0.0077    constr:    0.0000
     atom:   41    charge:    0.4303    magn:   -0.0006    constr:    0.0000
     atom:   42    charge:    0.4299    magn:   -0.0013    constr:    0.0000
     atom:   43    charge:    0.8302    magn:    0.0008    constr:    0.0000
     atom:   44    charge:    0.8460    magn:    0.0032    constr:    0.0000
     atom:   45    charge:    0.4192    magn:   -0.0011    constr:    0.0000
     atom:   46    charge:    0.4225    magn:   -0.0012    constr:    0.0000
     atom:   47    charge:    0.8420    magn:    0.0074    constr:    0.0000
     atom:   48    charge:    0.8380    magn:    0.0082    constr:    0.0000
     atom:   49    charge:    0.8232    magn:   -0.0008    constr:    0.0000
     atom:   50    charge:    0.8244    magn:   -0.0016    constr:    0.0000
     atom:   51    charge:    0.8238    magn:   -0.0013    constr:    0.0000
     atom:   52    charge:    0.8248    magn:   -0.0016    constr:    0.0000
     atom:   53    charge:    7.4420    magn:    1.1752    constr:    0.0000
     atom:   54    charge:    7.4884    magn:    1.1746    constr:    0.0000
     atom:   55    charge:    3.2645    magn:    0.0523    constr:    0.0000
     atom:   56    charge:    3.2640    magn:    0.0478    constr:    0.0000
     atom:   57    charge:    3.2646    magn:    0.0476    constr:    0.0000
     atom:   58    charge:    3.2633    magn:    0.0506    constr:    0.0000
     atom:   59    charge:    3.2632    magn:    0.0516    constr:    0.0000
     atom:   60    charge:    3.2672    magn:    0.0528    constr:    0.0000
     atom:   61    charge:    3.2703    magn:    0.0481    constr:    0.0000
     atom:   62    charge:    3.2687    magn:    0.0476    constr:    0.0000
     atom:   63    charge:    1.3326    magn:    0.0074    constr:    0.0000
     atom:   64    charge:    1.3357    magn:    0.0073    constr:    0.0000
     atom:   65    charge:    1.3354    magn:    0.0070    constr:    0.0000
     atom:   66    charge:    1.3357    magn:    0.0069    constr:    0.0000
     atom:   67    charge:    0.8378    magn:    0.0004    constr:    0.0000
     atom:   68    charge:    0.8476    magn:    0.0027    constr:    0.0000
     atom:   69    charge:    0.4227    magn:   -0.0012    constr:    0.0000
     atom:   70    charge:    0.8391    magn:    0.0077    constr:    0.0000
     atom:   71    charge:    0.8404    magn:    0.0071    constr:    0.0000
     atom:   72    charge:    0.8460    magn:    0.0034    constr:    0.0000
     atom:   73    charge:    0.8311    magn:    0.0006    constr:    0.0000
     atom:   74    charge:    0.8371    magn:    0.0000    constr:    0.0000
     atom:   75    charge:    0.8357    magn:   -0.0001    constr:    0.0000
     atom:   76    charge:    0.8406    magn:    0.0098    constr:    0.0000
     atom:   77    charge:    0.8391    magn:    0.0099    constr:    0.0000
     atom:   78    charge:    0.4292    magn:   -0.0009    constr:    0.0000
     atom:   79    charge:    0.4300    magn:   -0.0009    constr:    0.0000
     atom:   80    charge:    0.8415    magn:    0.0095    constr:    0.0000
     atom:   81    charge:    0.8378    magn:    0.0073    constr:    0.0000
     atom:   82    charge:    0.4304    magn:   -0.0008    constr:    0.0000
     atom:   83    charge:    0.4313    magn:   -0.0013    constr:    0.0000
     atom:   84    charge:    0.8395    magn:    0.0076    constr:    0.0000
     atom:   85    charge:    0.8451    magn:    0.0085    constr:    0.0000
     atom:   86    charge:    0.4298    magn:   -0.0012    constr:    0.0000
     atom:   87    charge:    0.4284    magn:   -0.0005    constr:    0.0000
     atom:   88    charge:    0.8455    magn:    0.0070    constr:    0.0000
     atom:   89    charge:    0.8451    magn:    0.0070    constr:    0.0000
     atom:   90    charge:    0.4283    magn:   -0.0011    constr:    0.0000
     atom:   91    charge:    0.4286    magn:   -0.0011    constr:    0.0000
     atom:   92    charge:    0.8490    magn:    0.0028    constr:    0.0000
     atom:   93    charge:    0.8484    magn:    0.0029    constr:    0.0000
     atom:   94    charge:    0.4199    magn:   -0.0011    constr:    0.0000
     atom:   95    charge:    0.8406    magn:    0.0079    constr:    0.0000
     atom:   96    charge:    0.8385    magn:    0.0076    constr:    0.0000
     atom:   97    charge:    0.8230    magn:   -0.0011    constr:    0.0000
     atom:   98    charge:    0.8239    magn:   -0.0008    constr:    0.0000
     atom:   99    charge:    0.8244    magn:   -0.0015    constr:    0.0000
     atom:  100    charge:    0.8241    magn:   -0.0010    constr:    0.0000
     atom:  101    charge:    1.3456    magn:    0.0131    constr:    0.0000
     atom:  102    charge:    0.3993    magn:   -0.0003    constr:    0.0000
     atom:  103    charge:    0.3942    magn:   -0.0003    constr:    0.0000
     atom:  104    charge:    1.3445    magn:    0.0135    constr:    0.0000
     atom:  105    charge:    0.4003    magn:   -0.0004    constr:    0.0000
     atom:  106    charge:    0.3918    magn:   -0.0003    constr:    0.0000
     atom:  107    charge:    1.3478    magn:    0.0128    constr:    0.0000
     atom:  108    charge:    0.4046    magn:   -0.0003    constr:    0.0000
     atom:  109    charge:    0.3948    magn:   -0.0003    constr:    0.0000
     atom:  110    charge:    1.3365    magn:    0.0118    constr:    0.0000
     atom:  111    charge:    0.3983    magn:   -0.0004    constr:    0.0000
     atom:  112    charge:    0.3829    magn:   -0.0004    constr:    0.0000
     atom:  113    charge:    1.3368    magn:    0.0115    constr:    0.0000
     atom:  114    charge:    0.3987    magn:   -0.0003    constr:    0.0000
     atom:  115    charge:    0.3855    magn:   -0.0004    constr:    0.0000
     atom:  116    charge:    1.3483    magn:    0.0132    constr:    0.0000
     atom:  117    charge:    0.4008    magn:   -0.0003    constr:    0.0000
     atom:  118    charge:    0.3951    magn:   -0.0002    constr:    0.0000
     atom:  119    charge:    1.3377    magn:    0.0118    constr:    0.0000
     atom:  120    charge:    0.3994    magn:   -0.0004    constr:    0.0000
     atom:  121    charge:    0.3843    magn:   -0.0004    constr:    0.0000
     atom:  122    charge:    1.3381    magn:    0.0120    constr:    0.0000
     atom:  123    charge:    0.3985    magn:   -0.0004    constr:    0.0000
     atom:  124    charge:    0.3864    magn:   -0.0004    constr:    0.0000

     total cpu time spent up to now is     2971.2 secs

     End of self-consistent calculation

 ------ SPIN UP ------------


          k = 0.0000 0.0000 0.0000 ( 91663 PWs)   bands (ev):

   -21.4986 -21.4878 -21.4717 -21.4239 -21.3692 -21.3442 -21.3420 -21.2995
   -19.1552 -19.0870 -18.9574 -18.8204 -18.7837 -18.7648 -18.6748 -18.6122
   -18.5443 -18.5288 -18.4899 -18.4880 -18.4755 -18.4389 -18.4133 -18.3863
   -18.2204 -18.1625 -18.1150 -17.9956 -17.9451 -17.9333 -17.8192 -17.7712
   -14.5628 -14.5295 -14.4919 -14.4114 -14.3649 -14.3484 -14.3080 -14.2966
   -13.5980 -13.4352 -13.3282 -13.1148 -13.0457 -12.9715 -12.9254 -12.9023
   -11.5749 -11.4691 -11.3020 -11.1137 -11.0475 -11.0201 -10.9749 -10.9441
   -10.6482 -10.5865 -10.5455 -10.3756 -10.3495 -10.3306 -10.2736 -10.1984
    -9.4012  -9.2594  -9.0990  -8.8640  -8.6861  -8.6155  -8.4481  -8.4224
    -8.3826  -8.3272  -8.2915  -8.2234  -8.1805  -8.1638  -8.0901  -7.9737
[...]
     atom   16 type  5   force =    -0.00035278   -0.00009610   -0.00041584
     atom   17 type  6   force =     0.00021089   -0.00018136    0.00069652
     atom   18 type  6   force =    -0.00041861   -0.00043109    0.00005735
     atom   19 type  5   force =     0.00080084    0.00037642   -0.00025815
     atom   20 type  5   force =     0.00045530    0.00020049    0.00079693
     atom   21 type  5   force =     0.00040988    0.00020091    0.00066675
     atom   22 type  5   force =    -0.00123017    0.00035873   -0.00006258
     atom   23 type  6   force =    -0.00093369   -0.00090535    0.00061179
     atom   24 type  5   force =    -0.00042543    0.00077060    0.00061810
     atom   25 type  5   force =     0.00000852   -0.00009485    0.00010220
     atom   26 type  6   force =     0.00099700   -0.00089625   -0.00084349
     atom   27 type  5   force =     0.00079730   -0.00072684   -0.00019800
     atom   28 type  5   force =    -0.00048556    0.00051828   -0.00053741
     atom   29 type  6   force =    -0.00026234    0.00009903    0.00024826
     atom   30 type  6   force =    -0.00030747   -0.00027701    0.00067628
     atom   31 type  5   force =     0.00091396    0.00092355    0.00005423
     atom   32 type  5   force =    -0.00039993   -0.00015651    0.00123802
     atom   33 type  6   force =     0.00010428   -0.00046906    0.00027886
     atom   34 type  6   force =    -0.00008033    0.00032825    0.00061685
     atom   35 type  5   force =    -0.00047041    0.00002065   -0.00080191
     atom   36 type  5   force =    -0.00044433    0.00049785    0.00088672
     atom   37 type  6   force =     0.00011781    0.00058059   -0.00020196
     atom   38 type  6   force =     0.00008400   -0.00016390   -0.00018982
     atom   39 type  5   force =     0.00031440   -0.00063630    0.00052530
     atom   40 type  5   force =     0.00053305   -0.00000809    0.00113583
     atom   41 type  6   force =    -0.00002263    0.00010395    0.00010798
     atom   42 type  6   force =     0.00072372    0.00081360   -0.00067900
     atom   43 type  5   force =    -0.00113722    0.00033875    0.00079478
     atom   44 type  5   force =    -0.00101917    0.00224617    0.00028246
     atom   45 type  6   force =     0.00082200    0.00023336   -0.00024650
     atom   46 type  6   force =     0.00060498    0.00000105    0.00022618
     atom   47 type  5   force =     0.00115622   -0.00071408   -0.00014528
     atom   48 type  5   force =     0.00031264   -0.00019507    0.00053937
     atom   49 type  5   force =    -0.00128240    0.00053098    0.00036675
     atom   50 type  5   force =     0.00081283   -0.00006549    0.00075356
     atom   51 type  5   force =    -0.00068573    0.00078770    0.00066940
     atom   52 type  5   force =     0.00041476   -0.00006348    0.00066476
     atom   53 type  1   force =    -0.00004732    0.00014926   -0.01562610
     atom   54 type  2   force =    -0.00287804   -0.00208284    0.00055382
     atom   55 type  3   force =    -0.00109526   -0.00174588    0.00080205
     atom   56 type  3   force =    -0.00074758   -0.00001795    0.00044410
     atom   57 type  3   force =     0.00066692    0.00049222    0.00064148
     atom   58 type  3   force =     0.00065726   -0.00072486   -0.00093205
     atom   59 type  3   force =    -0.00031556    0.00089694    0.00091245
     atom   60 type  3   force =    -0.00057724   -0.00043541   -0.00014298
     atom   61 type  3   force =     0.00012671   -0.00026764    0.00092293
     atom   62 type  3   force =     0.00132990   -0.00007831    0.00050914
     atom   63 type  4   force =     0.00106896    0.00105556   -0.00090403
     atom   64 type  4   force =     0.00025914    0.00035728    0.00060642
     atom   65 type  4   force =    -0.00167766   -0.00045123    0.00011159
     atom   66 type  4   force =     0.00027002    0.00140120    0.00225412
     atom   67 type  5   force =     0.00068472    0.00032742    0.00129730
     atom   68 type  5   force =     0.00015695    0.00033746    0.00020685
     atom   69 type  6   force =     0.00052283   -0.00004985    0.00037354
     atom   70 type  5   force =    -0.00016404    0.00043235   -0.00104185
     atom   71 type  5   force =     0.00052311   -0.00143671   -0.00039068
     atom   72 type  5   force =    -0.00122796    0.00018190    0.00046575
     atom   73 type  5   force =    -0.00092374   -0.00002438    0.00036751
     atom   74 type  5   force =    -0.00073279   -0.00185836    0.00028759
     atom   75 type  5   force =    -0.00199116    0.00064491    0.00296775
     atom   76 type  5   force =    -0.00069944    0.00152785   -0.00228901
     atom   77 type  5   force =    -0.00028751   -0.00052963   -0.00195517
     atom   78 type  6   force =    -0.00138374   -0.00107605    0.00026983
     atom   79 type  6   force =     0.00009871   -0.00029263    0.00032916
     atom   80 type  5   force =    -0.00042593    0.00005964   -0.00126152
     atom   81 type  5   force =    -0.00033097    0.00039747   -0.00159786
     atom   82 type  6   force =     0.00018682    0.00057240   -0.00052426
     atom   83 type  6   force =     0.00088306   -0.00053868    0.00075172
     atom   84 type  5   force =     0.00107090    0.00104006   -0.00042437
     atom   85 type  5   force =    -0.00008845    0.00042844   -0.00016023
     atom   86 type  6   force =    -0.00111420   -0.00068037   -0.00101114
     atom   87 type  6   force =     0.00110791    0.00092459   -0.00028123
     atom   88 type  5   force =     0.00038424   -0.00031376    0.00005514
     atom   89 type  5   force =    -0.00077050    0.00043017   -0.00030256
     atom   90 type  6   force =    -0.00043588    0.00077482    0.00007280
     atom   91 type  6   force =    -0.00015258   -0.00076432   -0.00191566
     atom   92 type  5   force =    -0.00022105    0.00018614   -0.00006845
     atom   93 type  5   force =     0.00022506    0.00004282    0.00083252
     atom   94 type  6   force =     0.00058291    0.00040213   -0.00007891
     atom   95 type  5   force =     0.00089087    0.00047231   -0.00001578
     atom   96 type  5   force =    -0.00079221   -0.00064876   -0.00161421
     atom   97 type  5   force =    -0.00047915   -0.00076025    0.00049936
     atom   98 type  5   force =     0.00027845   -0.00040054   -0.00115405
     atom   99 type  5   force =    -0.00086204    0.00111536    0.00006773
     atom  100 type  5   force =    -0.00087530    0.00066960   -0.00064472
     atom  101 type  4   force =    -0.00134757   -0.00114375    0.00020926
     atom  102 type  6   force =     0.00080753    0.00108880    0.00036207
     atom  103 type  6   force =     0.00067594   -0.00002605    0.00040904
     atom  104 type  4   force =     0.00161831   -0.00038006    0.00138956
     atom  105 type  6   force =     0.00040447   -0.00001562    0.00050338
     atom  106 type  6   force =     0.00002888   -0.00044162   -0.00024331
     atom  107 type  4   force =     0.00079648   -0.00027166    0.00028389
     atom  108 type  6   force =    -0.00071032    0.00080219    0.00134599
     atom  109 type  6   force =     0.00027493   -0.00047115    0.00008366
     atom  110 type  4   force =    -0.00139085   -0.00081047   -0.00023869
     atom  111 type  6   force =     0.00005285   -0.00055161   -0.00009673
     atom  112 type  6   force =     0.00038209   -0.00055263    0.00109240
     atom  113 type  4   force =     0.00053628    0.00058289   -0.00024788
     atom  114 type  6   force =     0.00049651   -0.00020952   -0.00012987
     atom  115 type  6   force =    -0.00007202   -0.00028652    0.00066479
     atom  116 type  4   force =     0.00060493    0.00024348    0.00101163
     atom  117 type  6   force =     0.00135238    0.00008970    0.00009685
     atom  118 type  6   force =    -0.00086176    0.00015660    0.00041286
     atom  119 type  4   force =     0.00127216   -0.00015427   -0.00047756
     atom  120 type  6   force =    -0.00065456    0.00054493    0.00124350
     atom  121 type  6   force =    -0.00020246   -0.00141085   -0.00031546
     atom  122 type  4   force =     0.00360243    0.00005322   -0.00095768
     atom  123 type  6   force =    -0.00095551    0.00012838    0.00016519
     atom  124 type  6   force =     0.00052925    0.00068979    0.00106797

     Total force =     0.022076     Total SCF correction =     0.000380

     number of scf cycles    =  79
     number of bfgs steps    =  78

     energy   old            =   -1791.3790748766 Ry
     energy   new            =   -1791.3797902476 Ry

     CASE: energy  _new < energy  _old

     new trust radius        =       0.0215213916 bohr
     new conv_thr            =       0.0000000715 Ry


ATOMIC_POSITIONS (crystal)
Ni2           0.2509485109        0.7490194348        0.8360410820
Ni1           0.4954308062        0.2445307384        0.3388250810
O             0.1270072119        0.3401853306        0.3834278226
O             0.3789964829        0.6493072780        0.8822785653
O             0.3749583640        0.1404728295        0.3746485032
O             0.1271036393        0.8457132845        0.8785132712
O             0.4704384005        0.3602234500        0.4738872515
O             0.2248256753        0.6354694860        0.9734089230
O             0.0320315608        0.1335102339        0.4817086651
O             0.2801691639        0.8580157386        0.9814143163
N             0.3086679591        0.8493033451        0.7087377375
N             0.0624953127        0.1481129002        0.2026360019
N             0.1921379342        0.6530078674        0.6969612562
N             0.4325999775        0.3409421543        0.2052585334
C             0.2857054838        0.9735964438        0.5315719568
C             0.0467335779        0.0333024719        0.0138017170
H             0.2327581992        1.0056717205        0.4560404094
H             0.4795088066       -0.0181090204        0.9584952941
C             0.3883657986        0.0144639989        0.5516934581
C             0.1428766123        0.9821973958        0.0446105109
C             0.4512157827        0.9699950837        0.6561207824
C             0.2018282962        0.0213074334        0.1554452073
H             0.0428333108        0.9886831741        0.6669561633
C             0.2172346736        0.5180489678        0.5321962444
C             0.4629339714        0.4651637930        0.0306574369
H             0.2714776577        0.4805767406        0.4648594952
C             0.2548681955        0.6028537264        0.6096465033
C             0.4955985354        0.3794928023        0.1133296577
H             0.3362599669        0.6323739920        0.6034804544
H             0.0906473250        0.3821819334        0.1374360352
C             0.2477738291        0.8915447865        0.6104590593
C             0.0096322875        0.1166784832        0.0919068724
H             0.1678643115        0.8586983333        0.5976631719
H             0.4124109001        0.1293107032        0.0974697639
C             0.4073786725        0.8856269658        0.7312619657
C             0.1568834542        0.1042155730        0.2324134326
H             0.4541908875        0.8506868370        0.8112320980
H             0.2000685353        0.1329576389        0.3187523053
C             0.0904438316        0.6228948081        0.7065097595
C             0.3328400471        0.3814745350        0.2187061791
H             0.0397054772        0.6692986204        0.7701620220
H             0.2846732004        0.3476459782        0.2951884777
C             0.0480645421        0.5327595790        0.6381378818
C             0.2949156984        0.4650366167        0.1396283546
H             0.4571404248        0.5166830349        0.6347614875
H             0.2164020894        0.4978304256        0.1589465636
C             0.1131277499        0.4802958159        0.5449049843
C             0.3584293652        0.5092771454        0.0440902452
C             0.4305073369        0.0990339680        0.4693402528
C             0.1839749563        0.8936748783        0.9666197177
C             0.0713809393        0.3906577124        0.4670655796
C             0.3209190293        0.5998479511        0.9647967909
Ni2           0.7470050095        0.7481794302        0.8368390945
Ni1           1.0010681820        0.2437196531        0.3388200715
O             0.6228674678        0.3466515908        0.3774465954
O             0.8678933843        0.6411099282        0.8733184581
O             0.8784744676        0.1401852729        0.3784270344
O             0.6258662662        0.8529193390        0.8727997232
O             0.9737185511        0.3576113904        0.4765444195
O             0.7155079898        0.6277424102        0.9702919392
O             0.5260423583        0.1367106228        0.4840670358
O             0.7736845774        0.8540884512        0.9885269024
N             0.8175146261        0.8457917507        0.7142796521
N             0.5563723095        0.1508980524        0.1993238910
N             0.6819648794        0.6612210196        0.6913478529
N             0.9397445199        0.3409547553        0.2021666165
C             0.7900051818        0.9710883124        0.5390542079
C             0.5338300815        0.0196437700        0.0286099052
H             0.9992833550        0.0095282232        0.9286256445
C             0.8976843006        0.0088413079        0.5519329900
C             0.6391350409        0.9845233218        0.0438530180
C             0.9609750246        0.9622042070        0.6497847642
C             0.7050139577        0.0389822142        0.1377959303
C             0.7099574395        0.5323578595        0.5204189041
C             0.9663328471        0.4829241399        0.0472993625
C             0.7451186022        0.6176329537        0.6026564317
C             1.0052747449        0.3993670472        0.1299173065
H             0.8260535427        0.6491742293        0.5952120820
H             0.5744073189        0.3435667632        0.1037190055
C             0.7554636713        0.8862821057        0.6193736724
C             0.4945033736        0.1017101510        0.1067911911
H             0.6750255256        0.8539215949        0.6069382916
H             0.9358658064        0.1589004009        0.0680278303
C             0.9188950150        0.8830566782        0.7308667936
C             0.6593657394        0.1244130796        0.2096752107
H             0.9664792423        0.8498895278        0.8108158594
H             0.7083967970        0.1700115976        0.2785621072
C             0.5783715047        0.6291084250        0.6954287755
C             0.8329118260        0.3597566801        0.1938670303
H             0.5283499842        0.6728105406        0.7621726873
H             0.7835813133        0.3108034580        0.2559333046
C             0.5386668221        0.5436302183        0.6209528940
C             0.7885243424        0.4405877619        0.1156976380
H             0.7030240080        0.4555932789        0.1206481917
C             0.6039187921        0.4912865792        0.5335170103
C             0.8535816177        0.5038353479        0.0392660454
C             0.9378054121        0.0955180217        0.4698463518
C             0.6807900870        0.8950795625        0.9681236613
C             0.5650126976        0.3974895959        0.4601623445
C             0.8105629053        0.5923243509        0.9598528526
N             0.5489818072        0.0044466140        0.6892196559
H             0.5900755679        0.9635832553        0.7621080919
H             0.5785654404        0.0684039618        0.6385249886
N             0.2968060090        0.9829277511        0.1929135057
H             0.3376029488        0.0224333160        0.2666974138
H             0.3301267240        0.9247793439        0.1356955141
N             0.9498718740        0.5001000070        0.6671832203
H             0.9092305567        0.5392912833        0.7390615315
H             0.9208438797        0.4336964751        0.6189199006
N             0.5303719976        0.5037352640        0.9443994503
H             0.6098416010        0.4856881667        0.9468369719
H             0.5056725412        0.5702121796        0.8933489921
N             0.7192893965        0.0152099027        0.4567895289
H             0.6396203166        0.9983858798        0.4593045060
H             0.7443744960        0.0816670904        0.4080266910
N             0.8062068425        1.0117728977        0.1633816316
H             0.8479401187        0.0510751263        0.2367385066
H             0.8364417144        0.9477216403        0.1130735100
N             0.7768618311        0.4906158339        0.4352554047
H             0.8555119902        0.5113770223        0.4326118286
H             0.7496283331        0.4258842164        0.3826794364
N             0.0341315404        0.5439896152        0.9836007167
H             0.1163505239        0.5468019572        0.9958768119
H            -0.0008803188        0.6050991088        0.9309833071



     Writing output data file ./NiPyC2_relax_meta_functionalized_NH2.save/
     NEW-OLD atomic charge density approx. for the potential

     Check: negative core charge=   -0.000145

     total cpu time spent up to now is    79958.2 secs

     Self-consistent Calculation

     iteration #  1     ecut=   100.00 Ry     beta= 0.70
     Davidson diagonalization with overlap
     ethr =  1.00E-06,  avg # of iterations =  4.0

     Threshold (ethr) on eigenvalues was too large:
     Diagonalizing with lowered threshold

     Davidson diagonalization with overlap
     ethr =  4.93E-08,  avg # of iterations =  2.0

     total cpu time spent up to now is    80171.0 secs

     total energy              =   -1791.38003606 Ry
     Harris-Foulkes estimate   =   -1791.38007579 Ry
     estimated scf accuracy    <       0.00021791 Ry

     total magnetization       =     8.00 Bohr mag/cell
     absolute magnetization    =     8.28 Bohr mag/cell

     iteration #  2     ecut=   100.00 Ry     beta= 0.70
     Davidson diagonalization with overlap
     ethr =  4.86E-08,  avg # of iterations =  2.0

     total cpu time spent up to now is    80234.1 secs

     total energy              =   -1791.38002571 Ry
     Harris-Foulkes estimate   =   -1791.38005934 Ry
     estimated scf accuracy    <       0.00026505 Ry

     total magnetization       =     8.00 Bohr mag/cell
     absolute magnetization    =     8.28 Bohr mag/cell

     iteration #  3     ecut=   100.00 Ry     beta= 0.70
     Davidson diagonalization with overlap
     ethr =  4.86E-08,  avg # of iterations =  2.0

     total cpu time spent up to now is    80296.4 secs

     total energy              =   -1791.38004057 Ry
     Harris-Foulkes estimate   =   -1791.38006755 Ry
     estimated scf accuracy    <       0.00040064 Ry

     total magnetization       =     8.00 Bohr mag/cell
     absolute magnetization    =     8.28 Bohr mag/cell

     iteration #  4     ecut=   100.00 Ry     beta= 0.70
     Davidson diagonalization with overlap
     ethr =  4.86E-08,  avg # of iterations =  1.0

     total cpu time spent up to now is    80357.4 secs

     total energy              =   -1791.38005396 Ry
     Harris-Foulkes estimate   =   -1791.38005790 Ry
     estimated scf accuracy    <       0.00003035 Ry

     total magnetization       =     8.00 Bohr mag/cell
     absolute magnetization    =     8.28 Bohr mag/cell

     iteration #  5     ecut=   100.00 Ry     beta= 0.70
     Davidson diagonalization with overlap
     ethr =  6.77E-09,  avg # of iterations =  2.0

     total cpu time spent up to now is    80419.6 secs

     total energy              =   -1791.38005640 Ry
     Harris-Foulkes estimate   =   -1791.38005636 Ry
     estimated scf accuracy    <       0.00000165 Ry

     total magnetization       =     8.00 Bohr mag/cell
     absolute magnetization    =     8.28 Bohr mag/cell

     iteration #  6     ecut=   100.00 Ry     beta= 0.70
     Davidson diagonalization with overlap
