/apps/openmpi/3.1_intel-19/bin/mpiexec
starting QE Fri May 29 18:51:25 PDT 2020

     Program PWSCF v.6.5 starts on 29May2020 at 18:51:27 

     This program is part of the open-source Quantum ESPRESSO suite
     for quantum simulation of materials; please cite
         "P. Giannozzi et al., J. Phys.:Condens. Matter 21 395502 (2009);
         "P. Giannozzi et al., J. Phys.:Condens. Matter 29 465901 (2017);
          URL http://www.quantum-espresso.org", 
     in publications or presentations arising from this work. More details at
     http://www.quantum-espresso.org/quote

     Parallel version (MPI), running on    16 processors

     MPI processes distributed on     1 nodes
     K-points division:     npool     =       2
     R & G space division:  proc/nbgrp/npool/nimage =       8
     Reading input from QE_input_scripts/pw.NiPyC2_P1.vc-relax.in

     Current dimensions of program PWSCF are:
     Max number of different atomic species (ntypx) = 10
     Max number of k-points (npk) =  40000
     Max angular momentum in pseudopotentials (lmaxx) =  3

     -------------------------------------------------
     Parameters for Dispersion (Grimme-D2) Correction:
     -------------------------------------------------
       atom      VdW radius       C_6     

        Ni2        2.952        374.666
        Ni1        2.952        374.666
        O          2.536         24.284
        N          2.640         42.670
        C          2.744         60.710
        H          1.892          4.857

     gamma-point specific algorithms are used

     Subspace diagonalization in iterative solution of the eigenvalue problem:
     a serial algorithm will be used

 
     Parallelization info
     --------------------
     sticks:   dense  smooth     PW     G-vecs:    dense   smooth      PW
     Min        1113    1113    276                91690    91690   11450
     Max        1116    1116    278                91692    91692   11458
     Sum        8917    8917   2219               733525   733525   91637
 


     bravais-lattice index     =            0
     lattice parameter (alat)  =      11.8161  a.u.
     unit-cell volume          =    5429.3114 (a.u.)^3
     number of atoms/cell      =           54
     number of atomic types    =            6
     number of electrons       =       200.00 (up: 102.00, down:  98.00)
     number of Kohn-Sham states=          122
     kinetic-energy cutoff     =     100.0000  Ry
     charge density cutoff     =     400.0000  Ry
     convergence threshold     =      1.0E-06
     mixing beta               =       0.7000
     number of iterations used =            8  local-TF  mixing
     Exchange-correlation= PBESOL
                           (   1   4  10   8   0   0   0)
     nstep                     =          200


     celldm(1)=  11.816080  celldm(2)=   0.000000  celldm(3)=   0.000000
     celldm(4)=   0.000000  celldm(5)=   0.000000  celldm(6)=   0.000000

     crystal axes: (cart. coord. in units of alat)
               a(1) = (   1.000000   0.000000   0.000000 )  
               a(2) = (   0.000000   2.002847   0.000000 )  
               a(3) = (  -0.036399   0.000000   1.643149 )  

     reciprocal axes: (cart. coord. in units 2 pi/alat)
               b(1) = (  1.000000  0.000000  0.022152 )  
               b(2) = (  0.000000  0.499289  0.000000 )  
               b(3) = (  0.000000  0.000000  0.608588 )  


     PseudoPot. # 1 for Ni read from file:
     ./pseudo/Ni.pbesol-n-nc.UPF
     MD5 check sum: 623411631e0c2eb7c0b2b9815547d2d9
     Pseudo is Norm-conserving + core correction, Zval = 10.0
     Generated using "atomic" code by A. Dal Corso v.6.5
     Using radial grid of 1195 points,  2 beta functions with: 
                l(1) =   1
                l(2) =   2

     PseudoPot. # 2 for Ni read from file:
     ./pseudo/Ni.pbesol-n-nc.UPF
     MD5 check sum: 623411631e0c2eb7c0b2b9815547d2d9
     Pseudo is Norm-conserving + core correction, Zval = 10.0
     Generated using "atomic" code by A. Dal Corso v.6.5
     Using radial grid of 1195 points,  2 beta functions with: 
                l(1) =   1
                l(2) =   2

     PseudoPot. # 3 for O  read from file:
     ./pseudo/O.pbesol-nc.UPF
     MD5 check sum: 73d10e7e91dbfcbe8a7e362101007f84
     Pseudo is Norm-conserving, Zval =  6.0
     Generated using "atomic" code by A. Dal Corso v.6.5
     Using radial grid of 1095 points,  1 beta functions with: 
                l(1) =   1

     PseudoPot. # 4 for N  read from file:
     ./pseudo/N.pbesol-nc.UPF
     MD5 check sum: e18cc5e4b8a5600c1a19b30c2cab1ca0
     Pseudo is Norm-conserving, Zval =  5.0
     Generated using "atomic" code by A. Dal Corso v.6.5
     Using radial grid of 1085 points,  1 beta functions with: 
                l(1) =   1

     PseudoPot. # 5 for C  read from file:
     ./pseudo/C.pbesol-nc.UPF
     MD5 check sum: ce26087537ded160c8d400e183a8bf42
     Pseudo is Norm-conserving, Zval =  4.0
     Generated using "atomic" code by A. Dal Corso v.6.5
     Using radial grid of 1073 points,  1 beta functions with: 
                l(1) =   1

     PseudoPot. # 6 for H  read from file:
     ./pseudo/H.pbesol-n-nc.UPF
     MD5 check sum: 7995ef24074557c85b430109caaacc09
     Pseudo is Norm-conserving, Zval =  1.0
     Generated using "atomic" code by A. Dal Corso v.6.5
     Using radial grid of  929 points,  0 beta functions with: 

     atomic species   valence    mass     pseudopotential
        Ni2           10.00    58.69340     Ni( 1.00)
        Ni1           10.00    58.69340     Ni( 1.00)
        O              6.00    15.99940     O ( 1.00)
        N              5.00    14.00670     N ( 1.00)
        C              4.00    12.01070     C ( 1.00)
        H              1.00     1.00794     H ( 1.00)

     Starting magnetic structure 
     atomic species   magnetization
        Ni2          0.250
        Ni1          0.250
        O            0.000
        N            0.000
        C            0.000
        H            0.000

     No symmetry found



   Cartesian axes

     site n.     atom                  positions (alat units)
         1           Ni2 tau(   1) = (   0.4642458   1.5100663   1.3793082  )
         2           O   tau(   2) = (   0.2269989   0.7002353   0.6455930  )
         3           O   tau(   3) = (   0.7414252   0.2665388   0.6082936  )
         4           O   tau(   4) = (   0.9187989   0.7054627   0.8171378  )
         5           O   tau(   5) = (   0.0492397   0.2399410   0.7791810  )
         6           N   tau(   6) = (   0.6025592   1.6881995   1.1439600  )
         7           N   tau(   7) = (   0.3350713   1.2940393   1.1750155  )
         8           C   tau(   8) = (   0.5691129   1.9213309   0.8435924  )
         9           H   tau(   9) = (   0.4840353   1.9752074   0.7297223  )
        10           C   tau(  10) = (   0.7737740   1.9988410   0.8769484  )
        11           C   tau(  11) = (   0.8939722   1.9119175   1.0440566  )
        12           H   tau(  12) = (   0.0365226   1.9583835   1.0688681  )
        13           C   tau(  13) = (   0.3878954   1.0396777   0.8940371  )
        14           H   tau(  14) = (   0.4777087   0.9833977   0.7850964  )
        15           C   tau(  15) = (   0.4576709   1.2081171   1.0215454  )
        16           H   tau(  16) = (   0.5969732   1.2643971   0.9988700  )
        17           C   tau(  17) = (   0.4898428   1.7643077   0.9776734  )
        18           H   tau(  18) = (   0.3510215   1.7084283   0.9515473  )
        19           C   tau(  19) = (   0.8025222   1.7578986   1.1727151  )
        20           H   tau(  20) = (   0.8848144   1.6990149   1.2859280  )
        21           C   tau(  21) = (   0.1377615   1.2107208   1.2070569  )
        22           H   tau(  22) = (   0.0501555   1.2710065   1.3156690  )
        23           C   tau(  23) = (   0.0584822   1.0420812   1.0887502  )
        24           H   tau(  24) = (   0.9198816   0.9864020   1.1158622  )
        25           C   tau(  25) = (   0.1873493   0.9553579   0.9277216  )
        26           C   tau(  26) = (   0.8614386   0.1788542   0.7476326  )
        27           C   tau(  27) = (   0.1044740   0.7734994   0.7911760  )
        28           Ni1 tau(  28) = (   0.9824452   0.4927804   0.5577339  )
        29           O   tau(  29) = (   0.7087996   1.3026115   1.4671673  )
        30           O   tau(  30) = (   0.2232258   1.7363079   1.4298678  )
        31           O   tau(  31) = (   0.4005995   1.2973840   1.6387120  )
        32           O   tau(  32) = (   0.5310404   1.7629057   1.6007553  )
        33           N   tau(  33) = (   0.1207586   0.3146472   0.3223857  )
        34           N   tau(  34) = (   0.8532706   0.7088075   0.3534412  )
        35           C   tau(  35) = (   0.0873123   0.0815159   0.0220182  )
        36           H   tau(  36) = (  -0.0341640   0.0276393   1.5512965  )
        37           C   tau(  37) = (   0.2919734   0.0040057   0.0553741  )
        38           C   tau(  38) = (   0.4121716   0.0909292   0.2224823  )
        39           H   tau(  39) = (   0.5547220   0.0444632   0.2472939  )
        40           C   tau(  40) = (   0.9060948   0.9631690   0.0724628  )
        41           H   tau(  41) = (   0.9595093   1.0194490   1.6066706  )
        42           C   tau(  42) = (   0.9758703   0.7947296   0.1999712  )
        43           H   tau(  43) = (   0.1151726   0.7384496   0.1772957  )
        44           C   tau(  44) = (   0.0080421   0.2385390   0.1560991  )
        45           H   tau(  45) = (   0.8692209   0.2944185   0.1299730  )
        46           C   tau(  46) = (   0.3207216   0.2449482   0.3511408  )
        47           H   tau(  47) = (   0.4030137   0.3038318   0.4643538  )
        48           C   tau(  48) = (   0.6559609   0.7921259   0.3854826  )
        49           H   tau(  49) = (   0.5683549   0.7318402   0.4940948  )
        50           C   tau(  50) = (   0.5766816   0.9607656   0.2671759  )
        51           H   tau(  51) = (   0.4380810   1.0164447   0.2942879  )
        52           C   tau(  52) = (   0.7055486   1.0474888   0.1061474  )
        53           C   tau(  53) = (   0.3432392   1.8239925   1.5692068  )
        54           C   tau(  54) = (   0.5862746   1.2293473   1.6127503  )

     number of k points=     1  Marzari-Vanderbilt smearing, width (Ry)=  0.2000
                       cart. coord. in units 2pi/alat
        k(    1) = (   0.0000000   0.0000000   0.0000000), wk =   1.0000000

     Dense  grid:   366763 G-vectors     FFT dimensions: (  75, 160, 125)

     Estimated max dynamical RAM per process >     178.14 MB

     Estimated total dynamical RAM >       2.78 GB
     Generating pointlists ...
     new r_m :   0.1337 (alat units)  1.5801 (a.u.) for type    1
     new r_m :   0.1337 (alat units)  1.5801 (a.u.) for type    2
     new r_m :   0.0823 (alat units)  0.9721 (a.u.) for type    3
     new r_m :   0.0882 (alat units)  1.0416 (a.u.) for type    4
     new r_m :   0.0626 (alat units)  0.7399 (a.u.) for type    5
     new r_m :   0.0626 (alat units)  0.7399 (a.u.) for type    6

     Check: negative core charge=   -0.000145

     Initial potential from superposition of free atoms

     starting charge  199.99835, renormalised to  200.00000
     Starting wfcs are  178 randomized atomic wfcs

     total cpu time spent up to now is       19.0 secs

     Self-consistent Calculation

     iteration #  1     ecut=   100.00 Ry     beta= 0.70
     Davidson diagonalization with overlap
     ethr =  1.00E-02,  avg # of iterations =  4.0

     total cpu time spent up to now is       45.4 secs

     total energy              =    -808.50799022 Ry
     Harris-Foulkes estimate   =    -813.53961135 Ry
     estimated scf accuracy    <      13.16605648 Ry

     total magnetization       =     4.00 Bohr mag/cell
     absolute magnetization    =     4.57 Bohr mag/cell

     iteration #  2     ecut=   100.00 Ry     beta= 0.70
     Davidson diagonalization with overlap
     ethr =  6.58E-03,  avg # of iterations =  2.0

     total cpu time spent up to now is       62.6 secs

     total energy              =    -810.77777030 Ry
     Harris-Foulkes estimate   =    -813.09947223 Ry
     estimated scf accuracy    <      10.77477718 Ry

     total magnetization       =     4.00 Bohr mag/cell
     absolute magnetization    =     4.10 Bohr mag/cell

     iteration #  3     ecut=   100.00 Ry     beta= 0.70
     Davidson diagonalization with overlap
     ethr =  5.39E-03,  avg # of iterations =  1.0

     total cpu time spent up to now is       79.1 secs

     total energy              =    -810.33214310 Ry
     Harris-Foulkes estimate   =    -811.13825678 Ry
     estimated scf accuracy    <       2.70608438 Ry

     total magnetization       =     4.00 Bohr mag/cell
     absolute magnetization    =     4.09 Bohr mag/cell

     iteration #  4     ecut=   100.00 Ry     beta= 0.70
     Davidson diagonalization with overlap
     ethr =  1.35E-03,  avg # of iterations =  5.5

     total cpu time spent up to now is       97.4 secs

     total energy              =    -810.36389100 Ry
     Harris-Foulkes estimate   =    -811.20877182 Ry
     estimated scf accuracy    <       7.21993097 Ry

     total magnetization       =     4.00 Bohr mag/cell
     absolute magnetization    =     4.12 Bohr mag/cell

     iteration #  5     ecut=   100.00 Ry     beta= 0.70
     Davidson diagonalization with overlap
     ethr =  1.35E-03,  avg # of iterations =  3.0

     total cpu time spent up to now is      114.1 secs

     total energy              =    -810.68134301 Ry
     Harris-Foulkes estimate   =    -810.72597278 Ry
     estimated scf accuracy    <       0.13252234 Ry

     total magnetization       =     4.00 Bohr mag/cell
     absolute magnetization    =     4.13 Bohr mag/cell

     iteration #  6     ecut=   100.00 Ry     beta= 0.70
     Davidson diagonalization with overlap
     ethr =  6.63E-05,  avg # of iterations =  7.0

     total cpu time spent up to now is      136.0 secs

     total energy              =    -810.68521106 Ry
     Harris-Foulkes estimate   =    -810.73098639 Ry
     estimated scf accuracy    <       0.73980175 Ry

     total magnetization       =     4.00 Bohr mag/cell
     absolute magnetization    =     4.12 Bohr mag/cell

     iteration #  7     ecut=   100.00 Ry     beta= 0.70
     Davidson diagonalization with overlap
     ethr =  6.63E-05,  avg # of iterations =  1.5

     total cpu time spent up to now is      152.4 secs

     total energy              =    -810.65252566 Ry
     Harris-Foulkes estimate   =    -810.70159529 Ry
     estimated scf accuracy    <       0.36659855 Ry

     total magnetization       =     4.00 Bohr mag/cell
     absolute magnetization    =     4.13 Bohr mag/cell

     iteration #  8     ecut=   100.00 Ry     beta= 0.70
     Davidson diagonalization with overlap
     ethr =  6.63E-05,  avg # of iterations =  2.0

     total cpu time spent up to now is      169.1 secs

     total energy              =    -810.67567725 Ry
     Harris-Foulkes estimate   =    -810.68494970 Ry
     estimated scf accuracy    <       0.09301837 Ry

     total magnetization       =     4.00 Bohr mag/cell
     absolute magnetization    =     4.13 Bohr mag/cell

     iteration #  9     ecut=   100.00 Ry     beta= 0.70
     Davidson diagonalization with overlap
     ethr =  4.65E-05,  avg # of iterations =  1.5

     total cpu time spent up to now is      185.6 secs

     total energy              =    -810.68325083 Ry
     Harris-Foulkes estimate   =    -810.68168657 Ry
     estimated scf accuracy    <       0.01068076 Ry

     total magnetization       =     4.00 Bohr mag/cell
     absolute magnetization    =     4.12 Bohr mag/cell

     iteration # 10     ecut=   100.00 Ry     beta= 0.70
     Davidson diagonalization with overlap
     ethr =  5.34E-06,  avg # of iterations =  4.0

     total cpu time spent up to now is      204.3 secs

     total energy              =    -810.68258419 Ry
     Harris-Foulkes estimate   =    -810.68511106 Ry
     estimated scf accuracy    <       0.03807227 Ry

     total magnetization       =     4.00 Bohr mag/cell
     absolute magnetization    =     4.10 Bohr mag/cell

     iteration # 11     ecut=   100.00 Ry     beta= 0.70
     Davidson diagonalization with overlap
     ethr =  5.34E-06,  avg # of iterations =  2.5

     total cpu time spent up to now is      221.1 secs

     total energy              =    -810.68490890 Ry
     Harris-Foulkes estimate   =    -810.68442452 Ry
     estimated scf accuracy    <       0.00145701 Ry

     total magnetization       =     4.00 Bohr mag/cell
     absolute magnetization    =     4.10 Bohr mag/cell

     iteration # 12     ecut=   100.00 Ry     beta= 0.70
     Davidson diagonalization with overlap
     ethr =  7.29E-07,  avg # of iterations =  3.5

     total cpu time spent up to now is      239.2 secs

     total energy              =    -810.68539129 Ry
     Harris-Foulkes estimate   =    -810.68499767 Ry
     estimated scf accuracy    <       0.00036204 Ry

     total magnetization       =     4.00 Bohr mag/cell
     absolute magnetization    =     4.10 Bohr mag/cell

     iteration # 13     ecut=   100.00 Ry     beta= 0.70
     Davidson diagonalization with overlap
     ethr =  1.81E-07,  avg # of iterations =  3.5

     total cpu time spent up to now is      256.9 secs

     total energy              =    -810.68548491 Ry
     Harris-Foulkes estimate   =    -810.68542168 Ry
     estimated scf accuracy    <       0.00009120 Ry

     total magnetization       =     4.00 Bohr mag/cell
     absolute magnetization    =     4.10 Bohr mag/cell

     iteration # 14     ecut=   100.00 Ry     beta= 0.70
     Davidson diagonalization with overlap
     ethr =  4.56E-08,  avg # of iterations =  3.0

     total cpu time spent up to now is      274.3 secs

     total energy              =    -810.68550601 Ry
     Harris-Foulkes estimate   =    -810.68549247 Ry
     estimated scf accuracy    <       0.00002878 Ry

     total magnetization       =     4.00 Bohr mag/cell
     absolute magnetization    =     4.10 Bohr mag/cell

     iteration # 15     ecut=   100.00 Ry     beta= 0.70
     Davidson diagonalization with overlap
     ethr =  1.44E-08,  avg # of iterations =  2.5

     total cpu time spent up to now is      291.2 secs

     total energy              =    -810.68551227 Ry
     Harris-Foulkes estimate   =    -810.68550796 Ry
     estimated scf accuracy    <       0.00000958 Ry

     total magnetization       =     4.00 Bohr mag/cell
     absolute magnetization    =     4.10 Bohr mag/cell

     iteration # 16     ecut=   100.00 Ry     beta= 0.70
     Davidson diagonalization with overlap
     ethr =  4.79E-09,  avg # of iterations =  3.0

     total cpu time spent up to now is      308.7 secs

     total energy              =    -810.68551373 Ry
     Harris-Foulkes estimate   =    -810.68551348 Ry
     estimated scf accuracy    <       0.00000577 Ry

     total magnetization       =     4.00 Bohr mag/cell
     absolute magnetization    =     4.10 Bohr mag/cell

     iteration # 17     ecut=   100.00 Ry     beta= 0.70
     Davidson diagonalization with overlap
     ethr =  2.88E-09,  avg # of iterations =  2.0

     total cpu time spent up to now is      325.3 secs

     total energy              =    -810.68551470 Ry
     Harris-Foulkes estimate   =    -810.68551413 Ry
     estimated scf accuracy    <       0.00000321 Ry

     total magnetization       =     4.00 Bohr mag/cell
     absolute magnetization    =     4.10 Bohr mag/cell

     iteration # 18     ecut=   100.00 Ry     beta= 0.70
     Davidson diagonalization with overlap
     ethr =  1.60E-09,  avg # of iterations =  2.5
 
     Magnetic moment per site:
     atom:    1    charge:    7.5197    magn:    1.2591    constr:    0.0000
     atom:    2    charge:    3.1214    magn:    0.0530    constr:    0.0000
     atom:    3    charge:    3.1196    magn:    0.0537    constr:    0.0000
     atom:    4    charge:    3.1293    magn:    0.0507    constr:    0.0000
     atom:    5    charge:    3.1279    magn:    0.0529    constr:    0.0000
     atom:    6    charge:    2.4097    magn:    0.0143    constr:    0.0000
     atom:    7    charge:    2.4038    magn:    0.0134    constr:    0.0000
     atom:    8    charge:    0.5999    magn:    0.0036    constr:    0.0000
     atom:    9    charge:    0.4555    magn:   -0.0007    constr:    0.0000
     atom:   10    charge:    0.5735    magn:    0.0039    constr:    0.0000
     atom:   11    charge:    0.5988    magn:    0.0038    constr:    0.0000
     atom:   12    charge:    0.4555    magn:   -0.0008    constr:    0.0000
     atom:   13    charge:    0.6004    magn:    0.0036    constr:    0.0000
     atom:   14    charge:    0.4562    magn:   -0.0007    constr:    0.0000
     atom:   15    charge:    0.5923    magn:    0.0032    constr:    0.0000
     atom:   16    charge:    0.4597    magn:   -0.0005    constr:    0.0000
     atom:   17    charge:    0.5935    magn:    0.0033    constr:    0.0000
     atom:   18    charge:    0.4599    magn:   -0.0006    constr:    0.0000
     atom:   19    charge:    0.5950    magn:    0.0032    constr:    0.0000
     atom:   20    charge:    0.4586    magn:   -0.0003    constr:    0.0000
     atom:   21    charge:    0.5915    magn:    0.0033    constr:    0.0000
     atom:   22    charge:    0.4577    magn:   -0.0004    constr:    0.0000
     atom:   23    charge:    0.5979    magn:    0.0036    constr:    0.0000
     atom:   24    charge:    0.4561    magn:   -0.0008    constr:    0.0000
     atom:   25    charge:    0.5730    magn:    0.0038    constr:    0.0000
     atom:   26    charge:    0.5601    magn:   -0.0013    constr:    0.0000
     atom:   27    charge:    0.5596    magn:   -0.0012    constr:    0.0000
     atom:   28    charge:    7.5199    magn:    1.2595    constr:    0.0000
     atom:   29    charge:    3.1183    magn:    0.0530    constr:    0.0000
     atom:   30    charge:    3.1205    magn:    0.0537    constr:    0.0000
     atom:   31    charge:    3.1285    magn:    0.0507    constr:    0.0000
     atom:   32    charge:    3.1271    magn:    0.0529    constr:    0.0000
     atom:   33    charge:    2.4116    magn:    0.0143    constr:    0.0000
     atom:   34    charge:    2.4029    magn:    0.0134    constr:    0.0000
     atom:   35    charge:    0.5992    magn:    0.0036    constr:    0.0000
     atom:   36    charge:    0.4554    magn:   -0.0007    constr:    0.0000
     atom:   37    charge:    0.5742    magn:    0.0039    constr:    0.0000
     atom:   38    charge:    0.5986    magn:    0.0038    constr:    0.0000
     atom:   39    charge:    0.4561    magn:   -0.0008    constr:    0.0000
     atom:   40    charge:    0.5998    magn:    0.0036    constr:    0.0000
     atom:   41    charge:    0.4559    magn:   -0.0007    constr:    0.0000
     atom:   42    charge:    0.5914    magn:    0.0032    constr:    0.0000
     atom:   43    charge:    0.4596    magn:   -0.0005    constr:    0.0000
     atom:   44    charge:    0.5921    magn:    0.0033    constr:    0.0000
     atom:   45    charge:    0.4598    magn:   -0.0006    constr:    0.0000
     atom:   46    charge:    0.5949    magn:    0.0032    constr:    0.0000
     atom:   47    charge:    0.4586    magn:   -0.0004    constr:    0.0000
     atom:   48    charge:    0.5913    magn:    0.0033    constr:    0.0000
     atom:   49    charge:    0.4570    magn:   -0.0004    constr:    0.0000
     atom:   50    charge:    0.5981    magn:    0.0036    constr:    0.0000
     atom:   51    charge:    0.4566    magn:   -0.0008    constr:    0.0000
     atom:   52    charge:    0.5741    magn:    0.0038    constr:    0.0000
     atom:   53    charge:    0.5597    magn:   -0.0013    constr:    0.0000
     atom:   54    charge:    0.5600    magn:   -0.0012    constr:    0.0000

     total cpu time spent up to now is      340.6 secs

     End of self-consistent calculation

 ------ SPIN UP ------------


          k = 0.0000 0.0000 0.0000 ( 45819 PWs)   bands (ev):

   -22.6624 -22.6600 -22.5619 -22.5599 -19.9632 -19.9631 -19.9422 -19.9411
   -19.4054 -19.3915 -19.2803 -19.2728 -15.5796 -15.5123 -15.5073 -15.4799
   -14.6074 -14.5708 -14.5672 -14.5230 -11.7733 -11.7223 -11.7001 -11.6693
   -11.4717 -11.4410 -11.4107 -11.3508  -9.9227  -9.6610  -9.6375  -9.5632
    -8.2607  -7.9883  -7.9535  -7.9425  -7.6991  -7.6729  -7.6184  -7.5379
    -7.2950  -7.1781  -7.0214  -6.9626  -6.9113  -6.7456  -6.7172  -6.6696
    -6.6453  -6.6005  -6.4454  -6.4195  -6.3919  -6.3556  -6.2636  -6.1167
    -6.1108  -6.0393  -5.9785  -5.9309  -5.7183  -5.5557  -5.3635  -5.1750
    -4.5702  -4.5028  -4.3572  -4.2961  -4.2694  -4.2679  -4.0705  -4.0584
    -3.7553  -3.4913  -3.3577  -3.2640  -3.2475  -3.2077  -3.1875  -3.1477
    -3.0600  -2.7327  -2.6329  -2.6132  -2.5103  -2.4867  -2.4700  -2.4112
    -2.3792  -2.3316  -2.3046  -2.2856  -2.2261  -2.1468  -2.1078  -2.0668
    -2.0168  -1.9172  -0.5975  -0.5759  -0.3396  -0.3183   2.0440   2.0601
     2.0987   2.1390   3.0299   3.1421   3.3182   3.4720   3.4795   4.2663
     4.5055   4.5691   4.7437   4.7770   4.9911   5.3658   5.7329   5.7855
     5.8137   6.1267

 ------ SPIN DOWN ----------


          k = 0.0000 0.0000 0.0000 ( 45819 PWs)   bands (ev):

   -22.5612 -22.5587 -22.4605 -22.4584 -19.8353 -19.8352 -19.8113 -19.8102
   -19.3719 -19.3578 -19.2480 -19.2403 -15.5406 -15.4738 -15.4689 -15.4403
   -14.5733 -14.5365 -14.5330 -14.4888 -11.7278 -11.6804 -11.6590 -11.6294
   -11.4449 -11.4136 -11.3836 -11.3240  -9.8927  -9.6332  -9.6088  -9.5307
    -8.1953  -7.9351  -7.8966  -7.8797  -7.6598  -7.6259  -7.5769  -7.5049
    -7.2671  -7.1433  -6.9833  -6.9246  -6.8031  -6.6502  -6.5966  -6.5469
    -6.5298  -6.5202  -6.3399  -6.2953  -6.2667  -6.2417  -6.1973  -6.0809
    -6.0303  -6.0117  -5.9404  -5.9092  -5.6500  -5.4790  -5.2880  -5.0982
    -4.4315  -4.3071  -4.2770  -4.2389  -4.2314  -3.9082  -3.6079  -3.5901
    -3.2460  -3.1435  -3.0647  -3.0199  -2.7978  -2.7450  -2.6784  -2.6588
    -2.6092  -2.4722  -2.4716  -2.3582  -2.3140  -2.2950  -2.2145  -2.1615
    -2.1478  -2.0097  -1.9810  -1.8288  -1.6055  -1.3711  -1.3585  -1.3311
    -1.3121  -1.2011   0.2524   0.2588   0.4497   0.4685   2.1331   2.1631
     2.2153   2.2287   3.1062   3.2192   3.3971   3.5133   3.5532   4.3123
     4.5520   4.6266   4.8019   4.8488   5.0412   5.4117   5.7759   5.8175
     5.8606   6.2021

     the spin up/dw Fermi energies are     0.0862   -0.2218 ev

!    total energy              =    -810.68551491 Ry
     Harris-Foulkes estimate   =    -810.68551485 Ry
     estimated scf accuracy    <       0.00000065 Ry

     The total energy is the sum of the following terms:

     one-electron contribution =   -1216.55002264 Ry
     hartree contribution      =     678.55005949 Ry
     xc contribution           =    -248.39649362 Ry
     ewald contribution        =     -25.36061178 Ry
     Dispersion Correction     =      -0.20316514 Ry
     smearing contrib. (-TS)   =       1.27471879 Ry

     total magnetization       =     4.00 Bohr mag/cell
     absolute magnetization    =     4.10 Bohr mag/cell

     convergence has been achieved in  18 iterations

     Forces acting on atoms (cartesian axes, Ry/au):

     atom    1 type  1   force =    -0.01097138   -0.00925063   -0.03725193
     atom    2 type  3   force =    -0.01555063   -0.03648991   -0.02530016
     atom    3 type  3   force =     0.01570317    0.03985950   -0.01993434
     atom    4 type  3   force =    -0.04215691   -0.04401138   -0.01636589
     atom    5 type  3   force =     0.03691648    0.04793845   -0.01344707
     atom    6 type  4   force =    -0.01997149   -0.01699950    0.01603452
     atom    7 type  4   force =    -0.00205184    0.00399441    0.01711320
     atom    8 type  5   force =     0.15795127   -0.07203866    0.17027076
     atom    9 type  6   force =    -0.16212105    0.09374702   -0.20270768
     atom   10 type  5   force =     0.01385948    0.01127025    0.01184772
     atom   11 type  5   force =    -0.23428019   -0.04743214   -0.08008124
     atom   12 type  6   force =     0.25817478    0.08086942    0.05540627
     atom   13 type  5   force =    -0.15342144    0.08566039    0.17208758
     atom   14 type  6   force =     0.17042449   -0.09721082   -0.19374125
     atom   15 type  5   force =    -0.22800159   -0.09340524    0.03078230
     atom   16 type  6   force =     0.25365700    0.11237705   -0.03357634
     atom   17 type  5   force =     0.22242420    0.08439754    0.04633423
     atom   18 type  6   force =    -0.25725820   -0.10844046   -0.03620677
     atom   19 type  5   force =    -0.13071137    0.08638835   -0.17412525
     atom   20 type  6   force =     0.14208396   -0.11264533    0.21334183
     atom   21 type  5   force =     0.15567930   -0.07903752   -0.16647330
     atom   22 type  6   force =    -0.15084724    0.11850840    0.20176868
     atom   23 type  5   force =     0.24683611    0.06770355   -0.07957255
     atom   24 type  6   force =    -0.25610792   -0.09667377    0.05735623
     atom   25 type  5   force =    -0.03538749   -0.01945065    0.00212790
     atom   26 type  5   force =    -0.05050941   -0.07831547    0.03157637
     atom   27 type  5   force =     0.05972482    0.08214382    0.03954412
     atom   28 type  2   force =     0.02017497    0.00811862   -0.00675914
     atom   29 type  3   force =    -0.01573616    0.03662275   -0.02629760
     atom   30 type  3   force =     0.01676863   -0.04011635   -0.02084045
     atom   31 type  3   force =    -0.04263734    0.04435435   -0.01727728
     atom   32 type  3   force =     0.03769773   -0.04769691   -0.01498494
     atom   33 type  4   force =    -0.02052260    0.01619763    0.01608416
     atom   34 type  4   force =    -0.00216800   -0.00382132    0.01730461
     atom   35 type  5   force =     0.15787745    0.07212431    0.17026350
     atom   36 type  6   force =    -0.16211344   -0.09371690   -0.20269768
     atom   37 type  5   force =     0.01385942   -0.01115986    0.01193914
     atom   38 type  5   force =    -0.23407154    0.04754519   -0.08009310
     atom   39 type  6   force =     0.25817646   -0.08083369    0.05541424
     atom   40 type  5   force =    -0.15332439   -0.08567395    0.17196428
     atom   41 type  6   force =     0.17043835    0.09724239   -0.19376996
     atom   42 type  5   force =    -0.22798117    0.09358350    0.03075675
     atom   43 type  6   force =     0.25369337   -0.11233541   -0.03359144
     atom   44 type  5   force =     0.22237768   -0.08447148    0.04640061
     atom   45 type  6   force =    -0.25722910    0.10843916   -0.03619659
     atom   46 type  5   force =    -0.13061650   -0.08623613   -0.17398813
     atom   47 type  6   force =     0.14193455    0.11246975    0.21314411
     atom   48 type  5   force =     0.15554391    0.07928512   -0.16628381
     atom   49 type  6   force =    -0.15075974   -0.11816188    0.20162623
     atom   50 type  5   force =     0.24671093   -0.06763247   -0.07956737
     atom   51 type  6   force =    -0.25611068    0.09672196    0.05736722
     atom   52 type  5   force =    -0.03530889    0.01938021    0.00217038
     atom   53 type  5   force =    -0.05035562    0.07841465    0.03162896
     atom   54 type  5   force =     0.05959481   -0.08209991    0.03947534

     Total force =     1.514234     Total SCF correction =     0.001440


     Computing stress (Cartesian axis) and pressure

          total   stress  (Ry/bohr**3)                   (kbar)     P=       93.75
   0.00109880  -0.00000021  -0.00000125          161.64       -0.03       -0.18
  -0.00000021   0.00027985   0.00000010           -0.03       41.17        0.02
  -0.00000125   0.00000010   0.00053316           -0.18        0.02       78.43


     BFGS Geometry Optimization

     number of scf cycles    =   1
     number of bfgs steps    =   0

     enthalpy new            =    -810.6855149061 Ry

     new trust radius        =       0.4049100558 bohr
     new conv_thr            =       0.0000010000 Ry

     new unit-cell volume =   5692.39248 a.u.^3 (   843.52553 Ang^3 )
     density =      1.19255 g/cm^3

CELL_PARAMETERS (angstrom)
   6.424560860   0.000000000   0.000000000
   0.000000000  12.611018192   0.000000000
  -0.227594000   0.000000000  10.411292059

ATOMIC_POSITIONS (crystal)
Ni2           0.4938016508        0.7535691137        0.8375113374
O             0.2399365129        0.3480781162        0.3915969143
O             0.7561915946        0.1347642661        0.3691732811
O             0.9333015606        0.3503702960        0.4964570740
O             0.0695990484        0.1218256428        0.4735074083
N             0.6262398643        0.8421816848        0.6970258587
N             0.3609584346        0.6462687841        0.7159814163
C             0.6014866953        0.9562560010        0.5221698031
H             0.4860996045        0.9901612872        0.4336595316
C             0.7943951447        0.9984762254        0.5343102176
C             0.8971226353        0.9525957515        0.6312754122
H             0.0821533160        0.9812171434        0.6533537027
C             0.3950384916        0.5227195860        0.5529633789
H             0.5091598889        0.4868923495        0.4678213479
C             0.4610618338        0.5992531546        0.6232854439
H             0.6405041569        0.6360485008        0.6061706489
C             0.5304107213        0.8844662242        0.5973864464
H             0.3502602485        0.8484178402        0.5772351686
C             0.8171114034        0.8813503462        0.7047316711
H             0.9257245835        0.8435401630        0.7935881808
C             0.1773631166        0.6011602636        0.7260257851
H             0.0669119912        0.6396075812        0.8110921050
C             0.1033406719        0.5231608188        0.6585016124
H             0.9230330014        0.4884150426        0.6820541352
C             0.2049091303        0.4761781114        0.5647095974
C             0.8737845632        0.0859907739        0.4566263422
C             0.1271286717        0.3896709932        0.4835367216
Ni1           0.9964947450        0.2463830527        0.3390818703
O             0.7399189412        0.6519274972        0.8915455412
O             0.2562800662        0.8652248808        0.8691266117
O             0.4332591936        0.6496441966        0.9964101327
O             0.5696622832        0.8781845635        0.9734281997
N             0.1261933166        0.1577844321        0.1970284152
N             0.8609489624        0.3537385298        0.2159912749
C             0.1014804340        0.0437476180        0.0221694295
H            -0.0138997328        0.0098399855        0.9336600469
C             0.2943953114        0.0015284393        0.0343149260
C             0.3971402709        0.0474090254        0.1312748010
H             0.5821534729        0.0187843663        0.1533541129
C             0.8950464744        0.4772798409        0.0529570282
H             1.0091610084        0.5131089845        0.9678198696
C             0.9610635134        0.4007543779        0.1232841277
H             0.1405072070        0.3639532589        0.1061698714
C             0.0304069089        0.1155306511        0.0973898657
H             0.8502627301        0.1515821048        0.0772356931
C             0.3171196899        0.1186560860        0.2047387333
H             0.4257115682        0.1564524178        0.2935779972
C             0.6773520145        0.3988501988        0.2260355449
H             0.5669191295        0.3604070608        0.3110847681
C             0.6033300879        0.4768421851        0.1585018791
H             0.4230327878        0.5115869938        0.1820547014
C             0.7049158622        0.5238189121        0.0647117855
C             0.3737976770        0.9140134168        0.9566290510
C             0.6271175400        0.6103308620        0.9835331794



     Writing output data file ./NiPyC2_P1_vc-relax.save/
     NEW-OLD atomic charge density approx. for the potential
     NEW k-points:
   0.0000000   0.0000000   0.0000000   1.0000000
   0.0000000   0.0000000   0.0000000   1.0000000

     Check: negative core charge=   -0.000171
     extrapolated charge  209.24318, renormalised to  200.00000

     total cpu time spent up to now is      371.7 secs

     Self-consistent Calculation

     iteration #  1     ecut=   100.00 Ry     beta= 0.70
     Davidson diagonalization with overlap
     ethr =  1.00E-06,  avg # of iterations = 19.0

     total cpu time spent up to now is      465.5 secs

     total energy              =    -778.03219714 Ry
     Harris-Foulkes estimate   =    -764.18715340 Ry
     estimated scf accuracy    <      83.51409261 Ry

     total magnetization       =     4.00 Bohr mag/cell
     absolute magnetization    =     4.09 Bohr mag/cell

     iteration #  2     ecut=   100.00 Ry     beta= 0.70
     Davidson diagonalization with overlap
     ethr =  1.00E-02,  avg # of iterations =  5.5

     total cpu time spent up to now is      507.2 secs

     total energy              =    -814.58811567 Ry
     Harris-Foulkes estimate   =    -822.75645191 Ry
     estimated scf accuracy    <      35.45249095 Ry

     total magnetization       =     4.00 Bohr mag/cell
     absolute magnetization    =     4.11 Bohr mag/cell

     iteration #  3     ecut=   100.00 Ry     beta= 0.70
     Davidson diagonalization with overlap
     ethr =  1.00E-02,  avg # of iterations =  2.0

     total cpu time spent up to now is      524.2 secs

     total energy              =    -812.60567439 Ry
     Harris-Foulkes estimate   =    -815.39926081 Ry
     estimated scf accuracy    <      16.27712771 Ry

     total magnetization       =     4.00 Bohr mag/cell
     absolute magnetization    =     4.10 Bohr mag/cell

     iteration #  4     ecut=   100.00 Ry     beta= 0.70
     Davidson diagonalization with overlap
     ethr =  8.14E-03,  avg # of iterations =  1.0

     total cpu time spent up to now is      540.8 secs

     total energy              =    -809.16940565 Ry
     Harris-Foulkes estimate   =    -812.80702766 Ry
     estimated scf accuracy    <      10.80068963 Ry

     total magnetization       =     4.00 Bohr mag/cell
     absolute magnetization    =     4.13 Bohr mag/cell

     iteration #  5     ecut=   100.00 Ry     beta= 0.70
     Davidson diagonalization with overlap
     ethr =  5.40E-03,  avg # of iterations =  4.5

     total cpu time spent up to now is      559.0 secs

     total energy              =    -809.27910985 Ry
     Harris-Foulkes estimate   =    -811.01075197 Ry
     estimated scf accuracy    <      10.36510487 Ry

     total magnetization       =     4.00 Bohr mag/cell
     absolute magnetization    =     4.16 Bohr mag/cell

     iteration #  6     ecut=   100.00 Ry     beta= 0.70
     Davidson diagonalization with overlap
     ethr =  5.18E-03,  avg # of iterations =  1.0

     total cpu time spent up to now is      575.3 secs

     total energy              =    -810.48542452 Ry
     Harris-Foulkes estimate   =    -810.71599845 Ry
     estimated scf accuracy    <       4.24301416 Ry

     total magnetization       =     4.00 Bohr mag/cell
     absolute magnetization    =     4.14 Bohr mag/cell

     iteration #  7     ecut=   100.00 Ry     beta= 0.70
     Davidson diagonalization with overlap
     ethr =  2.12E-03,  avg # of iterations =  1.0

     total cpu time spent up to now is      591.6 secs

     total energy              =    -810.25672711 Ry
     Harris-Foulkes estimate   =    -810.52366249 Ry
     estimated scf accuracy    <       1.91051438 Ry

     total magnetization       =     4.00 Bohr mag/cell
     absolute magnetization    =     4.14 Bohr mag/cell

     iteration #  8     ecut=   100.00 Ry     beta= 0.70
     Davidson diagonalization with overlap
     ethr =  9.55E-04,  avg # of iterations =  3.0

     total cpu time spent up to now is      608.3 secs

     total energy              =    -810.40992687 Ry
     Harris-Foulkes estimate   =    -810.43385505 Ry
     estimated scf accuracy    <       0.51771571 Ry

     total magnetization       =     4.00 Bohr mag/cell
     absolute magnetization    =     4.14 Bohr mag/cell

     iteration #  9     ecut=   100.00 Ry     beta= 0.70
     Davidson diagonalization with overlap
     ethr =  2.59E-04,  avg # of iterations =  1.0

     total cpu time spent up to now is      624.3 secs

     total energy              =    -810.41284754 Ry
     Harris-Foulkes estimate   =    -810.41459796 Ry
     estimated scf accuracy    <       0.23607375 Ry

     total magnetization       =     4.00 Bohr mag/cell
     absolute magnetization    =     4.15 Bohr mag/cell

     iteration # 10     ecut=   100.00 Ry     beta= 0.70
     Davidson diagonalization with overlap
     ethr =  1.18E-04,  avg # of iterations =  1.0

     total cpu time spent up to now is      635.4 secs

     total energy              =    -810.42050351 Ry
     Harris-Foulkes estimate   =    -810.41408753 Ry
     estimated scf accuracy    <       0.26727727 Ry

     total magnetization       =     4.00 Bohr mag/cell
     absolute magnetization    =     4.15 Bohr mag/cell

     iteration # 11     ecut=   100.00 Ry     beta= 0.70
     Davidson diagonalization with overlap
     ethr =  1.18E-04,  avg # of iterations =  2.0

     total cpu time spent up to now is      650.6 secs

     total energy              =    -810.18082013 Ry
     Harris-Foulkes estimate   =    -810.45490013 Ry
     estimated scf accuracy    <       1.25688458 Ry

     total magnetization       =     4.00 Bohr mag/cell
     absolute magnetization    =     4.15 Bohr mag/cell

     iteration # 12     ecut=   100.00 Ry     beta= 0.70
     Davidson diagonalization with overlap
     ethr =  1.18E-04,  avg # of iterations =  2.0

     total cpu time spent up to now is      668.8 secs

     total energy              =    -810.36557499 Ry
     Harris-Foulkes estimate   =    -810.50448206 Ry
     estimated scf accuracy    <       1.78131966 Ry

     total magnetization       =     4.00 Bohr mag/cell
     absolute magnetization    =     4.10 Bohr mag/cell

     iteration # 13     ecut=   100.00 Ry     beta= 0.70
     Davidson diagonalization with overlap
     ethr =  1.18E-04,  avg # of iterations =  2.0

     total cpu time spent up to now is      684.9 secs

     total energy              =    -810.38346478 Ry
     Harris-Foulkes estimate   =    -810.40702439 Ry
     estimated scf accuracy    <       0.20887533 Ry

     total magnetization       =     4.00 Bohr mag/cell
     absolute magnetization    =     4.10 Bohr mag/cell

     iteration # 14     ecut=   100.00 Ry     beta= 0.70
     Davidson diagonalization with overlap
     ethr =  1.04E-04,  avg # of iterations =  1.0

     total cpu time spent up to now is      700.9 secs

     total energy              =    -810.39606116 Ry
     Harris-Foulkes estimate   =    -810.39757421 Ry
     estimated scf accuracy    <       0.00829135 Ry

     total magnetization       =     4.00 Bohr mag/cell
     absolute magnetization    =     4.08 Bohr mag/cell

     iteration # 15     ecut=   100.00 Ry     beta= 0.70
     Davidson diagonalization with overlap
     ethr =  4.15E-06,  avg # of iterations =  5.5

     total cpu time spent up to now is      719.1 secs

     total energy              =    -810.39724959 Ry
     Harris-Foulkes estimate   =    -810.39740617 Ry
     estimated scf accuracy    <       0.00377495 Ry

     total magnetization       =     4.00 Bohr mag/cell
     absolute magnetization    =     4.08 Bohr mag/cell

     iteration # 16     ecut=   100.00 Ry     beta= 0.70
     Davidson diagonalization with overlap
     ethr =  1.89E-06,  avg # of iterations =  2.5

     total cpu time spent up to now is      735.9 secs

     total energy              =    -810.39733724 Ry
     Harris-Foulkes estimate   =    -810.39735116 Ry
     estimated scf accuracy    <       0.00060210 Ry

     total magnetization       =     4.00 Bohr mag/cell
     absolute magnetization    =     4.07 Bohr mag/cell

     iteration # 17     ecut=   100.00 Ry     beta= 0.70
     Davidson diagonalization with overlap
     ethr =  3.01E-07,  avg # of iterations =  2.5

     total cpu time spent up to now is      752.4 secs

     total energy              =    -810.39737324 Ry
     Harris-Foulkes estimate   =    -810.39736196 Ry
     estimated scf accuracy    <       0.00006777 Ry

     total magnetization       =     4.00 Bohr mag/cell
     absolute magnetization    =     4.07 Bohr mag/cell

     iteration # 18     ecut=   100.00 Ry     beta= 0.70
     Davidson diagonalization with overlap
     ethr =  3.39E-08,  avg # of iterations =  2.5

     total cpu time spent up to now is      769.3 secs

     total energy              =    -810.39737968 Ry
     Harris-Foulkes estimate   =    -810.39737740 Ry
     estimated scf accuracy    <       0.00005036 Ry

     total magnetization       =     4.00 Bohr mag/cell
     absolute magnetization    =     4.07 Bohr mag/cell

     iteration # 19     ecut=   100.00 Ry     beta= 0.70
     Davidson diagonalization with overlap
     ethr =  2.52E-08,  avg # of iterations =  1.5

     total cpu time spent up to now is      786.0 secs

     total energy              =    -810.39738352 Ry
     Harris-Foulkes estimate   =    -810.39738230 Ry
     estimated scf accuracy    <       0.00001115 Ry

     total magnetization       =     4.00 Bohr mag/cell
     absolute magnetization    =     4.07 Bohr mag/cell

     iteration # 20     ecut=   100.00 Ry     beta= 0.70
     Davidson diagonalization with overlap
     ethr =  5.57E-09,  avg # of iterations =  2.0

     total cpu time spent up to now is      802.6 secs

     total energy              =    -810.39738425 Ry
     Harris-Foulkes estimate   =    -810.39738500 Ry
     estimated scf accuracy    <       0.00002969 Ry

     total magnetization       =     4.00 Bohr mag/cell
     absolute magnetization    =     4.07 Bohr mag/cell

     iteration # 21     ecut=   100.00 Ry     beta= 0.70
     Davidson diagonalization with overlap
     ethr =  5.57E-09,  avg # of iterations =  2.0

     total cpu time spent up to now is      819.3 secs

     total energy              =    -810.39738668 Ry
     Harris-Foulkes estimate   =    -810.39738634 Ry
     estimated scf accuracy    <       0.00000130 Ry

     total magnetization       =     4.00 Bohr mag/cell
     absolute magnetization    =     4.07 Bohr mag/cell

     iteration # 22     ecut=   100.00 Ry     beta= 0.70
     Davidson diagonalization with overlap
     ethr =  6.50E-10,  avg # of iterations =  3.5
 
     Magnetic moment per site:
     atom:    1    charge:    7.5635    magn:    1.2453    constr:    0.0000
     atom:    2    charge:    3.1682    magn:    0.0482    constr:    0.0000
     atom:    3    charge:    3.1645    magn:    0.0508    constr:    0.0000
     atom:    4    charge:    3.1503    magn:    0.0594    constr:    0.0000
     atom:    5    charge:    3.1527    magn:    0.0598    constr:    0.0000
     atom:    6    charge:    2.5181    magn:    0.0147    constr:    0.0000
     atom:    7    charge:    2.5180    magn:    0.0143    constr:    0.0000
     atom:    8    charge:    0.5848    magn:    0.0039    constr:    0.0000
     atom:    9    charge:    0.3556    magn:    0.0013    constr:    0.0000
     atom:   10    charge:    0.6234    magn:    0.0036    constr:    0.0000
     atom:   11    charge:    0.5843    magn:    0.0036    constr:    0.0000
     atom:   12    charge:    0.3500    magn:    0.0016    constr:    0.0000
     atom:   13    charge:    0.5840    magn:    0.0039    constr:    0.0000
     atom:   14    charge:    0.3548    magn:    0.0014    constr:    0.0000
     atom:   15    charge:    0.5784    magn:    0.0029    constr:    0.0000
     atom:   16    charge:    0.3567    magn:    0.0017    constr:    0.0000
     atom:   17    charge:    0.5793    magn:    0.0030    constr:    0.0000
     atom:   18    charge:    0.3587    magn:    0.0016    constr:    0.0000
     atom:   19    charge:    0.5803    magn:    0.0038    constr:    0.0000
     atom:   20    charge:    0.3592    magn:    0.0020    constr:    0.0000
     atom:   21    charge:    0.5803    magn:    0.0036    constr:    0.0000
     atom:   22    charge:    0.3573    magn:    0.0019    constr:    0.0000
     atom:   23    charge:    0.5790    magn:    0.0034    constr:    0.0000
     atom:   24    charge:    0.3468    magn:    0.0016    constr:    0.0000
     atom:   25    charge:    0.6225    magn:    0.0036    constr:    0.0000
     atom:   26    charge:    0.5623    magn:   -0.0019    constr:    0.0000
     atom:   27    charge:    0.5612    magn:   -0.0017    constr:    0.0000
     atom:   28    charge:    7.5646    magn:    1.2466    constr:    0.0000
     atom:   29    charge:    3.1639    magn:    0.0495    constr:    0.0000
     atom:   30    charge:    3.1657    magn:    0.0505    constr:    0.0000
     atom:   31    charge:    3.1493    magn:    0.0604    constr:    0.0000
     atom:   32    charge:    3.1511    magn:    0.0609    constr:    0.0000
     atom:   33    charge:    2.5197    magn:    0.0147    constr:    0.0000
     atom:   34    charge:    2.5155    magn:    0.0146    constr:    0.0000
     atom:   35    charge:    0.5839    magn:    0.0039    constr:    0.0000
     atom:   36    charge:    0.3554    magn:    0.0013    constr:    0.0000
     atom:   37    charge:    0.6241    magn:    0.0036    constr:    0.0000
     atom:   38    charge:    0.5840    magn:    0.0036    constr:    0.0000
     atom:   39    charge:    0.3504    magn:    0.0016    constr:    0.0000
     atom:   40    charge:    0.5834    magn:    0.0039    constr:    0.0000
     atom:   41    charge:    0.3546    magn:    0.0014    constr:    0.0000
     atom:   42    charge:    0.5774    magn:    0.0029    constr:    0.0000
     atom:   43    charge:    0.3566    magn:    0.0017    constr:    0.0000
     atom:   44    charge:    0.5778    magn:    0.0030    constr:    0.0000
     atom:   45    charge:    0.3586    magn:    0.0016    constr:    0.0000
     atom:   46    charge:    0.5803    magn:    0.0038    constr:    0.0000
     atom:   47    charge:    0.3594    magn:    0.0020    constr:    0.0000
     atom:   48    charge:    0.5799    magn:    0.0035    constr:    0.0000
     atom:   49    charge:    0.3567    magn:    0.0020    constr:    0.0000
     atom:   50    charge:    0.5789    magn:    0.0035    constr:    0.0000
     atom:   51    charge:    0.3471    magn:    0.0016    constr:    0.0000
     atom:   52    charge:    0.6237    magn:    0.0037    constr:    0.0000
     atom:   53    charge:    0.5618    magn:   -0.0019    constr:    0.0000
     atom:   54    charge:    0.5614    magn:   -0.0019    constr:    0.0000

     total cpu time spent up to now is      838.1 secs

     End of self-consistent calculation

 ------ SPIN UP ------------


          k = 0.0000 0.0000 0.0000 ( 45819 PWs)   bands (ev):

   -22.1572 -22.1418 -22.0602 -22.0468 -20.4703 -20.4471 -20.3911 -20.3788
   -19.5958 -19.5888 -19.5794 -19.5639 -16.5947 -16.5373 -16.5340 -16.5105
   -14.5708 -14.5427 -14.5108 -14.4859 -12.6252 -12.5208 -12.4736 -12.4557
   -11.0094 -10.9876 -10.9579 -10.8976  -9.7557  -9.6359  -9.6133  -9.5144
    -8.6085  -8.3391  -8.2977  -8.2649  -8.2079  -8.1715  -7.9425  -7.8444
    -7.2522  -7.1931  -7.1260  -6.9840  -6.9324  -6.7412  -6.6926  -6.5224
    -6.4829  -6.4492  -6.4313  -6.3396  -6.2908  -6.0102  -5.7709  -5.5372
    -5.2867  -5.1319  -5.1254  -5.1215  -4.9955  -4.9192  -4.8592  -4.8055
    -4.7661  -4.6849  -4.5462  -4.4659  -4.0604  -4.0506  -4.0383  -3.8966
    -3.7738  -3.6485  -3.6325  -3.5865  -3.5522  -3.2614  -3.2180  -3.1121
    -3.0643  -3.0081  -2.9868  -2.9379  -2.8851  -2.8827  -2.8521  -2.7956
    -2.7020  -2.6594  -2.6016  -2.5638  -2.5437  -2.5287  -2.5097  -2.4589
    -2.4063  -2.3517  -1.0459  -0.9987  -0.8825  -0.8751   1.3120   1.3640
     1.3841   1.4571   2.9536   3.4883   3.6004   3.6963   3.7167   3.9035
     3.9357   4.0364   4.1133   4.2684   4.3555   4.6137   4.7134   4.9199
     5.0225   5.3129

 ------ SPIN DOWN ----------


          k = 0.0000 0.0000 0.0000 ( 45819 PWs)   bands (ev):

   -22.0545 -22.0374 -21.9582 -21.9438 -20.4376 -20.4138 -20.3580 -20.3452
   -19.4571 -19.4482 -19.4423 -19.4245 -16.5575 -16.5003 -16.4970 -16.4727
   -14.5323 -14.5041 -14.4712 -14.4463 -12.5855 -12.4822 -12.4361 -12.4156
   -10.9740 -10.9520 -10.9232 -10.8633  -9.7159  -9.5959  -9.5730  -9.4760
    -8.5521  -8.3028  -8.2572  -8.2247  -8.1661  -8.1071  -7.8701  -7.7644
    -7.1666  -7.0782  -6.9998  -6.8968  -6.8339  -6.6588  -6.6152  -6.4553
    -6.3527  -6.3398  -6.2891  -6.2554  -6.1618  -5.9090  -5.6767  -5.4500
    -5.2469  -5.0949  -5.0761  -5.0239  -4.9358  -4.8207  -4.7437  -4.7282
    -4.6960  -4.3387  -4.1218  -4.0620  -3.9280  -3.7053  -3.6905  -3.4916
    -3.3667  -3.3263  -3.2878  -3.0963  -3.0623  -3.0402  -2.9919  -2.9640
    -2.8754  -2.8011  -2.7630  -2.6616  -2.6417  -2.5832  -2.5538  -2.4642
    -2.4251  -2.3764  -2.3592  -2.2761  -2.0389  -1.7742  -1.7661  -1.7637
    -1.7517  -1.6437  -0.2299  -0.2086  -0.1056  -0.0683   1.4136   1.4488
     1.4982   1.5441   2.9836   3.5483   3.6550   3.7398   3.7746   3.9383
     4.0006   4.0890   4.1765   4.3129   4.4130   4.6540   4.7697   4.9528
     5.0678   5.0958

     the spin up/dw Fermi energies are    -0.4077   -0.6642 ev

!    total energy              =    -810.39738720 Ry
     Harris-Foulkes estimate   =    -810.39738725 Ry
     estimated scf accuracy    <       0.00000045 Ry

     The total energy is the sum of the following terms:

     one-electron contribution =   -1226.55748545 Ry
     hartree contribution      =     681.22823446 Ry
     xc contribution           =    -246.02509481 Ry
     ewald contribution        =     -20.33144109 Ry
     Dispersion Correction     =      -0.19103745 Ry
     smearing contrib. (-TS)   =       1.47943714 Ry

     total magnetization       =     4.00 Bohr mag/cell
     absolute magnetization    =     4.07 Bohr mag/cell

     convergence has been achieved in  22 iterations

     Forces acting on atoms (cartesian axes, Ry/au):

     atom    1 type  1   force =    -0.00111636   -0.00734316   -0.02052543
     atom    2 type  3   force =    -0.07864825    0.01480487    0.05838314
     atom    3 type  3   force =     0.07925166   -0.01976428    0.06001224
     atom    4 type  3   force =     0.12752344    0.02423460   -0.03840892
     atom    5 type  3   force =    -0.12528930   -0.01398539   -0.03763988
     atom    6 type  4   force =     0.00582553   -0.01500636    0.03244837
     atom    7 type  4   force =     0.00705855    0.02280944    0.02420321
     atom    8 type  5   force =    -0.11208637    0.18913638   -0.29126405
     atom    9 type  6   force =     0.07495773   -0.04616154    0.09927673
     atom   10 type  5   force =    -0.00033114    0.07066275   -0.06950427
     atom   11 type  5   force =     0.33376898    0.14536999    0.01808098
     atom   12 type  6   force =    -0.13093094   -0.04251631   -0.02143892
     atom   13 type  5   force =     0.10207405   -0.22468058   -0.28810688
     atom   14 type  6   force =    -0.07838104    0.04960365    0.09496096
     atom   15 type  5   force =     0.31903759    0.23150727    0.04550100
     atom   16 type  6   force =    -0.12565371   -0.05287184    0.01750547
     atom   17 type  5   force =    -0.32638249   -0.20765217    0.03434318
     atom   18 type  6   force =     0.12113130    0.05375530    0.02174819
     atom   19 type  5   force =     0.08385526   -0.20456611    0.28904078
     atom   20 type  6   force =    -0.06748973    0.05142330   -0.09299632
     atom   21 type  5   force =    -0.11426412    0.21273144    0.27629858
     atom   22 type  6   force =     0.07160326   -0.04951127   -0.08848178
     atom   23 type  5   force =    -0.32812661   -0.17265081    0.02340013
     atom   24 type  6   force =     0.12801571    0.05373337   -0.02372304
     atom   25 type  5   force =     0.02121090   -0.05802909   -0.07065334
     atom   26 type  5   force =     0.04986666    0.05968904   -0.03407030
     atom   27 type  5   force =    -0.05856673   -0.06033195   -0.03895757
     atom   28 type  2   force =     0.04192413    0.00862324    0.02136023
     atom   29 type  3   force =    -0.07971072   -0.01609425    0.05918354
     atom   30 type  3   force =     0.07866838    0.01954708    0.05822420
     atom   31 type  3   force =     0.12717817   -0.02491329   -0.03886950
     atom   32 type  3   force =    -0.12759406    0.01511200   -0.03866553
     atom   33 type  4   force =     0.00729294    0.01454542    0.03369217
     atom   34 type  4   force =     0.00821733   -0.02328229    0.02562606
     atom   35 type  5   force =    -0.11204926   -0.18930155   -0.29156884
     atom   36 type  6   force =     0.07499874    0.04615362    0.09931494
     atom   37 type  5   force =    -0.00039747   -0.07071807   -0.06947334
     atom   38 type  5   force =     0.33368593   -0.14540994    0.01812320
     atom   39 type  6   force =    -0.13086096    0.04251101   -0.02143553
     atom   40 type  5   force =     0.10201721    0.22500586   -0.28843368
     atom   41 type  6   force =    -0.07834705   -0.04953098    0.09486505
     atom   42 type  5   force =     0.31834738   -0.23237078    0.04693247
     atom   43 type  6   force =    -0.12551175    0.05289834    0.01746426
     atom   44 type  5   force =    -0.32679514    0.20797535    0.03490812
     atom   45 type  6   force =     0.12115445   -0.05378883    0.02185122
     atom   46 type  5   force =     0.08343467    0.20400320    0.28823512
     atom   47 type  6   force =    -0.06744703   -0.05156815   -0.09304535
     atom   48 type  5   force =    -0.11284759   -0.21352131    0.27645542
     atom   49 type  6   force =     0.07150333    0.04991292   -0.08840064
     atom   50 type  5   force =    -0.32824359    0.17297590    0.02311730
     atom   51 type  6   force =     0.12794464   -0.05368206   -0.02373871
     atom   52 type  5   force =     0.02095216    0.05798173   -0.07035634
     atom   53 type  5   force =     0.05269203   -0.06001568   -0.03338074
     atom   54 type  5   force =    -0.05812069    0.06256099   -0.04141738

     Total force =     1.649837     Total SCF correction =     0.001075


     Computing stress (Cartesian axis) and pressure

          total   stress  (Ry/bohr**3)                   (kbar)     P=       19.50
  -0.00007527   0.00000082  -0.00000793          -11.07        0.12       -1.17
   0.00000082   0.00025002   0.00000125            0.12       36.78        0.18
  -0.00000793   0.00000125   0.00022297           -1.17        0.18       32.80


     number of scf cycles    =   2
     number of bfgs steps    =   1

     enthalpy old            =    -810.6855149061 Ry
     enthalpy new            =    -810.3973872015 Ry

     CASE: enthalpy_new > enthalpy_old

     new trust radius        =       0.1809534610 bohr
     new conv_thr            =       0.0000010000 Ry

     new unit-cell volume =   5546.40736 a.u.^3 (   821.89276 Ang^3 )
     density =      1.22393 g/cm^3

CELL_PARAMETERS (angstrom)
   6.329824553   0.000000000   0.000000000
   0.000000000  12.562691560   0.000000000
  -0.227594000   0.000000000  10.335721227

ATOMIC_POSITIONS (crystal)
Ni2           0.4943522996        0.7537847107        0.8385695937
O             0.2406885569        0.3489285566        0.3923156434
O             0.7554792035        0.1338352934        0.3697395775
O             0.9352863135        0.3513960331        0.4969219977
O             0.0678897393        0.1207083806        0.4738894137
N             0.6271555276        0.8425778783        0.6965703486
N             0.3610365163        0.6461756896        0.7154952629
C             0.5939376707        0.9579349471        0.5173327363
H             0.4938768093        0.9879764022        0.4394180695
C             0.7937359515        0.9982135588        0.5339736464
C             0.9081413374        0.9537012135        0.6335503671
H             0.0700447595        0.9793323861        0.6517797163
C             0.4020220648        0.5207231695        0.5480746995
H             0.5014050259        0.4891579625        0.4733251667
C             0.4716728240        0.6014300740        0.6224109775
H             0.6286984943        0.6334294208        0.6071244887
C             0.5199803363        0.8824992399        0.5960701796
H             0.3623061674        0.8509451732        0.5782637338
C             0.8233928902        0.8793369637        0.7096782367
H             0.9188716884        0.8461654955        0.7875275470
C             0.1702683445        0.6030023264        0.7307549734
H             0.0737447132        0.6368456030        0.8053602424
C             0.0919009606        0.5215829075        0.6607621164
H             0.9349284809        0.4906681390        0.6804247544
C             0.2065587724        0.4766314317        0.5646491479
C             0.8761096268        0.0878160084        0.4557293180
C             0.1242999049        0.3877565345        0.4824133488
Ni1           0.9955599926        0.2461938388        0.3392738845
O             0.7406806771        0.6510739607        0.8922926056
O             0.2555188778        0.8661598396        0.8697186491
O             0.4352673144        0.6486104660        0.9969009473
O             0.5679180964        0.8792961963        0.9738538934
N             0.1271346538        0.1574069272        0.1965714951
N             0.8610322686        0.3538275902        0.2154996839
C             0.0939348629        0.0420666758        0.0173325688
H            -0.0061228935        0.0120241685        0.9394183005
C             0.2937360262        0.0017885330        0.0339757578
C             0.4081492459        0.0463009287        0.1335500930
H             0.5700448299        0.0206682909        0.1517799003
C             0.9020256446        0.4792765735        0.0480718516
H             1.0014055279        0.5108426357        0.9733245037
C             0.9716735772        0.3985733038        0.1224103873
H             0.1286998620        0.3665713683        0.1071241400
C             0.0199786267        0.1174993588        0.0960717129
H             0.8623072803        0.1490548021        0.0782639690
C             0.3233966062        0.1206659208        0.2096814036
H             0.4188658519        0.1538311774        0.2875229803
C             0.6702633659        0.3970023654        0.2307593501
H             0.5737479142        0.3631609631        0.3053569523
C             0.5918962143        0.4784184396        0.1607622360
H             0.4349283851        0.5093327742        0.1804250082
C             0.7065617913        0.5233672335        0.0646501292
C             0.3761155075        0.9121858708        0.9557305327
C             0.6242949130        0.6122442975        0.9824117603



     Writing output data file ./NiPyC2_P1_vc-relax.save/
     NEW-OLD atomic charge density approx. for the potential
     NEW k-points:
   0.0000000   0.0000000   0.0000000   1.0000000
   0.0000000   0.0000000   0.0000000   1.0000000

     Check: negative core charge=   -0.000157
     extrapolated charge  194.73591, renormalised to  200.00000

     total cpu time spent up to now is      871.2 secs

     Self-consistent Calculation

     iteration #  1     ecut=   100.00 Ry     beta= 0.70
     Davidson diagonalization with overlap
     ethr =  1.00E-06,  avg # of iterations = 19.0

     total cpu time spent up to now is      942.3 secs

     total energy              =    -807.92343013 Ry
     Harris-Foulkes estimate   =    -840.71267292 Ry
     estimated scf accuracy    <       7.87937057 Ry

     total magnetization       =     4.00 Bohr mag/cell
     absolute magnetization    =     4.18 Bohr mag/cell

     iteration #  2     ecut=   100.00 Ry     beta= 0.70
     Davidson diagonalization with overlap
     ethr =  3.94E-03,  avg # of iterations =  3.0

     total cpu time spent up to now is      962.0 secs

     total energy              =    -808.67343228 Ry
     Harris-Foulkes estimate   =    -814.94149679 Ry
     estimated scf accuracy    <      61.80778521 Ry

     total magnetization       =     4.00 Bohr mag/cell
     absolute magnetization    =     4.23 Bohr mag/cell

     iteration #  3     ecut=   100.00 Ry     beta= 0.70
     Davidson diagonalization with overlap
     ethr =  3.94E-03,  avg # of iterations =  2.5

     total cpu time spent up to now is      978.7 secs

     total energy              =    -811.14313817 Ry
     Harris-Foulkes estimate   =    -811.33121080 Ry
     estimated scf accuracy    <       1.32286689 Ry

     total magnetization       =     4.00 Bohr mag/cell
     absolute magnetization    =     4.17 Bohr mag/cell

     iteration #  4     ecut=   100.00 Ry     beta= 0.70
     Davidson diagonalization with overlap
     ethr =  6.61E-04,  avg # of iterations =  1.0

     total cpu time spent up to now is      995.3 secs

     total energy              =    -811.11231630 Ry
     Harris-Foulkes estimate   =    -811.20675046 Ry
     estimated scf accuracy    <       1.26713196 Ry

     total magnetization       =     4.00 Bohr mag/cell
     absolute magnetization    =     4.17 Bohr mag/cell

     iteration #  5     ecut=   100.00 Ry     beta= 0.70
     Davidson diagonalization with overlap
     ethr =  6.34E-04,  avg # of iterations =  1.0

     total cpu time spent up to now is     1011.7 secs

     total energy              =    -811.11009632 Ry
     Harris-Foulkes estimate   =    -811.13807373 Ry
     estimated scf accuracy    <       0.29777219 Ry

     total magnetization       =     4.00 Bohr mag/cell
     absolute magnetization    =     4.15 Bohr mag/cell

     iteration #  6     ecut=   100.00 Ry     beta= 0.70
     Davidson diagonalization with overlap
     ethr =  1.49E-04,  avg # of iterations =  4.5

     total cpu time spent up to now is     1029.5 secs

     total energy              =    -811.11609598 Ry
     Harris-Foulkes estimate   =    -811.11935192 Ry
     estimated scf accuracy    <       0.11562051 Ry

     total magnetization       =     4.00 Bohr mag/cell
     absolute magnetization    =     4.14 Bohr mag/cell

     iteration #  7     ecut=   100.00 Ry     beta= 0.70
     Davidson diagonalization with overlap
     ethr =  5.78E-05,  avg # of iterations =  3.0

     total cpu time spent up to now is     1045.9 secs

     total energy              =    -811.11110857 Ry
     Harris-Foulkes estimate   =    -811.11844469 Ry
     estimated scf accuracy    <       0.08949600 Ry

     total magnetization       =     4.00 Bohr mag/cell
     absolute magnetization    =     4.13 Bohr mag/cell

     iteration #  8     ecut=   100.00 Ry     beta= 0.70
     Davidson diagonalization with overlap
     ethr =  4.47E-05,  avg # of iterations =  3.0

     total cpu time spent up to now is     1062.8 secs

     total energy              =    -811.11330554 Ry
     Harris-Foulkes estimate   =    -811.11434449 Ry
     estimated scf accuracy    <       0.01477039 Ry

     total magnetization       =     4.00 Bohr mag/cell
     absolute magnetization    =     4.12 Bohr mag/cell

     iteration #  9     ecut=   100.00 Ry     beta= 0.70
     Davidson diagonalization with overlap
     ethr =  7.39E-06,  avg # of iterations =  3.5

     total cpu time spent up to now is     1080.7 secs

     total energy              =    -811.11348026 Ry
     Harris-Foulkes estimate   =    -811.11389369 Ry
     estimated scf accuracy    <       0.00468515 Ry

     total magnetization       =     4.00 Bohr mag/cell
     absolute magnetization    =     4.10 Bohr mag/cell

     iteration # 10     ecut=   100.00 Ry     beta= 0.70
     Davidson diagonalization with overlap
     ethr =  2.34E-06,  avg # of iterations =  3.0

     total cpu time spent up to now is     1097.8 secs

     total energy              =    -811.11363862 Ry
     Harris-Foulkes estimate   =    -811.11373713 Ry
     estimated scf accuracy    <       0.00074036 Ry

     total magnetization       =     4.00 Bohr mag/cell
     absolute magnetization    =     4.10 Bohr mag/cell

     iteration # 11     ecut=   100.00 Ry     beta= 0.70
     Davidson diagonalization with overlap
     ethr =  3.70E-07,  avg # of iterations =  3.5

     total cpu time spent up to now is     1116.8 secs

     total energy              =    -811.11374427 Ry
     Harris-Foulkes estimate   =    -811.11374373 Ry
     estimated scf accuracy    <       0.00002654 Ry

     total magnetization       =     4.00 Bohr mag/cell
     absolute magnetization    =     4.09 Bohr mag/cell

     iteration # 12     ecut=   100.00 Ry     beta= 0.70
     Davidson diagonalization with overlap
     ethr =  1.33E-08,  avg # of iterations =  3.5

     total cpu time spent up to now is     1142.2 secs

     total energy              =    -811.11375403 Ry
     Harris-Foulkes estimate   =    -811.11375288 Ry
     estimated scf accuracy    <       0.00001543 Ry

     total magnetization       =     4.00 Bohr mag/cell
     absolute magnetization    =     4.08 Bohr mag/cell

     iteration # 13     ecut=   100.00 Ry     beta= 0.70
     Davidson diagonalization with overlap
     ethr =  7.72E-09,  avg # of iterations =  1.5

     total cpu time spent up to now is     1158.8 secs

     total energy              =    -811.11375430 Ry
     Harris-Foulkes estimate   =    -811.11375467 Ry
     estimated scf accuracy    <       0.00000751 Ry

     total magnetization       =     4.00 Bohr mag/cell
     absolute magnetization    =     4.08 Bohr mag/cell

     iteration # 14     ecut=   100.00 Ry     beta= 0.70
     Davidson diagonalization with overlap
     ethr =  3.76E-09,  avg # of iterations =  2.0

     total cpu time spent up to now is     1175.6 secs

     total energy              =    -811.11375459 Ry
     Harris-Foulkes estimate   =    -811.11375467 Ry
     estimated scf accuracy    <       0.00000258 Ry

     total magnetization       =     4.00 Bohr mag/cell
     absolute magnetization    =     4.08 Bohr mag/cell

     iteration # 15     ecut=   100.00 Ry     beta= 0.70
     Davidson diagonalization with overlap
     ethr =  1.29E-09,  avg # of iterations =  2.5
 
     Magnetic moment per site:
     atom:    1    charge:    7.5384    magn:    1.2591    constr:    0.0000
     atom:    2    charge:    3.1434    magn:    0.0519    constr:    0.0000
     atom:    3    charge:    3.1408    magn:    0.0535    constr:    0.0000
     atom:    4    charge:    3.1400    magn:    0.0555    constr:    0.0000
     atom:    5    charge:    3.1403    magn:    0.0570    constr:    0.0000
     atom:    6    charge:    2.4598    magn:    0.0143    constr:    0.0000
     atom:    7    charge:    2.4561    magn:    0.0137    constr:    0.0000
     atom:    8    charge:    0.5977    magn:    0.0038    constr:    0.0000
     atom:    9    charge:    0.4111    magn:   -0.0003    constr:    0.0000
     atom:   10    charge:    0.5959    magn:    0.0038    constr:    0.0000
     atom:   11    charge:    0.5974    magn:    0.0038    constr:    0.0000
     atom:   12    charge:    0.4082    magn:   -0.0003    constr:    0.0000
     atom:   13    charge:    0.5977    magn:    0.0038    constr:    0.0000
     atom:   14    charge:    0.4112    magn:   -0.0003    constr:    0.0000
     atom:   15    charge:    0.5910    magn:    0.0030    constr:    0.0000
     atom:   16    charge:    0.4135    magn:   -0.0002    constr:    0.0000
     atom:   17    charge:    0.5919    magn:    0.0030    constr:    0.0000
     atom:   18    charge:    0.4146    magn:   -0.0003    constr:    0.0000
     atom:   19    charge:    0.5929    magn:    0.0033    constr:    0.0000
     atom:   20    charge:    0.4150    magn:    0.0002    constr:    0.0000
     atom:   21    charge:    0.5913    magn:    0.0033    constr:    0.0000
     atom:   22    charge:    0.4135    magn:    0.0001    constr:    0.0000
     atom:   23    charge:    0.5953    magn:    0.0036    constr:    0.0000
     atom:   24    charge:    0.4066    magn:   -0.0003    constr:    0.0000
     atom:   25    charge:    0.5955    magn:    0.0037    constr:    0.0000
     atom:   26    charge:    0.5617    magn:   -0.0017    constr:    0.0000
     atom:   27    charge:    0.5610    magn:   -0.0016    constr:    0.0000
     atom:   28    charge:    7.5385    magn:    1.2606    constr:    0.0000
     atom:   29    charge:    3.1398    magn:    0.0525    constr:    0.0000
     atom:   30    charge:    3.1418    magn:    0.0534    constr:    0.0000
     atom:   31    charge:    3.1390    magn:    0.0559    constr:    0.0000
     atom:   32    charge:    3.1390    magn:    0.0574    constr:    0.0000
     atom:   33    charge:    2.4616    magn:    0.0143    constr:    0.0000
     atom:   34    charge:    2.4545    magn:    0.0139    constr:    0.0000
     atom:   35    charge:    0.5969    magn:    0.0038    constr:    0.0000
     atom:   36    charge:    0.4109    magn:   -0.0003    constr:    0.0000
     atom:   37    charge:    0.5966    magn:    0.0038    constr:    0.0000
     atom:   38    charge:    0.5971    magn:    0.0038    constr:    0.0000
     atom:   39    charge:    0.4087    magn:   -0.0003    constr:    0.0000
     atom:   40    charge:    0.5971    magn:    0.0038    constr:    0.0000
     atom:   41    charge:    0.4110    magn:   -0.0002    constr:    0.0000
     atom:   42    charge:    0.5900    magn:    0.0030    constr:    0.0000
     atom:   43    charge:    0.4134    magn:   -0.0002    constr:    0.0000
     atom:   44    charge:    0.5904    magn:    0.0030    constr:    0.0000
     atom:   45    charge:    0.4146    magn:   -0.0003    constr:    0.0000
     atom:   46    charge:    0.5927    magn:    0.0033    constr:    0.0000
     atom:   47    charge:    0.4151    magn:    0.0002    constr:    0.0000
     atom:   48    charge:    0.5910    magn:    0.0033    constr:    0.0000
     atom:   49    charge:    0.4129    magn:    0.0001    constr:    0.0000
     atom:   50    charge:    0.5954    magn:    0.0036    constr:    0.0000
     atom:   51    charge:    0.4071    magn:   -0.0003    constr:    0.0000
     atom:   52    charge:    0.5966    magn:    0.0037    constr:    0.0000
     atom:   53    charge:    0.5612    magn:   -0.0017    constr:    0.0000
     atom:   54    charge:    0.5613    magn:   -0.0016    constr:    0.0000

     total cpu time spent up to now is     1188.4 secs

     End of self-consistent calculation

 ------ SPIN UP ------------


          k = 0.0000 0.0000 0.0000 ( 45819 PWs)   bands (ev):

   -22.4470 -22.4387 -22.3497 -22.3432 -19.8259 -19.8177 -19.8039 -19.8016
   -19.8003 -19.7946 -19.7313 -19.7210 -15.9610 -15.8973 -15.8941 -15.8696
   -14.4927 -14.4603 -14.4582 -14.4228 -12.0623 -11.9557 -11.9384 -11.9215
   -11.1500 -11.1291 -11.1025 -11.0447  -9.6902  -9.4933  -9.4547  -9.3857
    -8.4675  -8.0682  -7.9977  -7.9326  -7.8655  -7.8460  -7.7770  -7.7674
    -7.0570  -6.9367  -6.8939  -6.7887  -6.7500  -6.6207  -6.5018  -6.4844
    -6.4121  -6.4064  -6.2800  -6.2129  -6.1716  -6.1168  -6.0556  -6.0316
    -5.9721  -5.8401  -5.6894  -5.5703  -5.4812  -5.3648  -5.3604  -5.3435
    -4.7990  -4.7226  -4.3312  -4.3258  -3.9135  -3.7573  -3.7304  -3.7059
    -3.6737  -3.6575  -3.6053  -3.5255  -3.4728  -3.4439  -3.4045  -3.3792
    -3.2713  -2.9613  -2.8549  -2.7458  -2.7207  -2.7069  -2.6857  -2.6292
    -2.5409  -2.5133  -2.4742  -2.4613  -2.3891  -2.3710  -2.3370  -2.2349
    -2.1926  -2.1004  -0.8341  -0.7950  -0.6020  -0.5929   1.7594   1.7714
     1.8034   1.8623   3.2437   3.3273   3.3712   3.5291   3.6955   4.0442
     4.2779   4.3408   4.4829   4.5344   4.7706   5.1188   5.4152   5.5091
     5.5579   5.6732

 ------ SPIN DOWN ----------


          k = 0.0000 0.0000 0.0000 ( 45819 PWs)   bands (ev):

   -22.3427 -22.3337 -22.2458 -22.2388 -19.7854 -19.7694 -19.6997 -19.6916
   -19.6798 -19.6711 -19.6663 -19.6616 -15.9220 -15.8589 -15.8555 -15.8301
   -14.4564 -14.4239 -14.4216 -14.3861 -12.0170 -11.9139 -11.8941 -11.8804
   -11.1196 -11.0988 -11.0729 -11.0157  -9.6578  -9.4620  -9.4246  -9.3542
    -8.4039  -7.9979  -7.9526  -7.8799  -7.8031  -7.8019  -7.7306  -7.7045
    -6.9359  -6.8439  -6.7535  -6.6817  -6.6588  -6.5020  -6.4025  -6.3803
    -6.3135  -6.2708  -6.2006  -6.1386  -6.1020  -6.0867  -6.0145  -6.0063
    -5.9118  -5.7604  -5.6523  -5.5457  -5.4247  -5.3454  -5.3271  -5.2806
    -4.6583  -4.1414  -3.8743  -3.8492  -3.6910  -3.6408  -3.6366  -3.5997
    -3.5558  -3.3355  -3.3118  -3.3035  -2.9862  -2.9805  -2.8939  -2.8831
    -2.8089  -2.6792  -2.5902  -2.5780  -2.5463  -2.4997  -2.3535  -2.2947
    -2.2815  -2.1808  -2.1520  -2.0164  -1.8320  -1.5811  -1.5751  -1.5584
    -1.5432  -1.4303   0.0078   0.0180   0.1790   0.2060   1.8582   1.8608
     1.9200   1.9513   3.3017   3.3689   3.4420   3.6017   3.7709   4.0854
     4.3231   4.3955   4.5523   4.5868   4.8175   5.1600   5.4644   5.5357
     5.6057   5.7265

     the spin up/dw Fermi energies are    -0.1760   -0.4626 ev

!    total energy              =    -811.11375467 Ry
     Harris-Foulkes estimate   =    -811.11375481 Ry
     estimated scf accuracy    <       0.00000086 Ry

     The total energy is the sum of the following terms:

     one-electron contribution =   -1219.22386920 Ry
     hartree contribution      =     678.92804989 Ry
     xc contribution           =    -247.19731202 Ry
     ewald contribution        =     -24.84951883 Ry
     Dispersion Correction     =      -0.19674753 Ry
     smearing contrib. (-TS)   =       1.42564303 Ry

     total magnetization       =     4.00 Bohr mag/cell
     absolute magnetization    =     4.08 Bohr mag/cell

     convergence has been achieved in  15 iterations

     Forces acting on atoms (cartesian axes, Ry/au):

     atom    1 type  1   force =    -0.00762340   -0.00880995   -0.03652510
     atom    2 type  3   force =    -0.04824955   -0.01385034    0.01461866
     atom    3 type  3   force =     0.04856458    0.01300352    0.01868060
     atom    4 type  3   force =     0.04939960   -0.00906874   -0.02997749
     atom    5 type  3   force =    -0.04857803    0.01790958   -0.02788206
     atom    6 type  4   force =    -0.00603662   -0.01036853    0.01916386
     atom    7 type  4   force =    -0.00144875    0.00551627    0.01587515
     atom    8 type  5   force =    -0.01014250    0.07508762   -0.09956769
     atom    9 type  6   force =    -0.01001721   -0.00071873   -0.00252671
     atom   10 type  5   force =     0.00624537    0.03085612   -0.01717162
     atom   11 type  5   force =     0.10498685    0.07162101   -0.02580954
     atom   12 type  6   force =    -0.00041981   -0.00420490    0.00778703
     atom   13 type  5   force =     0.01401360   -0.08116505   -0.09308867
     atom   14 type  6   force =     0.00949980    0.00231871   -0.00138311
     atom   15 type  5   force =     0.10006511    0.08213112    0.01943390
     atom   16 type  6   force =     0.00137489    0.00291092    0.00223327
     atom   17 type  5   force =    -0.10684953   -0.08013181    0.02366553
     atom   18 type  6   force =    -0.00633313   -0.00080516    0.00428160
     atom   19 type  5   force =     0.01140396   -0.07927243    0.09929183
     atom   20 type  6   force =     0.00311096   -0.00477891    0.01139885
     atom   21 type  5   force =    -0.01345352    0.08918892    0.09588089
     atom   22 type  6   force =    -0.00267768    0.00743394    0.00914956
     atom   23 type  5   force =    -0.09770459   -0.08072806   -0.02084703
     atom   24 type  6   force =     0.00194587    0.00803889    0.00573183
[...]

     iteration # 11     ecut=   100.00 Ry     beta= 0.70
     Davidson diagonalization with overlap
     ethr =  3.47E-06,  avg # of iterations =  3.5

     total cpu time spent up to now is    17472.2 secs

     total energy              =    -811.24820099 Ry
     Harris-Foulkes estimate   =    -811.24800113 Ry
     estimated scf accuracy    <       0.00226971 Ry

     total magnetization       =     4.00 Bohr mag/cell
     absolute magnetization    =     4.15 Bohr mag/cell

     iteration # 12     ecut=   100.00 Ry     beta= 0.70
     Davidson diagonalization with overlap
     ethr =  1.13E-06,  avg # of iterations =  3.0

     total cpu time spent up to now is    17483.9 secs

     total energy              =    -811.24844860 Ry
     Harris-Foulkes estimate   =    -811.24834247 Ry
     estimated scf accuracy    <       0.00029097 Ry

     total magnetization       =     4.00 Bohr mag/cell
     absolute magnetization    =     4.15 Bohr mag/cell

     iteration # 13     ecut=   100.00 Ry     beta= 0.70
     Davidson diagonalization with overlap
     ethr =  1.45E-07,  avg # of iterations =  4.0

     total cpu time spent up to now is    17495.7 secs

     total energy              =    -811.24848933 Ry
     Harris-Foulkes estimate   =    -811.24847334 Ry
     estimated scf accuracy    <       0.00004815 Ry

     total magnetization       =     4.00 Bohr mag/cell
     absolute magnetization    =     4.15 Bohr mag/cell

     iteration # 14     ecut=   100.00 Ry     beta= 0.70
     Davidson diagonalization with overlap
     ethr =  2.41E-08,  avg # of iterations =  2.5

     total cpu time spent up to now is    17507.6 secs

     total energy              =    -811.24850143 Ry
     Harris-Foulkes estimate   =    -811.24849368 Ry
     estimated scf accuracy    <       0.00001321 Ry

     total magnetization       =     4.00 Bohr mag/cell
     absolute magnetization    =     4.15 Bohr mag/cell

     iteration # 15     ecut=   100.00 Ry     beta= 0.70
     Davidson diagonalization with overlap
     ethr =  6.60E-09,  avg # of iterations =  3.5

     total cpu time spent up to now is    17519.7 secs

     total energy              =    -811.24850413 Ry
     Harris-Foulkes estimate   =    -811.24850272 Ry
     estimated scf accuracy    <       0.00000343 Ry

     total magnetization       =     4.00 Bohr mag/cell
     absolute magnetization    =     4.15 Bohr mag/cell

     iteration # 16     ecut=   100.00 Ry     beta= 0.70
     Davidson diagonalization with overlap
     ethr =  1.71E-09,  avg # of iterations =  3.0

     total cpu time spent up to now is    17531.4 secs

     total energy              =    -811.24850506 Ry
     Harris-Foulkes estimate   =    -811.24850441 Ry
     estimated scf accuracy    <       0.00000096 Ry

     total magnetization       =     4.00 Bohr mag/cell
     absolute magnetization    =     4.15 Bohr mag/cell

     iteration # 17     ecut=   100.00 Ry     beta= 0.70
     Davidson diagonalization with overlap
     ethr =  4.79E-10,  avg # of iterations =  3.0

     total cpu time spent up to now is    17543.2 secs

     total energy              =    -811.24850529 Ry
     Harris-Foulkes estimate   =    -811.24850515 Ry
     estimated scf accuracy    <       0.00000042 Ry

     total magnetization       =     4.00 Bohr mag/cell
     absolute magnetization    =     4.15 Bohr mag/cell

     iteration # 18     ecut=   100.00 Ry     beta= 0.70
     Davidson diagonalization with overlap
     ethr =  2.09E-10,  avg # of iterations =  3.0

     total cpu time spent up to now is    17554.7 secs

     total energy              =    -811.24850534 Ry
     Harris-Foulkes estimate   =    -811.24850533 Ry
     estimated scf accuracy    <       0.00000011 Ry

     total magnetization       =     4.00 Bohr mag/cell
     absolute magnetization    =     4.15 Bohr mag/cell

     iteration # 19     ecut=   100.00 Ry     beta= 0.70
     Davidson diagonalization with overlap
     ethr =  5.57E-11,  avg # of iterations =  2.5

     total cpu time spent up to now is    17566.1 secs

     total energy              =    -811.24850536 Ry
     Harris-Foulkes estimate   =    -811.24850535 Ry
     estimated scf accuracy    <       0.00000006 Ry

     total magnetization       =     4.00 Bohr mag/cell
     absolute magnetization    =     4.15 Bohr mag/cell

     iteration # 20     ecut=   100.00 Ry     beta= 0.70
     Davidson diagonalization with overlap
     ethr =  3.15E-11,  avg # of iterations =  3.0

     total cpu time spent up to now is    17577.8 secs

     total energy              =    -811.24850537 Ry
     Harris-Foulkes estimate   =    -811.24850536 Ry
     estimated scf accuracy    <       0.00000002 Ry

     total magnetization       =     4.00 Bohr mag/cell
     absolute magnetization    =     4.15 Bohr mag/cell

     iteration # 21     ecut=   100.00 Ry     beta= 0.70
     Davidson diagonalization with overlap
     ethr =  7.67E-12,  avg # of iterations =  2.5

     total cpu time spent up to now is    17589.4 secs

     total energy              =    -811.24850537 Ry
     Harris-Foulkes estimate   =    -811.24850537 Ry
     estimated scf accuracy    <       0.00000001 Ry

     total magnetization       =     4.00 Bohr mag/cell
     absolute magnetization    =     4.15 Bohr mag/cell

     iteration # 22     ecut=   100.00 Ry     beta= 0.70
     Davidson diagonalization with overlap
     ethr =  5.45E-12,  avg # of iterations =  3.0
 
     Magnetic moment per site:
     atom:    1    charge:    7.3290    magn:    1.0336    constr:    0.0000
     atom:    2    charge:    3.1181    magn:    0.0666    constr:    0.0000
     atom:    3    charge:    3.1176    magn:    0.0680    constr:    0.0000
     atom:    4    charge:    3.1193    magn:    0.0685    constr:    0.0000
     atom:    5    charge:    3.1163    magn:    0.0705    constr:    0.0000
     atom:    6    charge:    2.4089    magn:    0.0197    constr:    0.0000
     atom:    7    charge:    2.4111    magn:    0.0189    constr:    0.0000
     atom:    8    charge:    0.5737    magn:    0.0055    constr:    0.0000
     atom:    9    charge:    0.3686    magn:   -0.0012    constr:    0.0000
     atom:   10    charge:    0.5759    magn:    0.0043    constr:    0.0000
     atom:   11    charge:    0.5740    magn:    0.0055    constr:    0.0000
     atom:   12    charge:    0.3685    magn:   -0.0015    constr:    0.0000
     atom:   13    charge:    0.5747    magn:    0.0054    constr:    0.0000
     atom:   14    charge:    0.3690    magn:   -0.0012    constr:    0.0000
     atom:   15    charge:    0.5682    magn:    0.0048    constr:    0.0000
     atom:   16    charge:    0.3699    magn:   -0.0011    constr:    0.0000
     atom:   17    charge:    0.5671    magn:    0.0048    constr:    0.0000
     atom:   18    charge:    0.3697    magn:   -0.0012    constr:    0.0000
     atom:   19    charge:    0.5679    magn:    0.0047    constr:    0.0000
     atom:   20    charge:    0.3688    magn:   -0.0008    constr:    0.0000
     atom:   21    charge:    0.5680    magn:    0.0047    constr:    0.0000
     atom:   22    charge:    0.3681    magn:   -0.0008    constr:    0.0000
     atom:   23    charge:    0.5742    magn:    0.0054    constr:    0.0000
     atom:   24    charge:    0.3685    magn:   -0.0015    constr:    0.0000
     atom:   25    charge:    0.5773    magn:    0.0042    constr:    0.0000
     atom:   26    charge:    0.5546    magn:   -0.0013    constr:    0.0000
     atom:   27    charge:    0.5556    magn:   -0.0012    constr:    0.0000
     atom:   28    charge:    7.3901    magn:    1.0280    constr:    0.0000
     atom:   29    charge:    3.1181    magn:    0.0698    constr:    0.0000
     atom:   30    charge:    3.1175    magn:    0.0692    constr:    0.0000
     atom:   31    charge:    3.1169    magn:    0.0714    constr:    0.0000
     atom:   32    charge:    3.1173    magn:    0.0709    constr:    0.0000
     atom:   33    charge:    2.4087    magn:    0.0198    constr:    0.0000
     atom:   34    charge:    2.4085    magn:    0.0197    constr:    0.0000
     atom:   35    charge:    0.5735    magn:    0.0056    constr:    0.0000
     atom:   36    charge:    0.3690    magn:   -0.0012    constr:    0.0000
     atom:   37    charge:    0.5757    magn:    0.0043    constr:    0.0000
     atom:   38    charge:    0.5728    magn:    0.0055    constr:    0.0000
     atom:   39    charge:    0.3687    magn:   -0.0015    constr:    0.0000
     atom:   40    charge:    0.5728    magn:    0.0055    constr:    0.0000
     atom:   41    charge:    0.3694    magn:   -0.0012    constr:    0.0000
     atom:   42    charge:    0.5669    magn:    0.0048    constr:    0.0000
     atom:   43    charge:    0.3702    magn:   -0.0012    constr:    0.0000
     atom:   44    charge:    0.5664    magn:    0.0048    constr:    0.0000
     atom:   45    charge:    0.3705    magn:   -0.0012    constr:    0.0000
     atom:   46    charge:    0.5665    magn:    0.0047    constr:    0.0000
     atom:   47    charge:    0.3686    magn:   -0.0008    constr:    0.0000
     atom:   48    charge:    0.5669    magn:    0.0047    constr:    0.0000
     atom:   49    charge:    0.3690    magn:   -0.0008    constr:    0.0000
     atom:   50    charge:    0.5745    magn:    0.0056    constr:    0.0000
     atom:   51    charge:    0.3690    magn:   -0.0015    constr:    0.0000
     atom:   52    charge:    0.5755    magn:    0.0043    constr:    0.0000
     atom:   53    charge:    0.5549    magn:   -0.0014    constr:    0.0000
     atom:   54    charge:    0.5560    magn:   -0.0015    constr:    0.0000

     total cpu time spent up to now is    17600.3 secs

     End of self-consistent calculation

 ------ SPIN UP ------------


          k = 0.0000 0.0000 0.0000 ( 46676 PWs)   bands (ev):

   -22.7738 -22.7484 -22.6036 -22.5820 -19.7750 -19.7492 -19.7424 -19.7280
   -19.4848 -19.4489 -19.3080 -19.2874 -15.6710 -15.5734 -15.5607 -15.5363
   -14.3951 -14.3580 -14.3364 -14.3004 -12.0094 -11.8101 -11.7887 -11.7712
   -11.2329 -11.2140 -11.1866 -11.1213  -9.5743  -9.2606  -9.2421  -9.2002
    -8.5006  -7.9788  -7.9279  -7.8208  -7.7985  -7.7514  -7.7148  -7.5818
    -7.0269  -6.9124  -6.8851  -6.8411  -6.7797  -6.7061  -6.6471  -6.6273
    -6.6118  -6.5553  -6.3876  -6.3093  -6.3044  -6.2661  -6.1841  -6.0849
    -5.9990  -5.7655  -5.6113  -5.5659  -5.5136  -5.4176  -5.3856  -5.1127
    -4.8817  -4.7617  -4.4622  -4.3450  -4.2386  -4.1824  -4.1681  -3.9706
    -3.9248  -3.7455  -3.6895  -3.6250  -3.4804  -3.3545  -3.3167  -3.2940
    -3.2175  -2.8245  -2.7383  -2.6415  -2.6353  -2.6118  -2.4880  -2.4741
    -2.4486  -2.3638  -2.3094  -2.2616  -2.2406  -2.1879  -2.1352  -2.1019
    -2.0187  -1.9143  -0.2129  -0.1435   0.1594   0.2192   1.6464   1.7309
     1.8015   1.8624   2.9088   2.9355   3.1185   3.1639   3.4616   4.2316
     4.3214   4.3352   4.4748   4.5196   5.0830   5.3042   5.4483   5.6079
     5.6241   5.8174

 ------ SPIN DOWN ----------


          k = 0.0000 0.0000 0.0000 ( 46676 PWs)   bands (ev):

   -22.6411 -22.6123 -22.4713 -22.4464 -19.6062 -19.5773 -19.5676 -19.5531
   -19.4362 -19.4001 -19.2599 -19.2391 -15.6191 -15.5220 -15.5092 -15.4835
   -14.3440 -14.3063 -14.2850 -14.2485 -11.9501 -11.7545 -11.7318 -11.7139
   -11.1930 -11.1742 -11.1466 -11.0827  -9.5386  -9.2292  -9.2075  -9.1649
    -8.4184  -7.8807  -7.8494  -7.7328  -7.7201  -7.6585  -7.6402  -7.5269
    -6.8787  -6.7615  -6.7287  -6.7115  -6.6488  -6.5995  -6.5339  -6.5311
    -6.4857  -6.4193  -6.3344  -6.2575  -6.2410  -6.1990  -6.0805  -5.9663
    -5.8911  -5.7270  -5.5688  -5.5390  -5.4830  -5.3309  -5.3044  -5.0016
    -4.7218  -4.2971  -4.2933  -4.2119  -4.1478  -4.1355  -3.8803  -3.7068
    -3.5985  -3.5148  -3.4199  -3.3246  -3.0340  -2.9355  -2.8840  -2.8815
    -2.8272  -2.5246  -2.4502  -2.4183  -2.3966  -2.3628  -2.2366  -2.1757
    -2.1577  -2.0996  -1.8910  -1.8296  -1.8036  -1.5383  -1.4947  -1.4811
    -1.4287  -1.3560   0.5311   0.5864   0.8086   0.8853   1.7661   1.8904
     1.9383   1.9865   3.0252   3.0514   3.2342   3.2812   3.5074   4.3074
     4.4055   4.4194   4.5428   4.6230   5.1513   5.3635   5.4953   5.6399
     5.6656   5.8631

     the spin up/dw Fermi energies are     0.1333   -0.3110 ev

!    total energy              =    -811.24850537 Ry
     Harris-Foulkes estimate   =    -811.24850537 Ry
     estimated scf accuracy    <          3.7E-09 Ry

     The total energy is the sum of the following terms:

     one-electron contribution =   -1268.55850032 Ry
     hartree contribution      =     703.65662635 Ry
     xc contribution           =    -246.74902425 Ry
     ewald contribution        =      -0.78095664 Ry
     Dispersion Correction     =      -0.20642606 Ry
     smearing contrib. (-TS)   =       1.38977555 Ry

     total magnetization       =     4.00 Bohr mag/cell
     absolute magnetization    =     4.15 Bohr mag/cell

     convergence has been achieved in  22 iterations

     Forces acting on atoms (cartesian axes, Ry/au):

     atom    1 type  1   force =    -0.00603692    0.00618257   -0.02982035
     atom    2 type  3   force =    -0.00052384   -0.00072187    0.00268945
     atom    3 type  3   force =    -0.00030338    0.00150543    0.00270985
     atom    4 type  3   force =     0.00388621   -0.00157727    0.00018304
     atom    5 type  3   force =    -0.00134482    0.00084768    0.00255947
     atom    6 type  4   force =     0.00035511   -0.00457124    0.00020503
     atom    7 type  4   force =     0.00135251    0.00482317   -0.00006431
     atom    8 type  5   force =     0.00112656    0.00026454    0.00149173
     atom    9 type  6   force =     0.00058364   -0.00029703    0.00154908
     atom   10 type  5   force =     0.00037359   -0.00015536    0.00182692
     atom   11 type  5   force =    -0.00056420   -0.00016470    0.00149598
     atom   12 type  6   force =     0.00031564   -0.00023001    0.00139340
     atom   13 type  5   force =     0.00085015    0.00037966    0.00145156
     atom   14 type  6   force =     0.00092064    0.00036193    0.00146654
     atom   15 type  5   force =     0.00069034    0.00107284    0.00122288
     atom   16 type  6   force =    -0.00144393   -0.00045526    0.00186969
     atom   17 type  5   force =    -0.00025820   -0.00106438    0.00144489
     atom   18 type  6   force =     0.00262484    0.00085734    0.00144125
     atom   19 type  5   force =     0.00057177   -0.00036937    0.00176631
     atom   20 type  6   force =    -0.00048563    0.00133881   -0.00021927
     atom   21 type  5   force =    -0.00033005   -0.00016176    0.00178252
     atom   22 type  6   force =     0.00163650   -0.00150044   -0.00025680
     atom   23 type  5   force =     0.00046779    0.00062016    0.00255242
     atom   24 type  6   force =     0.00047122    0.00017536    0.00126974
     atom   25 type  5   force =     0.00064402    0.00077894    0.00116178
     atom   26 type  5   force =    -0.00003580    0.00010042    0.00093241
     atom   27 type  5   force =    -0.00040953    0.00028317    0.00044576
     atom   28 type  2   force =    -0.01151107   -0.00898860   -0.03876832
     atom   29 type  3   force =    -0.00212547    0.00128195    0.00252632
     atom   30 type  3   force =     0.00065248   -0.00163848    0.00451789
     atom   31 type  3   force =     0.00305716    0.00078916    0.00228225
     atom   32 type  3   force =    -0.00323902   -0.00126494    0.00069679
     atom   33 type  4   force =    -0.00028046    0.00491297   -0.00015868
     atom   34 type  4   force =     0.00085564   -0.00473824   -0.00027189
     atom   35 type  5   force =     0.00087831    0.00002732    0.00145196
     atom   36 type  6   force =     0.00080662   -0.00006337    0.00151909
     atom   37 type  5   force =     0.00003018    0.00027411    0.00169301
     atom   38 type  5   force =     0.00001151    0.00024935    0.00174387
     atom   39 type  6   force =    -0.00000773    0.00018610    0.00149462
     atom   40 type  5   force =     0.00073698   -0.00036171    0.00105336
     atom   41 type  6   force =     0.00027707   -0.00009269    0.00162179
     atom   42 type  5   force =     0.00068968   -0.00087973    0.00091696
     atom   43 type  6   force =    -0.00149981    0.00070383    0.00165627
     atom   44 type  5   force =     0.00029045    0.00127358    0.00104394
     atom   45 type  6   force =     0.00187023   -0.00042959    0.00120691
     atom   46 type  5   force =     0.00069605    0.00090296    0.00218468
     atom   47 type  6   force =    -0.00047566   -0.00106800   -0.00018246
     atom   48 type  5   force =     0.00010730    0.00008030    0.00207699
     atom   49 type  6   force =     0.00162667    0.00152900   -0.00017045
     atom   50 type  5   force =     0.00048193   -0.00061288    0.00188933
     atom   51 type  6   force =     0.00037598    0.00006586    0.00170283
     atom   52 type  5   force =     0.00000078   -0.00015768    0.00118477
     atom   53 type  5   force =     0.00059988   -0.00015551    0.00007353
     atom   54 type  5   force =    -0.00003995   -0.00014838    0.00046364

     Total force =     0.054878     Total SCF correction =     0.000130


     Computing stress (Cartesian axis) and pressure

          total   stress  (Ry/bohr**3)                   (kbar)     P=       17.66
   0.00013845   0.00000804   0.00000604           20.37        1.18        0.89
   0.00000804   0.00011613   0.00000913            1.18       17.08        1.34
   0.00000604   0.00000913   0.00010567            0.89        1.34       15.55


     Writing output data file ./NiPyC2_P1_vc-relax.save/
 
     init_run     :     26.98s CPU     30.96s WALL (       2 calls)
     electrons    :  11371.02s CPU  15426.60s WALL (      73 calls)
     update_pot   :    742.58s CPU    765.74s WALL (      71 calls)
     forces       :    523.89s CPU    568.59s WALL (      73 calls)
     stress       :    746.59s CPU    804.29s WALL (      73 calls)

     Called by init_run:
     wfcinit      :     10.50s CPU     13.87s WALL (       2 calls)
     potinit      :      7.34s CPU      7.84s WALL (       2 calls)
     hinit0       :      7.89s CPU      7.97s WALL (       2 calls)

     Called by electrons:
     c_bands      :   9723.60s CPU  12981.69s WALL (     965 calls)
     sum_band     :    684.83s CPU   1029.47s WALL (     965 calls)
     v_of_rho     :    487.90s CPU    652.68s WALL (    1034 calls)
     mix_rho      :    463.07s CPU    708.77s WALL (     965 calls)

     Called by c_bands:
     init_us_2    :     14.70s CPU     15.55s WALL (    1932 calls)
     regterg      :   9629.38s CPU  12658.45s WALL (     965 calls)

     Called by sum_band:

     Called by *egterg:
     h_psi        :   4141.10s CPU   5619.02s WALL (    3328 calls)
     g_psi        :      4.16s CPU      4.30s WALL (    2361 calls)
     rdiaghg      :    266.40s CPU    272.39s WALL (    3251 calls)

     Called by h_psi:
     h_psi:calbec :    884.24s CPU   1157.30s WALL (    3328 calls)
     vloc_psi     :   2415.10s CPU   3616.95s WALL (    3328 calls)
     add_vuspsi   :    829.62s CPU    832.19s WALL (    3328 calls)

     General routines
     calbec       :   1038.00s CPU   1343.30s WALL (    3693 calls)
     fft          :    322.07s CPU    531.75s WALL (   17706 calls)
     ffts         :    332.65s CPU    510.63s WALL (   17040 calls)
     fftw         :   2638.28s CPU   4112.57s WALL (  332609 calls)
 
     Parallel routines
     fft_scatt_xy :    587.15s CPU    610.70s WALL (  367355 calls)
     fft_scatt_yz :    985.41s CPU   2743.48s WALL (  367355 calls)
 
     PWSCF        :      3h43m CPU      4h53m WALL

 
   This run was terminated on:  23:45: 8  29May2020            

=------------------------------------------------------------------------------=
   JOB DONE.
=------------------------------------------------------------------------------=
QE finished Fri May 29 23:45:08 PDT 2020
