/apps/openmpi/3.1_intel-19/bin/mpiexec
starting QE Tue Jun 2 13:53:52 PDT 2020

     Program PWSCF v.6.5 starts on  2Jun2020 at 13:53:54 

     This program is part of the open-source Quantum ESPRESSO suite
     for quantum simulation of materials; please cite
         "P. Giannozzi et al., J. Phys.:Condens. Matter 21 395502 (2009);
         "P. Giannozzi et al., J. Phys.:Condens. Matter 29 465901 (2017);
          URL http://www.quantum-espresso.org", 
     in publications or presentations arising from this work. More details at
     http://www.quantum-espresso.org/quote

     Parallel version (MPI), running on    32 processors

     MPI processes distributed on     1 nodes
     K-points division:     npool     =       2
     R & G space division:  proc/nbgrp/npool/nimage =      16
     Reading input from QE_input_scripts/pw.NiPyC2_P1.pbesol-angles.vc-relax.in

     Current dimensions of program PWSCF are:
     Max number of different atomic species (ntypx) = 10
     Max number of k-points (npk) =  40000
     Max angular momentum in pseudopotentials (lmaxx) =  3

     -------------------------------------------------
     Parameters for Dispersion (Grimme-D2) Correction:
     -------------------------------------------------
       atom      VdW radius       C_6     

        Ni         2.952        374.666
        O          2.536         24.284
        N          2.640         42.670
        C          2.744         60.710
        H          1.892          4.857

     gamma-point specific algorithms are used

     Subspace diagonalization in iterative solution of the eigenvalue problem:
     a serial algorithm will be used

     Message from routine setup:
     using ibrav=0 with symmetry is DISCOURAGED, use correct ibrav instead
 
     Parallelization info
     --------------------
     sticks:   dense  smooth     PW     G-vecs:    dense   smooth      PW
     Min         556     556    138                45842    45842    5724
     Max         558     558    140                45850    45850    5730
     Sum        8917    8917   2219               733525   733525   91637
 


     bravais-lattice index     =            0
     lattice parameter (alat)  =      11.8161  a.u.
     unit-cell volume          =    5429.3114 (a.u.)^3
     number of atoms/cell      =           54
     number of atomic types    =            5
     number of electrons       =       200.00 (up: 102.00, down:  98.00)
     number of Kohn-Sham states=          122
     kinetic-energy cutoff     =     100.0000  Ry
     charge density cutoff     =     400.0000  Ry
     convergence threshold     =      1.0E-06
     mixing beta               =       0.7000
     number of iterations used =            8  local-TF  mixing
     Exchange-correlation= PBESOL
                           (   1   4  10   8   0   0   0)
     nstep                     =          200


     celldm(1)=  11.816080  celldm(2)=   0.000000  celldm(3)=   0.000000
     celldm(4)=   0.000000  celldm(5)=   0.000000  celldm(6)=   0.000000

     crystal axes: (cart. coord. in units of alat)
               a(1) = (   1.000000   0.000000   0.000000 )  
               a(2) = (   0.000000   2.002847   0.000000 )  
               a(3) = (  -0.036399   0.000000   1.643149 )  

     reciprocal axes: (cart. coord. in units 2 pi/alat)
               b(1) = (  1.000000  0.000000  0.022152 )  
               b(2) = (  0.000000  0.499289  0.000000 )  
               b(3) = (  0.000000  0.000000  0.608588 )  


     PseudoPot. # 1 for Ni read from file:
     ./pseudo/Ni.pbesol-n-nc.UPF
     MD5 check sum: 623411631e0c2eb7c0b2b9815547d2d9
     Pseudo is Norm-conserving + core correction, Zval = 10.0
     Generated using "atomic" code by A. Dal Corso v.6.5
     Using radial grid of 1195 points,  2 beta functions with: 
                l(1) =   1
                l(2) =   2

     PseudoPot. # 2 for O  read from file:
     ./pseudo/O.pbesol-nc.UPF
     MD5 check sum: 73d10e7e91dbfcbe8a7e362101007f84
     Pseudo is Norm-conserving, Zval =  6.0
     Generated using "atomic" code by A. Dal Corso v.6.5
     Using radial grid of 1095 points,  1 beta functions with: 
                l(1) =   1

     PseudoPot. # 3 for N  read from file:
     ./pseudo/N.pbesol-nc.UPF
     MD5 check sum: e18cc5e4b8a5600c1a19b30c2cab1ca0
     Pseudo is Norm-conserving, Zval =  5.0
     Generated using "atomic" code by A. Dal Corso v.6.5
     Using radial grid of 1085 points,  1 beta functions with: 
                l(1) =   1

     PseudoPot. # 4 for C  read from file:
     ./pseudo/C.pbesol-nc.UPF
     MD5 check sum: ce26087537ded160c8d400e183a8bf42
     Pseudo is Norm-conserving, Zval =  4.0
     Generated using "atomic" code by A. Dal Corso v.6.5
     Using radial grid of 1073 points,  1 beta functions with: 
                l(1) =   1

     PseudoPot. # 5 for H  read from file:
     ./pseudo/H.pbesol-n-nc.UPF
     MD5 check sum: 7995ef24074557c85b430109caaacc09
     Pseudo is Norm-conserving, Zval =  1.0
     Generated using "atomic" code by A. Dal Corso v.6.5
     Using radial grid of  929 points,  0 beta functions with: 

     atomic species   valence    mass     pseudopotential
        Ni            10.00    58.69340     Ni( 1.00)
        O              6.00    15.99940     O ( 1.00)
        N              5.00    14.00670     N ( 1.00)
        C              4.00    12.01070     C ( 1.00)
        H              1.00     1.00794     H ( 1.00)

     Starting magnetic structure 
     atomic species   magnetization
        Ni           0.250
        O            0.000
        N            0.000
        C            0.000
        H            0.000

      2 Sym. Ops. (no inversion) found ( 1 have fractional translation)



   Cartesian axes

     site n.     atom                  positions (alat units)
         1           Ni  tau(   1) = (   0.4642458   1.5100663   1.3793082  )
         2           O   tau(   2) = (   0.2269989   0.7002353   0.6455930  )
         3           O   tau(   3) = (   0.7414252   0.2665388   0.6082936  )
         4           O   tau(   4) = (   0.9187989   0.7054627   0.8171378  )
         5           O   tau(   5) = (   0.0492397   0.2399410   0.7791810  )
         6           N   tau(   6) = (   0.6025592   1.6881995   1.1439600  )
         7           N   tau(   7) = (   0.3350713   1.2940393   1.1750155  )
         8           C   tau(   8) = (   0.5691129   1.9213309   0.8435924  )
         9           H   tau(   9) = (   0.4840353   1.9752074   0.7297223  )
        10           C   tau(  10) = (   0.7737740   1.9988410   0.8769484  )
        11           C   tau(  11) = (   0.8939722   1.9119175   1.0440566  )
        12           H   tau(  12) = (   0.0365226   1.9583835   1.0688681  )
        13           C   tau(  13) = (   0.3878954   1.0396777   0.8940371  )
        14           H   tau(  14) = (   0.4777087   0.9833977   0.7850964  )
        15           C   tau(  15) = (   0.4576709   1.2081171   1.0215454  )
        16           H   tau(  16) = (   0.5969732   1.2643971   0.9988700  )
        17           C   tau(  17) = (   0.4898428   1.7643077   0.9776734  )
        18           H   tau(  18) = (   0.3510215   1.7084283   0.9515473  )
        19           C   tau(  19) = (   0.8025222   1.7578986   1.1727151  )
        20           H   tau(  20) = (   0.8848144   1.6990149   1.2859280  )
        21           C   tau(  21) = (   0.1377615   1.2107208   1.2070569  )
        22           H   tau(  22) = (   0.0501555   1.2710065   1.3156690  )
        23           C   tau(  23) = (   0.0584822   1.0420812   1.0887502  )
        24           H   tau(  24) = (   0.9198816   0.9864020   1.1158622  )
        25           C   tau(  25) = (   0.1873493   0.9553579   0.9277216  )
        26           C   tau(  26) = (   0.8614386   0.1788542   0.7476326  )
        27           C   tau(  27) = (   0.1044740   0.7734994   0.7911760  )
        28           Ni  tau(  28) = (   0.9824452   0.4927804   0.5577339  )
        29           O   tau(  29) = (   0.7087996   1.3026115   1.4671673  )
        30           O   tau(  30) = (   0.2232258   1.7363079   1.4298678  )
        31           O   tau(  31) = (   0.4005995   1.2973840   1.6387120  )
        32           O   tau(  32) = (   0.5310404   1.7629057   1.6007553  )
        33           N   tau(  33) = (   0.1207586   0.3146472   0.3223857  )
        34           N   tau(  34) = (   0.8532706   0.7088075   0.3534412  )
        35           C   tau(  35) = (   0.0873123   0.0815159   0.0220182  )
        36           H   tau(  36) = (  -0.0341640   0.0276393   1.5512965  )
        37           C   tau(  37) = (   0.2919734   0.0040057   0.0553741  )
        38           C   tau(  38) = (   0.4121716   0.0909292   0.2224823  )
        39           H   tau(  39) = (   0.5547220   0.0444632   0.2472939  )
        40           C   tau(  40) = (   0.9060948   0.9631690   0.0724628  )
        41           H   tau(  41) = (   0.9595093   1.0194490   1.6066706  )
        42           C   tau(  42) = (   0.9758703   0.7947296   0.1999712  )
        43           H   tau(  43) = (   0.1151726   0.7384496   0.1772957  )
        44           C   tau(  44) = (   0.0080421   0.2385390   0.1560991  )
        45           H   tau(  45) = (   0.8692209   0.2944185   0.1299730  )
        46           C   tau(  46) = (   0.3207216   0.2449482   0.3511408  )
        47           H   tau(  47) = (   0.4030137   0.3038318   0.4643538  )
        48           C   tau(  48) = (   0.6559609   0.7921259   0.3854826  )
        49           H   tau(  49) = (   0.5683549   0.7318402   0.4940948  )
        50           C   tau(  50) = (   0.5766816   0.9607656   0.2671759  )
        51           H   tau(  51) = (   0.4380810   1.0164447   0.2942879  )
        52           C   tau(  52) = (   0.7055486   1.0474888   0.1061474  )
        53           C   tau(  53) = (   0.3432392   1.8239925   1.5692068  )
        54           C   tau(  54) = (   0.5862746   1.2293473   1.6127503  )

     number of k points=     1  Marzari-Vanderbilt smearing, width (Ry)=  0.2000
                       cart. coord. in units 2pi/alat
        k(    1) = (   0.0000000   0.0000000   0.0000000), wk =   1.0000000

     Dense  grid:   366763 G-vectors     FFT dimensions: (  80, 160, 128)

     Estimated max dynamical RAM per process >      93.56 MB

     Estimated total dynamical RAM >       2.92 GB
     Generating pointlists ...
     new r_m :   0.1337 (alat units)  1.5801 (a.u.) for type    1
     new r_m :   0.0823 (alat units)  0.9721 (a.u.) for type    2
     new r_m :   0.0882 (alat units)  1.0416 (a.u.) for type    3
     new r_m :   0.0626 (alat units)  0.7399 (a.u.) for type    4
     new r_m :   0.0626 (alat units)  0.7399 (a.u.) for type    5

     Check: negative core charge=   -0.000145

     Initial potential from superposition of free atoms

     starting charge  199.99835, renormalised to  200.00000
     Starting wfcs are  178 randomized atomic wfcs

     total cpu time spent up to now is        3.9 secs

     Self-consistent Calculation

     iteration #  1     ecut=   100.00 Ry     beta= 0.70
     Davidson diagonalization with overlap
     ethr =  1.00E-02,  avg # of iterations =  4.0

     total cpu time spent up to now is        9.5 secs

     total energy              =    -808.50609787 Ry
     Harris-Foulkes estimate   =    -813.53920990 Ry
     estimated scf accuracy    <      13.16903205 Ry

     total magnetization       =     4.00 Bohr mag/cell
     absolute magnetization    =     4.57 Bohr mag/cell

     iteration #  2     ecut=   100.00 Ry     beta= 0.70
     Davidson diagonalization with overlap
     ethr =  6.58E-03,  avg # of iterations =  2.0

     total cpu time spent up to now is       12.9 secs

     total energy              =    -810.77755988 Ry
     Harris-Foulkes estimate   =    -813.09983675 Ry
     estimated scf accuracy    <      10.77736595 Ry

     total magnetization       =     4.00 Bohr mag/cell
     absolute magnetization    =     4.10 Bohr mag/cell

     iteration #  3     ecut=   100.00 Ry     beta= 0.70
     Davidson diagonalization with overlap
     ethr =  5.39E-03,  avg # of iterations =  1.0

     total cpu time spent up to now is       16.0 secs

     total energy              =    -810.33164281 Ry
     Harris-Foulkes estimate   =    -811.13810755 Ry
     estimated scf accuracy    <       2.70814640 Ry

     total magnetization       =     4.00 Bohr mag/cell
     absolute magnetization    =     4.10 Bohr mag/cell

     iteration #  4     ecut=   100.00 Ry     beta= 0.70
     Davidson diagonalization with overlap
     ethr =  1.35E-03,  avg # of iterations =  5.0

     total cpu time spent up to now is       19.8 secs

     total energy              =    -810.36385854 Ry
     Harris-Foulkes estimate   =    -811.20859994 Ry
     estimated scf accuracy    <       7.22042087 Ry

     total magnetization       =     4.00 Bohr mag/cell
     absolute magnetization    =     4.12 Bohr mag/cell

     iteration #  5     ecut=   100.00 Ry     beta= 0.70
     Davidson diagonalization with overlap
     ethr =  1.35E-03,  avg # of iterations =  2.0

     total cpu time spent up to now is       23.1 secs

     total energy              =    -810.68067630 Ry
     Harris-Foulkes estimate   =    -810.72559747 Ry
     estimated scf accuracy    <       0.13164302 Ry

     total magnetization       =     4.00 Bohr mag/cell
     absolute magnetization    =     4.13 Bohr mag/cell

     iteration #  6     ecut=   100.00 Ry     beta= 0.70
     Davidson diagonalization with overlap
     ethr =  6.58E-05,  avg # of iterations =  7.0

     total cpu time spent up to now is       27.8 secs

     total energy              =    -810.62312459 Ry
     Harris-Foulkes estimate   =    -810.73021108 Ry
     estimated scf accuracy    <       0.73272279 Ry

     total magnetization       =     4.00 Bohr mag/cell
     absolute magnetization    =     4.12 Bohr mag/cell

     iteration #  7     ecut=   100.00 Ry     beta= 0.70
     Davidson diagonalization with overlap
     ethr =  6.58E-05,  avg # of iterations =  2.0

     total cpu time spent up to now is       31.2 secs

     total energy              =    -810.67773396 Ry
     Harris-Foulkes estimate   =    -810.68429201 Ry
     estimated scf accuracy    <       0.08486701 Ry

     total magnetization       =     4.00 Bohr mag/cell
     absolute magnetization    =     4.13 Bohr mag/cell

     iteration #  8     ecut=   100.00 Ry     beta= 0.70
     Davidson diagonalization with overlap
     ethr =  4.24E-05,  avg # of iterations =  2.0

     total cpu time spent up to now is       34.5 secs

     total energy              =    -810.67830511 Ry
     Harris-Foulkes estimate   =    -810.68210236 Ry
     estimated scf accuracy    <       0.05640029 Ry

     total magnetization       =     4.00 Bohr mag/cell
     absolute magnetization    =     4.12 Bohr mag/cell

     iteration #  9     ecut=   100.00 Ry     beta= 0.70
     Davidson diagonalization with overlap
     ethr =  2.82E-05,  avg # of iterations =  1.0

     total cpu time spent up to now is       37.6 secs

     total energy              =    -810.68261830 Ry
     Harris-Foulkes estimate   =    -810.68157300 Ry
     estimated scf accuracy    <       0.01812710 Ry

     total magnetization       =     4.00 Bohr mag/cell
     absolute magnetization    =     4.11 Bohr mag/cell

     iteration # 10     ecut=   100.00 Ry     beta= 0.70
     Davidson diagonalization with overlap
     ethr =  9.06E-06,  avg # of iterations =  2.5

     total cpu time spent up to now is       41.0 secs

     total energy              =    -810.68199558 Ry
     Harris-Foulkes estimate   =    -810.68453882 Ry
     estimated scf accuracy    <       0.03602041 Ry

     total magnetization       =     4.00 Bohr mag/cell
     absolute magnetization    =     4.11 Bohr mag/cell

     iteration # 11     ecut=   100.00 Ry     beta= 0.70
     Davidson diagonalization with overlap
     ethr =  9.06E-06,  avg # of iterations =  2.5

     total cpu time spent up to now is       44.3 secs

     total energy              =    -810.68447688 Ry
     Harris-Foulkes estimate   =    -810.68399459 Ry
     estimated scf accuracy    <       0.00129111 Ry

     total magnetization       =     4.00 Bohr mag/cell
     absolute magnetization    =     4.10 Bohr mag/cell

     iteration # 12     ecut=   100.00 Ry     beta= 0.70
     Davidson diagonalization with overlap
     ethr =  6.46E-07,  avg # of iterations =  3.5

     total cpu time spent up to now is       48.0 secs

     total energy              =    -810.68495498 Ry
     Harris-Foulkes estimate   =    -810.68456219 Ry
     estimated scf accuracy    <       0.00037702 Ry

     total magnetization       =     4.00 Bohr mag/cell
     absolute magnetization    =     4.10 Bohr mag/cell

     iteration # 13     ecut=   100.00 Ry     beta= 0.70
     Davidson diagonalization with overlap
     ethr =  1.89E-07,  avg # of iterations =  3.0

     total cpu time spent up to now is       51.6 secs

     total energy              =    -810.68505268 Ry
     Harris-Foulkes estimate   =    -810.68498687 Ry
     estimated scf accuracy    <       0.00010705 Ry

     total magnetization       =     4.00 Bohr mag/cell
     absolute magnetization    =     4.10 Bohr mag/cell

     iteration # 14     ecut=   100.00 Ry     beta= 0.70
     Davidson diagonalization with overlap
     ethr =  5.35E-08,  avg # of iterations =  3.0

     total cpu time spent up to now is       55.0 secs

     total energy              =    -810.68507474 Ry
     Harris-Foulkes estimate   =    -810.68506141 Ry
     estimated scf accuracy    <       0.00003068 Ry

     total magnetization       =     4.00 Bohr mag/cell
     absolute magnetization    =     4.10 Bohr mag/cell

     iteration # 15     ecut=   100.00 Ry     beta= 0.70
     Davidson diagonalization with overlap
     ethr =  1.53E-08,  avg # of iterations =  2.5

     total cpu time spent up to now is       58.4 secs

     total energy              =    -810.68508173 Ry
     Harris-Foulkes estimate   =    -810.68507676 Ry
     estimated scf accuracy    <       0.00001123 Ry

     total magnetization       =     4.00 Bohr mag/cell
     absolute magnetization    =     4.10 Bohr mag/cell

     iteration # 16     ecut=   100.00 Ry     beta= 0.70
     Davidson diagonalization with overlap
     ethr =  5.62E-09,  avg # of iterations =  3.0

     total cpu time spent up to now is       61.9 secs

     total energy              =    -810.68508359 Ry
     Harris-Foulkes estimate   =    -810.68508306 Ry
     estimated scf accuracy    <       0.00000406 Ry

     total magnetization       =     4.00 Bohr mag/cell
     absolute magnetization    =     4.10 Bohr mag/cell

     iteration # 17     ecut=   100.00 Ry     beta= 0.70
     Davidson diagonalization with overlap
     ethr =  2.03E-09,  avg # of iterations =  2.0

     total cpu time spent up to now is       65.1 secs

     total energy              =    -810.68508448 Ry
     Harris-Foulkes estimate   =    -810.68508394 Ry
     estimated scf accuracy    <       0.00000163 Ry

     total magnetization       =     4.00 Bohr mag/cell
     absolute magnetization    =     4.10 Bohr mag/cell

     iteration # 18     ecut=   100.00 Ry     beta= 0.70
     Davidson diagonalization with overlap
     ethr =  8.13E-10,  avg # of iterations =  3.0
 
     Magnetic moment per site:
     atom:    1    charge:    7.5198    magn:    1.2591    constr:    0.0000
     atom:    2    charge:    3.1202    magn:    0.0530    constr:    0.0000
     atom:    3    charge:    3.1192    magn:    0.0537    constr:    0.0000
     atom:    4    charge:    3.1289    magn:    0.0507    constr:    0.0000
     atom:    5    charge:    3.1269    magn:    0.0529    constr:    0.0000
     atom:    6    charge:    2.4102    magn:    0.0143    constr:    0.0000
     atom:    7    charge:    2.4045    magn:    0.0134    constr:    0.0000
     atom:    8    charge:    0.5996    magn:    0.0036    constr:    0.0000
     atom:    9    charge:    0.4556    magn:   -0.0007    constr:    0.0000
     atom:   10    charge:    0.5739    magn:    0.0039    constr:    0.0000
     atom:   11    charge:    0.5986    magn:    0.0038    constr:    0.0000
     atom:   12    charge:    0.4558    magn:   -0.0008    constr:    0.0000
     atom:   13    charge:    0.5997    magn:    0.0036    constr:    0.0000
     atom:   14    charge:    0.4560    magn:   -0.0007    constr:    0.0000
     atom:   15    charge:    0.5922    magn:    0.0032    constr:    0.0000
     atom:   16    charge:    0.4596    magn:   -0.0005    constr:    0.0000
     atom:   17    charge:    0.5928    magn:    0.0033    constr:    0.0000
     atom:   18    charge:    0.4599    magn:   -0.0006    constr:    0.0000
     atom:   19    charge:    0.5943    magn:    0.0032    constr:    0.0000
     atom:   20    charge:    0.4581    magn:   -0.0004    constr:    0.0000
     atom:   21    charge:    0.5913    magn:    0.0033    constr:    0.0000
     atom:   22    charge:    0.4575    magn:   -0.0004    constr:    0.0000
     atom:   23    charge:    0.5983    magn:    0.0036    constr:    0.0000
     atom:   24    charge:    0.4564    magn:   -0.0008    constr:    0.0000
     atom:   25    charge:    0.5741    magn:    0.0038    constr:    0.0000
     atom:   26    charge:    0.5593    magn:   -0.0013    constr:    0.0000
     atom:   27    charge:    0.5593    magn:   -0.0012    constr:    0.0000
     atom:   28    charge:    7.5196    magn:    1.2592    constr:    0.0000
     atom:   29    charge:    3.1202    magn:    0.0530    constr:    0.0000
     atom:   30    charge:    3.1191    magn:    0.0537    constr:    0.0000
     atom:   31    charge:    3.1289    magn:    0.0507    constr:    0.0000
     atom:   32    charge:    3.1268    magn:    0.0529    constr:    0.0000
     atom:   33    charge:    2.4102    magn:    0.0143    constr:    0.0000
     atom:   34    charge:    2.4045    magn:    0.0134    constr:    0.0000
     atom:   35    charge:    0.5996    magn:    0.0036    constr:    0.0000
     atom:   36    charge:    0.4556    magn:   -0.0007    constr:    0.0000
     atom:   37    charge:    0.5739    magn:    0.0039    constr:    0.0000
     atom:   38    charge:    0.5986    magn:    0.0038    constr:    0.0000
     atom:   39    charge:    0.4558    magn:   -0.0008    constr:    0.0000
     atom:   40    charge:    0.5997    magn:    0.0036    constr:    0.0000
     atom:   41    charge:    0.4560    magn:   -0.0007    constr:    0.0000
     atom:   42    charge:    0.5922    magn:    0.0032    constr:    0.0000
     atom:   43    charge:    0.4596    magn:   -0.0005    constr:    0.0000
     atom:   44    charge:    0.5928    magn:    0.0033    constr:    0.0000
     atom:   45    charge:    0.4599    magn:   -0.0006    constr:    0.0000
     atom:   46    charge:    0.5943    magn:    0.0032    constr:    0.0000
     atom:   47    charge:    0.4581    magn:   -0.0004    constr:    0.0000
     atom:   48    charge:    0.5913    magn:    0.0033    constr:    0.0000
     atom:   49    charge:    0.4575    magn:   -0.0004    constr:    0.0000
     atom:   50    charge:    0.5983    magn:    0.0036    constr:    0.0000
     atom:   51    charge:    0.4564    magn:   -0.0008    constr:    0.0000
     atom:   52    charge:    0.5741    magn:    0.0038    constr:    0.0000
     atom:   53    charge:    0.5593    magn:   -0.0013    constr:    0.0000
     atom:   54    charge:    0.5593    magn:   -0.0012    constr:    0.0000

     total cpu time spent up to now is       68.3 secs

     End of self-consistent calculation

 ------ SPIN UP ------------


          k = 0.0000 0.0000 0.0000 ( 45819 PWs)   bands (ev):

   -22.6627 -22.6603 -22.5621 -22.5601 -19.9634 -19.9633 -19.9425 -19.9415
   -19.4058 -19.3920 -19.2807 -19.2732 -15.5800 -15.5128 -15.5077 -15.4803
   -14.6078 -14.5712 -14.5676 -14.5234 -11.7737 -11.7227 -11.7005 -11.6697
   -11.4721 -11.4414 -11.4111 -11.3512  -9.9231  -9.6614  -9.6379  -9.5636
    -8.2611  -7.9886  -7.9538  -7.9428  -7.6996  -7.6733  -7.6189  -7.5383
    -7.2953  -7.1785  -7.0217  -6.9630  -6.9117  -6.7461  -6.7176  -6.6701
    -6.6459  -6.6009  -6.4457  -6.4199  -6.3923  -6.3558  -6.2639  -6.1170
    -6.1111  -6.0396  -5.9788  -5.9313  -5.7187  -5.5561  -5.3639  -5.1754
    -4.5707  -4.5032  -4.3575  -4.2965  -4.2698  -4.2684  -4.0709  -4.0587
    -3.7555  -3.4916  -3.3581  -3.2643  -3.2477  -3.2080  -3.1879  -3.1480
    -3.0603  -2.7331  -2.6333  -2.6136  -2.5107  -2.4869  -2.4703  -2.4118
    -2.3795  -2.3319  -2.3048  -2.2858  -2.2263  -2.1472  -2.1081  -2.0671
    -2.0170  -1.9175  -0.5978  -0.5762  -0.3401  -0.3187   2.0438   2.0599
     2.0984   2.1388   3.0296   3.1420   3.3180   3.4717   3.4788   4.2656
     4.5051   4.5690   4.7427   4.7769   4.9908   5.3649   5.7318   5.7846
     5.8127   6.1254

 ------ SPIN DOWN ----------


          k = 0.0000 0.0000 0.0000 ( 45819 PWs)   bands (ev):

   -22.5615 -22.5590 -22.4607 -22.4586 -19.8355 -19.8354 -19.8115 -19.8104
   -19.3724 -19.3582 -19.2484 -19.2407 -15.5410 -15.4742 -15.4693 -15.4407
   -14.5737 -14.5369 -14.5334 -14.4891 -11.7282 -11.6808 -11.6593 -11.6298
   -11.4453 -11.4140 -11.3840 -11.3244  -9.8931  -9.6336  -9.6092  -9.5311
    -8.1957  -7.9353  -7.8970  -7.8800  -7.6603  -7.6262  -7.5773  -7.5053
    -7.2674  -7.1436  -6.9836  -6.9249  -6.8035  -6.6506  -6.5970  -6.5474
    -6.5302  -6.5207  -6.3402  -6.2957  -6.2671  -6.2419  -6.1976  -6.0812
    -6.0305  -6.0120  -5.9407  -5.9096  -5.6504  -5.4793  -5.2884  -5.0986
    -4.4320  -4.3075  -4.2774  -4.2394  -4.2318  -3.9086  -3.6083  -3.5907
    -3.2464  -3.1438  -3.0652  -3.0202  -2.7984  -2.7455  -2.6787  -2.6592
    -2.6095  -2.4724  -2.4719  -2.3586  -2.3144  -2.2956  -2.2148  -2.1617
    -2.1480  -2.0100  -1.9812  -1.8291  -1.6059  -1.3712  -1.3589  -1.3317
    -1.3126  -1.2016   0.2520   0.2584   0.4492   0.4679   2.1329   2.1629
     2.2151   2.2285   3.1059   3.2191   3.3968   3.5127   3.5530   4.3117
     4.5516   4.6265   4.8010   4.8487   5.0409   5.4108   5.7747   5.8166
     5.8596   6.2010

     the spin up/dw Fermi energies are     0.0859   -0.2222 ev

!    total energy              =    -810.68508471 Ry
     Harris-Foulkes estimate   =    -810.68508460 Ry
     estimated scf accuracy    <       0.00000046 Ry

     The total energy is the sum of the following terms:

     one-electron contribution =   -1216.55286343 Ry
     hartree contribution      =     678.55278772 Ry
     xc contribution           =    -248.39594213 Ry
     ewald contribution        =     -25.36061178 Ry
     Dispersion Correction     =      -0.20316514 Ry
     smearing contrib. (-TS)   =       1.27471005 Ry

     total magnetization       =     4.00 Bohr mag/cell
     absolute magnetization    =     4.10 Bohr mag/cell

     convergence has been achieved in  18 iterations

     Forces acting on atoms (cartesian axes, Ry/au):

     atom    1 type  1   force =     0.00167817   -0.00831979   -0.02474477
     atom    2 type  2   force =    -0.01504646   -0.03655317   -0.02527422
     atom    3 type  2   force =     0.01627764    0.03974419   -0.02006910
     atom    4 type  2   force =    -0.04231002   -0.04442987   -0.01694586
     atom    5 type  2   force =     0.03779774    0.04782164   -0.01489202
     atom    6 type  3   force =    -0.02023731   -0.01655402    0.01629886
     atom    7 type  3   force =    -0.00188827    0.00391065    0.01725343
     atom    8 type  4   force =     0.15796074   -0.07213319    0.17035251
     atom    9 type  5   force =    -0.16203182    0.09373411   -0.20258578
     atom   10 type  4   force =     0.01391389    0.01125138    0.01196568
     atom   11 type  4   force =    -0.23408328   -0.04747912   -0.07997617
     atom   12 type  5   force =     0.25824472    0.08084835    0.05552772
     atom   13 type  4   force =    -0.15337676    0.08563662    0.17213141
     atom   14 type  5   force =     0.17051842   -0.09723447   -0.19363750
     atom   15 type  4   force =    -0.22791787   -0.09350161    0.03091118
     atom   16 type  5   force =     0.25376188    0.11236054   -0.03346621
     atom   17 type  4   force =     0.22243842    0.08446877    0.04666367
     atom   18 type  5   force =    -0.25715472   -0.10841988   -0.03605868
     atom   19 type  4   force =    -0.13055237    0.08630069   -0.17394443
     atom   20 type  5   force =     0.14209417   -0.11256893    0.21337459
     atom   21 type  4   force =     0.15582318   -0.07922229   -0.16637332
     atom   22 type  5   force =    -0.15071491    0.11831265    0.20180941
     atom   23 type  4   force =     0.24669144    0.06767322   -0.07942908
     atom   24 type  5   force =    -0.25601990   -0.09668875    0.05748602
     atom   25 type  4   force =    -0.03532675   -0.01947029    0.00227798
     atom   26 type  4   force =    -0.05027791   -0.07834727    0.03177001
     atom   27 type  4   force =     0.05973793    0.08214468    0.03957468
     atom   28 type  1   force =     0.00167817    0.00831979   -0.02474477
     atom   29 type  2   force =    -0.01504646    0.03655317   -0.02527422
     atom   30 type  2   force =     0.01627764   -0.03974419   -0.02006910
     atom   31 type  2   force =    -0.04231002    0.04442987   -0.01694586
     atom   32 type  2   force =     0.03779774   -0.04782164   -0.01489202
     atom   33 type  3   force =    -0.02023731    0.01655402    0.01629886
     atom   34 type  3   force =    -0.00188827   -0.00391065    0.01725343
     atom   35 type  4   force =     0.15796074    0.07213319    0.17035251
     atom   36 type  5   force =    -0.16203182   -0.09373411   -0.20258578
     atom   37 type  4   force =     0.01391389   -0.01125138    0.01196568
     atom   38 type  4   force =    -0.23408328    0.04747912   -0.07997617
     atom   39 type  5   force =     0.25824472   -0.08084835    0.05552772
     atom   40 type  4   force =    -0.15337676   -0.08563662    0.17213141
     atom   41 type  5   force =     0.17051842    0.09723447   -0.19363750
     atom   42 type  4   force =    -0.22791787    0.09350161    0.03091118
     atom   43 type  5   force =     0.25376188   -0.11236054   -0.03346621
     atom   44 type  4   force =     0.22243842   -0.08446877    0.04666367
     atom   45 type  5   force =    -0.25715472    0.10841988   -0.03605868
     atom   46 type  4   force =    -0.13055237   -0.08630069   -0.17394443
     atom   47 type  5   force =     0.14209417    0.11256893    0.21337459
     atom   48 type  4   force =     0.15582318    0.07922229   -0.16637332
     atom   49 type  5   force =    -0.15071491   -0.11831265    0.20180941
     atom   50 type  4   force =     0.24669144   -0.06767322   -0.07942908
     atom   51 type  5   force =    -0.25601990    0.09668875    0.05748602
     atom   52 type  4   force =    -0.03532675    0.01947029    0.00227798
     atom   53 type  4   force =    -0.05027791    0.07834727    0.03177001
     atom   54 type  4   force =     0.05973793   -0.08214468    0.03957468

     Total force =     1.513993     Total SCF correction =     0.001329


     Computing stress (Cartesian axis) and pressure

          total   stress  (Ry/bohr**3)                   (kbar)     P=       93.61
   0.00109755   0.00000000  -0.00000117          161.46        0.00       -0.17
   0.00000000   0.00027967   0.00000000            0.00       41.14        0.00
  -0.00000117   0.00000000   0.00053187           -0.17        0.00       78.24


     BFGS Geometry Optimization

     number of scf cycles    =   1
     number of bfgs steps    =   0

     enthalpy new            =    -810.6850847105 Ry

     new trust radius        =       0.4043594166 bohr
     new conv_thr            =       0.0000010000 Ry

     new unit-cell volume =   5691.97848 a.u.^3 (   843.46418 Ang^3 )
     density =      1.19263 g/cm^3

CELL_PARAMETERS (angstrom)
   6.424369263   0.000000000  -0.000182555
   0.000000000  12.610961233   0.000000000
  -0.234138868   0.000000000  10.410899020

ATOMIC_POSITIONS (crystal)
Ni            0.4948956350        0.7536084466        0.8381555196
O             0.2399792292        0.3480754432        0.3915982499
O             0.7562399602        0.1347593939        0.3691663402
O             0.9332875156        0.3503526124        0.4964272025
O             0.0696709212        0.1218207069        0.4734329859
N             0.6262178633        0.8422005088        0.6970394736
N             0.3609725406        0.6462652449        0.7159886387
C             0.6014876500        0.9562520066        0.5221740136
H             0.4861073850        0.9901607421        0.4336658099
C             0.7943999705        0.9984754280        0.5343162927
C             0.8971394961        0.9525937663        0.6312808238
H             0.0821594625        0.9812162530        0.6533599577
C             0.3950423557        0.5227185819        0.5529656361
H             0.5091680329        0.4868913501        0.4678266917
C             0.4610691601        0.5992490824        0.6232920817
H             0.6405132400        0.6360478030        0.6061763214
C             0.5304125426        0.8844692342        0.5974034142
H             0.3502692831        0.8484187098        0.5772427958
C             0.8171251992        0.8813466421        0.7047409841
H             0.9257255092        0.8435433914        0.7935898682
C             0.1773754811        0.6011524563        0.7260309347
H             0.0669232668        0.6395993100        0.8110942031
C             0.1033286978        0.5231595368        0.6585090018
H             0.9230406938        0.4884144096        0.6820608199
C             0.2049145520        0.4761772813        0.5647173275
C             0.8738045179        0.0859894301        0.4566363160
C             0.1271298384        0.3896710297        0.4835382956
Ni            0.9948956350        0.2463915534        0.3381555196
O             0.7399792292        0.6519245568        0.8915982499
O             0.2562399602        0.8652406061        0.8691663402
O             0.4332875156        0.6496473876        0.9964272025
O             0.5696709212        0.8781792931        0.9734329859
N             0.1262178633        0.1577994912        0.1970394736
N             0.8609725406        0.3537347551        0.2159886387
C             0.1014876500        0.0437479934        0.0221740136
H            -0.0138926150        0.0098392579        0.9336658099
C             0.2943999705        0.0015245720        0.0343162927
C             0.3971394961        0.0474062337        0.1312808238
H             0.5821594625        0.0187837470        0.1533599577
C             0.8950423557        0.4772814181        0.0529656361
H             1.0091680329        0.5131086499        0.9678266917
C             0.9610691601        0.4007509176        0.1232920817
H             0.1405132400        0.3639521970        0.1061763214
C             0.0304125426        0.1155307658        0.0974034142
H             0.8502692831        0.1515812902        0.0772427958
C             0.3171251992        0.1186533579        0.2047409841
H             0.4257255092        0.1564566086        0.2935898682
C             0.6773754811        0.3988475437        0.2260309347
H             0.5669232668        0.3604006900        0.3110942031
C             0.6033286978        0.4768404632        0.1585090018
H             0.4230406938        0.5115855904        0.1820608199
C             0.7049145520        0.5238227187        0.0647173275
C             0.3738045179        0.9140105699        0.9566363160
C             0.6271298384        0.6103289703        0.9835382956



     Writing output data file ./NiPyC2_P1_angles_vc-relax.save/
     NEW-OLD atomic charge density approx. for the potential
     NEW k-points:
   0.0000000   0.0000000   0.0000000   1.0000000
   0.0000000   0.0000000   0.0000000   1.0000000

     Check: negative core charge=   -0.000171
     extrapolated charge  209.22930, renormalised to  200.00000

     total cpu time spent up to now is       74.7 secs

     Self-consistent Calculation

     iteration #  1     ecut=   100.00 Ry     beta= 0.70
     Davidson diagonalization with overlap
     ethr =  1.00E-06,  avg # of iterations = 19.0

     total cpu time spent up to now is       95.7 secs

     total energy              =    -778.08371589 Ry
     Harris-Foulkes estimate   =    -764.24980514 Ry
     estimated scf accuracy    <      83.38465243 Ry

     total magnetization       =     4.00 Bohr mag/cell
     absolute magnetization    =     4.09 Bohr mag/cell

     iteration #  2     ecut=   100.00 Ry     beta= 0.70
     Davidson diagonalization with overlap
     ethr =  1.00E-02,  avg # of iterations =  5.5

     total cpu time spent up to now is      104.3 secs

     total energy              =    -814.58214557 Ry
     Harris-Foulkes estimate   =    -822.73946488 Ry
     estimated scf accuracy    <      35.40488177 Ry

     total magnetization       =     4.00 Bohr mag/cell
     absolute magnetization    =     4.11 Bohr mag/cell

     iteration #  3     ecut=   100.00 Ry     beta= 0.70
     Davidson diagonalization with overlap
     ethr =  1.00E-02,  avg # of iterations =  2.0

     total cpu time spent up to now is      107.6 secs

     total energy              =    -812.60366213 Ry
     Harris-Foulkes estimate   =    -815.39162172 Ry
     estimated scf accuracy    <      16.26254398 Ry

     total magnetization       =     4.00 Bohr mag/cell
     absolute magnetization    =     4.10 Bohr mag/cell

     iteration #  4     ecut=   100.00 Ry     beta= 0.70
     Davidson diagonalization with overlap
     ethr =  8.13E-03,  avg # of iterations =  1.0

     total cpu time spent up to now is      110.8 secs

     total energy              =    -809.16606057 Ry
     Harris-Foulkes estimate   =    -812.80452631 Ry
     estimated scf accuracy    <      10.79587319 Ry

     total magnetization       =     4.00 Bohr mag/cell
     absolute magnetization    =     4.13 Bohr mag/cell

     iteration #  5     ecut=   100.00 Ry     beta= 0.70
     Davidson diagonalization with overlap
     ethr =  5.40E-03,  avg # of iterations =  4.5

     total cpu time spent up to now is      114.5 secs

     total energy              =    -809.27592703 Ry
     Harris-Foulkes estimate   =    -811.01014958 Ry
     estimated scf accuracy    <      10.39316071 Ry

     total magnetization       =     4.00 Bohr mag/cell
     absolute magnetization    =     4.16 Bohr mag/cell

     iteration #  6     ecut=   100.00 Ry     beta= 0.70
     Davidson diagonalization with overlap
     ethr =  5.20E-03,  avg # of iterations =  1.0

     total cpu time spent up to now is      117.7 secs

     total energy              =    -810.48517402 Ry
     Harris-Foulkes estimate   =    -810.71269811 Ry
     estimated scf accuracy    <       4.23137339 Ry

     total magnetization       =     4.00 Bohr mag/cell
     absolute magnetization    =     4.14 Bohr mag/cell

     iteration #  7     ecut=   100.00 Ry     beta= 0.70
     Davidson diagonalization with overlap
     ethr =  2.12E-03,  avg # of iterations =  1.0

     total cpu time spent up to now is      120.9 secs

     total energy              =    -810.25194264 Ry
     Harris-Foulkes estimate   =    -810.52257697 Ry
     estimated scf accuracy    <       1.92938790 Ry

     total magnetization       =     4.00 Bohr mag/cell
     absolute magnetization    =     4.14 Bohr mag/cell

     iteration #  8     ecut=   100.00 Ry     beta= 0.70
     Davidson diagonalization with overlap
     ethr =  9.65E-04,  avg # of iterations =  3.0

     total cpu time spent up to now is      124.3 secs

     total energy              =    -810.40662780 Ry
     Harris-Foulkes estimate   =    -810.43226680 Ry
     estimated scf accuracy    <       0.53121103 Ry

     total magnetization       =     4.00 Bohr mag/cell
     absolute magnetization    =     4.14 Bohr mag/cell

     iteration #  9     ecut=   100.00 Ry     beta= 0.70
     Davidson diagonalization with overlap
     ethr =  2.66E-04,  avg # of iterations =  1.0

     total cpu time spent up to now is      127.5 secs

     total energy              =    -810.41195838 Ry
     Harris-Foulkes estimate   =    -810.41180511 Ry
     estimated scf accuracy    <       0.22417760 Ry

     total magnetization       =     4.00 Bohr mag/cell
     absolute magnetization    =     4.15 Bohr mag/cell

     iteration # 10     ecut=   100.00 Ry     beta= 0.70
     Davidson diagonalization with overlap
     ethr =  1.12E-04,  avg # of iterations =  1.0

     total cpu time spent up to now is      130.7 secs

     total energy              =    -810.41906630 Ry
     Harris-Foulkes estimate   =    -810.41554535 Ry
     estimated scf accuracy    <       0.38337355 Ry

     total magnetization       =     4.00 Bohr mag/cell
     absolute magnetization    =     4.14 Bohr mag/cell

     iteration # 11     ecut=   100.00 Ry     beta= 0.70
     Davidson diagonalization with overlap
     ethr =  1.12E-04,  avg # of iterations =  2.0

     total cpu time spent up to now is      133.9 secs

     total energy              =    -810.20784866 Ry
     Harris-Foulkes estimate   =    -810.43534858 Ry
     estimated scf accuracy    <       0.89328922 Ry

     total magnetization       =     4.00 Bohr mag/cell
     absolute magnetization    =     4.14 Bohr mag/cell

     iteration # 12     ecut=   100.00 Ry     beta= 0.70
     Davidson diagonalization with overlap
     ethr =  1.12E-04,  avg # of iterations =  2.0

     total cpu time spent up to now is      137.6 secs

     total energy              =    -810.33968555 Ry
     Harris-Foulkes estimate   =    -810.52894663 Ry
     estimated scf accuracy    <       2.15154082 Ry

     total magnetization       =     4.00 Bohr mag/cell
     absolute magnetization    =     4.09 Bohr mag/cell

     iteration # 13     ecut=   100.00 Ry     beta= 0.70
     Davidson diagonalization with overlap
     ethr =  1.12E-04,  avg # of iterations =  2.0

     total cpu time spent up to now is      141.0 secs

     total energy              =    -810.38577355 Ry
     Harris-Foulkes estimate   =    -810.40181392 Ry
     estimated scf accuracy    <       0.15151948 Ry

     total magnetization       =     4.00 Bohr mag/cell
     absolute magnetization    =     4.10 Bohr mag/cell

     iteration # 14     ecut=   100.00 Ry     beta= 0.70
     Davidson diagonalization with overlap
     ethr =  7.58E-05,  avg # of iterations =  1.0

     total cpu time spent up to now is      144.1 secs

     total energy              =    -810.39455395 Ry
     Harris-Foulkes estimate   =    -810.39524620 Ry
     estimated scf accuracy    <       0.00382510 Ry

     total magnetization       =     4.00 Bohr mag/cell
     absolute magnetization    =     4.08 Bohr mag/cell

     iteration # 15     ecut=   100.00 Ry     beta= 0.70
     Davidson diagonalization with overlap
     ethr =  1.91E-06,  avg # of iterations = 10.0

     total cpu time spent up to now is      148.9 secs

     total energy              =    -810.39520919 Ry
     Harris-Foulkes estimate   =    -810.39524458 Ry
     estimated scf accuracy    <       0.00190143 Ry

     total magnetization       =     4.00 Bohr mag/cell
     absolute magnetization    =     4.07 Bohr mag/cell

     iteration # 16     ecut=   100.00 Ry     beta= 0.70
     Davidson diagonalization with overlap
     ethr =  9.51E-07,  avg # of iterations =  1.5

     total cpu time spent up to now is      152.1 secs

     total energy              =    -810.39528133 Ry
     Harris-Foulkes estimate   =    -810.39526907 Ry
     estimated scf accuracy    <       0.00029261 Ry

     total magnetization       =     4.00 Bohr mag/cell
     absolute magnetization    =     4.07 Bohr mag/cell

     iteration # 17     ecut=   100.00 Ry     beta= 0.70
     Davidson diagonalization with overlap
     ethr =  1.46E-07,  avg # of iterations =  2.0

     total cpu time spent up to now is      155.4 secs

     total energy              =    -810.39530525 Ry
     Harris-Foulkes estimate   =    -810.39529508 Ry
     estimated scf accuracy    <       0.00003796 Ry

     total magnetization       =     4.00 Bohr mag/cell
     absolute magnetization    =     4.07 Bohr mag/cell

     iteration # 18     ecut=   100.00 Ry     beta= 0.70
     Davidson diagonalization with overlap
     ethr =  1.90E-08,  avg # of iterations =  3.0

     total cpu time spent up to now is      158.8 secs

     total energy              =    -810.39530915 Ry
     Harris-Foulkes estimate   =    -810.39530814 Ry
     estimated scf accuracy    <       0.00001824 Ry

     total magnetization       =     4.00 Bohr mag/cell
     absolute magnetization    =     4.07 Bohr mag/cell

     iteration # 19     ecut=   100.00 Ry     beta= 0.70
     Davidson diagonalization with overlap
     ethr =  9.12E-09,  avg # of iterations =  2.0

     total cpu time spent up to now is      162.1 secs

     total energy              =    -810.39531161 Ry
     Harris-Foulkes estimate   =    -810.39531086 Ry
     estimated scf accuracy    <       0.00000630 Ry

     total magnetization       =     4.00 Bohr mag/cell
     absolute magnetization    =     4.07 Bohr mag/cell

     iteration # 20     ecut=   100.00 Ry     beta= 0.70
     Davidson diagonalization with overlap
     ethr =  3.15E-09,  avg # of iterations =  2.0

     total cpu time spent up to now is      165.3 secs

     total energy              =    -810.39531239 Ry
     Harris-Foulkes estimate   =    -810.39531222 Ry
     estimated scf accuracy    <       0.00000245 Ry

     total magnetization       =     4.00 Bohr mag/cell
     absolute magnetization    =     4.07 Bohr mag/cell

     iteration # 21     ecut=   100.00 Ry     beta= 0.70
     Davidson diagonalization with overlap
     ethr =  1.23E-09,  avg # of iterations =  2.0
 
     Magnetic moment per site:
     atom:    1    charge:    7.5645    magn:    1.2455    constr:    0.0000
     atom:    2    charge:    3.1662    magn:    0.0489    constr:    0.0000
     atom:    3    charge:    3.1643    magn:    0.0505    constr:    0.0000
     atom:    4    charge:    3.1494    magn:    0.0599    constr:    0.0000
     atom:    5    charge:    3.1508    magn:    0.0603    constr:    0.0000
     atom:    6    charge:    2.5185    magn:    0.0147    constr:    0.0000
     atom:    7    charge:    2.5179    magn:    0.0144    constr:    0.0000
     atom:    8    charge:    0.5842    magn:    0.0039    constr:    0.0000
     atom:    9    charge:    0.3557    magn:    0.0013    constr:    0.0000
     atom:   10    charge:    0.6238    magn:    0.0036    constr:    0.0000
     atom:   11    charge:    0.5841    magn:    0.0036    constr:    0.0000
     atom:   12    charge:    0.3504    magn:    0.0016    constr:    0.0000
     atom:   13    charge:    0.5833    magn:    0.0039    constr:    0.0000
     atom:   14    charge:    0.3545    magn:    0.0014    constr:    0.0000
     atom:   15    charge:    0.5782    magn:    0.0029    constr:    0.0000
     atom:   16    charge:    0.3567    magn:    0.0017    constr:    0.0000
     atom:   17    charge:    0.5784    magn:    0.0030    constr:    0.0000
     atom:   18    charge:    0.3588    magn:    0.0016    constr:    0.0000
     atom:   19    charge:    0.5800    magn:    0.0038    constr:    0.0000
     atom:   20    charge:    0.3593    magn:    0.0020    constr:    0.0000
     atom:   21    charge:    0.5800    magn:    0.0035    constr:    0.0000
     atom:   22    charge:    0.3570    magn:    0.0020    constr:    0.0000
     atom:   23    charge:    0.5793    magn:    0.0035    constr:    0.0000
     atom:   24    charge:    0.3470    magn:    0.0016    constr:    0.0000
     atom:   25    charge:    0.6235    magn:    0.0037    constr:    0.0000
     atom:   26    charge:    0.5614    magn:   -0.0019    constr:    0.0000
     atom:   27    charge:    0.5609    magn:   -0.0018    constr:    0.0000
     atom:   28    charge:    7.5642    magn:    1.2461    constr:    0.0000
     atom:   29    charge:    3.1663    magn:    0.0489    constr:    0.0000
     atom:   30    charge:    3.1643    magn:    0.0505    constr:    0.0000
     atom:   31    charge:    3.1496    magn:    0.0599    constr:    0.0000
     atom:   32    charge:    3.1509    magn:    0.0603    constr:    0.0000
     atom:   33    charge:    2.5185    magn:    0.0147    constr:    0.0000
     atom:   34    charge:    2.5179    magn:    0.0144    constr:    0.0000
     atom:   35    charge:    0.5842    magn:    0.0039    constr:    0.0000
     atom:   36    charge:    0.3557    magn:    0.0013    constr:    0.0000
     atom:   37    charge:    0.6238    magn:    0.0036    constr:    0.0000
     atom:   38    charge:    0.5841    magn:    0.0036    constr:    0.0000
     atom:   39    charge:    0.3504    magn:    0.0016    constr:    0.0000
     atom:   40    charge:    0.5833    magn:    0.0039    constr:    0.0000
     atom:   41    charge:    0.3545    magn:    0.0014    constr:    0.0000
     atom:   42    charge:    0.5782    magn:    0.0029    constr:    0.0000
     atom:   43    charge:    0.3567    magn:    0.0017    constr:    0.0000
     atom:   44    charge:    0.5784    magn:    0.0030    constr:    0.0000
     atom:   45    charge:    0.3588    magn:    0.0016    constr:    0.0000
     atom:   46    charge:    0.5800    magn:    0.0038    constr:    0.0000
     atom:   47    charge:    0.3593    magn:    0.0020    constr:    0.0000
     atom:   48    charge:    0.5800    magn:    0.0035    constr:    0.0000
     atom:   49    charge:    0.3570    magn:    0.0020    constr:    0.0000
     atom:   50    charge:    0.5793    magn:    0.0035    constr:    0.0000
     atom:   51    charge:    0.3470    magn:    0.0016    constr:    0.0000
     atom:   52    charge:    0.6235    magn:    0.0037    constr:    0.0000
     atom:   53    charge:    0.5614    magn:   -0.0019    constr:    0.0000
     atom:   54    charge:    0.5608    magn:   -0.0018    constr:    0.0000

     total cpu time spent up to now is      168.4 secs

     End of self-consistent calculation

 ------ SPIN UP ------------


          k = 0.0000 0.0000 0.0000 ( 45819 PWs)   bands (ev):

   -22.1504 -22.1437 -22.0539 -22.0493 -20.4667 -20.4488 -20.3921 -20.3815
   -19.5915 -19.5903 -19.5686 -19.5676 -16.5938 -16.5350 -16.5348 -16.5109
   -14.5710 -14.5432 -14.5084 -14.4836 -12.6245 -12.5204 -12.4726 -12.4547
   -11.0074 -10.9883 -10.9582 -10.8979  -9.7541  -9.6347  -9.6114  -9.5138
    -8.6081  -8.3375  -8.2971  -8.2638  -8.2076  -8.1706  -7.9425  -7.8439
    -7.2492  -7.1929  -7.1262  -6.9836  -6.9326  -6.7410  -6.6919  -6.5208
    -6.4817  -6.4460  -6.4305  -6.3380  -6.2890  -6.0087  -5.7697  -5.5353
    -5.2851  -5.1305  -5.1228  -5.1218  -4.9955  -4.9186  -4.8587  -4.8046
    -4.7650  -4.6834  -4.5468  -4.4646  -4.0565  -4.0528  -4.0374  -3.8951
    -3.7726  -3.6461  -3.6334  -3.5847  -3.5511  -3.2603  -3.2168  -3.1108
    -3.0640  -3.0055  -2.9849  -2.9358  -2.8829  -2.8819  -2.8516  -2.7942
    -2.7014  -2.6586  -2.6006  -2.5600  -2.5427  -2.5271  -2.5090  -2.4574
    -2.4047  -2.3500  -1.0448  -0.9994  -0.8805  -0.8741   1.3125   1.3646
     1.3863   1.4590   2.9570   3.4897   3.6034   3.6994   3.7175   3.9045
     3.9363   4.0391   4.1146   4.2713   4.3571   4.6156   4.7195   4.9224
     5.0279   5.0721

 ------ SPIN DOWN ----------


          k = 0.0000 0.0000 0.0000 ( 45819 PWs)   bands (ev):

   -22.0471 -22.0398 -21.9518 -21.9469 -20.4340 -20.4154 -20.3591 -20.3478
   -19.4519 -19.4507 -19.4307 -19.4296 -16.5566 -16.4981 -16.4979 -16.4731
   -14.5325 -14.5046 -14.4688 -14.4439 -12.5847 -12.4818 -12.4352 -12.4146
   -10.9720 -10.9528 -10.9235 -10.8636  -9.7143  -9.5947  -9.5711  -9.4754
    -8.5517  -8.3013  -8.2566  -8.2236  -8.1659  -8.1062  -7.8700  -7.7638
    -7.1643  -7.0776  -6.9995  -6.8966  -6.8340  -6.6586  -6.6149  -6.4545
    -6.3509  -6.3372  -6.2868  -6.2546  -6.1600  -5.9077  -5.6756  -5.4482
    -5.2454  -5.0935  -5.0751  -5.0230  -4.9351  -4.8202  -4.7437  -4.7273
    -4.6933  -4.3385  -4.1234  -4.0600  -3.9288  -3.7055  -3.6891  -3.4902
    -3.3657  -3.3246  -3.2866  -3.0952  -3.0596  -3.0386  -2.9930  -2.9618
    -2.8741  -2.7989  -2.7615  -2.6597  -2.6402  -2.5809  -2.5528  -2.4620
    -2.4232  -2.3752  -2.3577  -2.2744  -2.0392  -1.7733  -1.7639  -1.7633
    -1.7523  -1.6424  -0.2280  -0.2105  -0.1040  -0.0667   1.4143   1.4494
     1.5003   1.5459   2.9872   3.5497   3.6585   3.7427   3.7755   3.9392
     4.0013   4.0919   4.1779   4.3161   4.4148   4.6560   4.7765   4.9550
     5.0738   5.0984

     the spin up/dw Fermi energies are    -0.4064   -0.6630 ev

!    total energy              =    -810.39531257 Ry
     Harris-Foulkes estimate   =    -810.39531265 Ry
     estimated scf accuracy    <       0.00000054 Ry

     The total energy is the sum of the following terms:

     one-electron contribution =   -1226.55171608 Ry
     hartree contribution      =     681.23230317 Ry
     xc contribution           =    -246.02473145 Ry
     ewald contribution        =     -20.33936215 Ry
     Dispersion Correction     =      -0.19105113 Ry
     smearing contrib. (-TS)   =       1.47924507 Ry

     total magnetization       =     4.00 Bohr mag/cell
     absolute magnetization    =     4.07 Bohr mag/cell

     convergence has been achieved in  21 iterations

     Forces acting on atoms (cartesian axes, Ry/au):

     atom    1 type  1   force =     0.00132166   -0.00890104   -0.00832348
     atom    2 type  2   force =    -0.07865267    0.01555142    0.06001778
     atom    3 type  2   force =     0.07907905   -0.01943793    0.05919852
     atom    4 type  2   force =     0.12807582    0.02453575   -0.03856577
     atom    5 type  2   force =    -0.12551812   -0.01475863   -0.03789028
     atom    6 type  3   force =     0.00746662   -0.01495885    0.03371088
     atom    7 type  3   force =     0.00857623    0.02310069    0.02488658
     atom    8 type  4   force =    -0.11153096    0.18903351   -0.29112039
     atom    9 type  5   force =     0.07546309   -0.04613865    0.09948174
     atom   10 type  4   force =     0.00023236    0.07098947   -0.06952519
     atom   11 type  4   force =     0.33454180    0.14476756    0.01917465
     atom   12 type  5   force =    -0.13007697   -0.04256315   -0.02097174
     atom   13 type  4   force =     0.10265019   -0.22500547   -0.28789115
     atom   14 type  5   force =    -0.07785002    0.04956723    0.09536389
     atom   15 type  4   force =     0.31929956    0.23217760    0.04686762
     atom   16 type  5   force =    -0.12493007   -0.05283502    0.01794268
     atom   17 type  4   force =    -0.32616054   -0.20707180    0.03405947
     atom   18 type  5   force =     0.12175951    0.05388428    0.02208284
     atom   19 type  4   force =     0.08484239   -0.20408947    0.28917860
     atom   20 type  5   force =    -0.06660298    0.05163633   -0.09268071
     atom   21 type  4   force =    -0.11272526    0.21344515    0.27688913
     atom   22 type  5   force =     0.07251896   -0.04983142   -0.08826342
     atom   23 type  4   force =    -0.32710481   -0.17346050    0.02294128
     atom   24 type  5   force =     0.12878567    0.05367937   -0.02346536
     atom   25 type  4   force =     0.02172789   -0.05768286   -0.06971792
     atom   26 type  4   force =     0.05223331    0.05949578   -0.03309497
     atom   27 type  4   force =    -0.05742170   -0.06189507   -0.04028530
     atom   28 type  1   force =     0.00132166    0.00890104   -0.00832348
     atom   29 type  2   force =    -0.07865267   -0.01555142    0.06001778
     atom   30 type  2   force =     0.07907905    0.01943793    0.05919852
     atom   31 type  2   force =     0.12807582   -0.02453575   -0.03856577
     atom   32 type  2   force =    -0.12551812    0.01475863   -0.03789028
     atom   33 type  3   force =     0.00746662    0.01495885    0.03371088
     atom   34 type  3   force =     0.00857623   -0.02310069    0.02488658
     atom   35 type  4   force =    -0.11153096   -0.18903351   -0.29112039
     atom   36 type  5   force =     0.07546309    0.04613865    0.09948174
     atom   37 type  4   force =     0.00023236   -0.07098947   -0.06952519
     atom   38 type  4   force =     0.33454180   -0.14476756    0.01917465
     atom   39 type  5   force =    -0.13007697    0.04256315   -0.02097174
     atom   40 type  4   force =     0.10265019    0.22500547   -0.28789115
     atom   41 type  5   force =    -0.07785002   -0.04956723    0.09536389
     atom   42 type  4   force =     0.31929956   -0.23217760    0.04686762
     atom   43 type  5   force =    -0.12493007    0.05283502    0.01794268
     atom   44 type  4   force =    -0.32616054    0.20707180    0.03405947
     atom   45 type  5   force =     0.12175951   -0.05388428    0.02208284
     atom   46 type  4   force =     0.08484239    0.20408947    0.28917860
     atom   47 type  5   force =    -0.06660298   -0.05163633   -0.09268071
     atom   48 type  4   force =    -0.11272526   -0.21344515    0.27688913
     atom   49 type  5   force =     0.07251896    0.04983142   -0.08826342
     atom   50 type  4   force =    -0.32710481    0.17346050    0.02294128
     atom   51 type  5   force =     0.12878567   -0.05367937   -0.02346536
     atom   52 type  4   force =     0.02172789    0.05768286   -0.06971792
     atom   53 type  4   force =     0.05223331   -0.05949578   -0.03309497
     atom   54 type  4   force =    -0.05742170    0.06189507   -0.04028530

     Total force =     1.649181     Total SCF correction =     0.001498


     Computing stress (Cartesian axis) and pressure

          total   stress  (Ry/bohr**3)                   (kbar)     P=       19.30
  -0.00007753   0.00000000  -0.00000372          -11.40        0.00       -0.55
   0.00000000   0.00025056   0.00000000            0.00       36.86        0.00
  -0.00000372   0.00000000   0.00022055           -0.55        0.00       32.44


     number of scf cycles    =   2
     number of bfgs steps    =   1

     enthalpy old            =    -810.6850847105 Ry
     enthalpy new            =    -810.3953125682 Ry

     CASE: enthalpy_new > enthalpy_old

     new trust radius        =       0.1805912386 bohr
     new conv_thr            =       0.0000010000 Ry

     new unit-cell volume =   5546.14904 a.u.^3 (   821.85448 Ang^3 )
     density =      1.22399 g/cm^3

CELL_PARAMETERS (angstrom)
   6.329689198   0.000000000  -0.000081812
   0.000000000  12.562640787   0.000000000
  -0.230527099   0.000000000  10.335505606

ATOMIC_POSITIONS (crystal)
Ni            0.4948428591        0.7538024505        0.8388588384
O             0.2407080933        0.3489278030        0.3923166174
O             0.7555005065        0.1338326246        0.3697367627
O             0.9352810560        0.3513886440        0.4969088536
O             0.0679210563        0.1207055849        0.4738562607
N             0.6271461462        0.8425865213        0.6965762122
N             0.3610428787        0.6461740549        0.7154982457
C             0.5939341549        0.9579340341        0.5173320963
H             0.4938843591        0.9879750165        0.4394238914
C             0.7937377698        0.9982130643        0.5339761931
C             0.9081546499        0.9537009013        0.6335539808
H             0.0700411885        0.9793310024        0.6517816972
C             0.4020274448        0.5207216766        0.5480731572
H             0.5014046244        0.4891586982        0.4733304367
C             0.4716816506        0.6014293863        0.6224134954
H             0.6286963975        0.6334277399        0.6071275291
C             0.5199757036        0.8824995613        0.5960770961
H             0.3623165092        0.8509468832        0.5782676893
C             0.8234023543        0.8793342518        0.7096849945
H             0.9188685233        0.8461683139        0.7875251371
C             0.1702701793        0.6029997899        0.7307597518
H             0.0737533358        0.6368404534        0.8053581883
C             0.0918896182        0.5215815086        0.6607666089
H             0.9349381426        0.4906690324        0.6804268989
C             0.2065620640        0.4766312966        0.5646525806
C             0.8761197841        0.0878163598        0.4557333191
C             0.1242989500        0.3877555507        0.4824134673
Ni            0.9948428591        0.2461975495        0.3388588384
O             0.7407080933        0.6510721970        0.8923166174
O             0.2555005065        0.8661673754        0.8697367627
O             0.4352810560        0.6486113560        0.9969088536
O             0.5679210563        0.8792944151        0.9738562607
N             0.1271461462        0.1574134787        0.1965762122
N             0.8610428787        0.3538259451        0.2154982457
C             0.0939341549        0.0420659659        0.0173320963
H            -0.0061156409        0.0120249835        0.9394238914
C             0.2937377698        0.0017869357        0.0339761931
C             0.4081546499        0.0462990987        0.1335539808
H             0.5700411885        0.0206689976        0.1517816972
C             0.9020274448        0.4792783234        0.0480731572
H             1.0014046244        0.5108413018        0.9733304367
C             0.9716816506        0.3985706137        0.1224134954
H             0.1286963975        0.3665722601        0.1071275291
C             0.0199757036        0.1175004387        0.0960770961
H             0.8623165092        0.1490531168        0.0782676893
C             0.3234023543        0.1206657482        0.2096849945
H             0.4188685233        0.1538316861        0.2875251371
C             0.6702701793        0.3970002101        0.2307597518
H             0.5737533358        0.3631595466        0.3053581883
C             0.5918896182        0.4784184914        0.1607666089
H             0.4349381426        0.5093309676        0.1804268989
C             0.7065620640        0.5233687034        0.0646525806
C             0.3761197841        0.9121836402        0.9557333191
C             0.6242989500        0.6122444493        0.9824134673



     Writing output data file ./NiPyC2_P1_angles_vc-relax.save/
     NEW-OLD atomic charge density approx. for the potential
     NEW k-points:
   0.0000000   0.0000000   0.0000000   1.0000000
   0.0000000   0.0000000   0.0000000   1.0000000

     Check: negative core charge=   -0.000157
     extrapolated charge  194.74128, renormalised to  200.00000

     total cpu time spent up to now is      174.9 secs

     Self-consistent Calculation

     iteration #  1     ecut=   100.00 Ry     beta= 0.70
     Davidson diagonalization with overlap
     c_bands:  2 eigenvalues not converged
     ethr =  1.00E-06,  avg # of iterations = 20.0

     total cpu time spent up to now is      191.4 secs

     total energy              =    -807.92654293 Ry
     Harris-Foulkes estimate   =    -840.66976099 Ry
     estimated scf accuracy    <       7.86513193 Ry

     total magnetization       =     4.00 Bohr mag/cell
     absolute magnetization    =     4.18 Bohr mag/cell

     iteration #  2     ecut=   100.00 Ry     beta= 0.70
     Davidson diagonalization with overlap
     ethr =  3.93E-03,  avg # of iterations =  3.5

     total cpu time spent up to now is      195.5 secs

     total energy              =    -808.67088878 Ry
     Harris-Foulkes estimate   =    -814.93788989 Ry
     estimated scf accuracy    <      61.86750923 Ry

     total magnetization       =     4.00 Bohr mag/cell
     absolute magnetization    =     4.23 Bohr mag/cell

     iteration #  3     ecut=   100.00 Ry     beta= 0.70
     Davidson diagonalization with overlap
     ethr =  3.93E-03,  avg # of iterations =  2.5

     total cpu time spent up to now is      199.0 secs

     total energy              =    -811.14096944 Ry
     Harris-Foulkes estimate   =    -811.32813534 Ry
     estimated scf accuracy    <       1.32423836 Ry

     total magnetization       =     4.00 Bohr mag/cell
     absolute magnetization    =     4.17 Bohr mag/cell

     iteration #  4     ecut=   100.00 Ry     beta= 0.70
     Davidson diagonalization with overlap
     ethr =  6.62E-04,  avg # of iterations =  1.0

     total cpu time spent up to now is      202.2 secs

     total energy              =    -811.11058946 Ry
     Harris-Foulkes estimate   =    -811.20458193 Ry
     estimated scf accuracy    <       1.26818982 Ry

     total magnetization       =     4.00 Bohr mag/cell
     absolute magnetization    =     4.16 Bohr mag/cell

     iteration #  5     ecut=   100.00 Ry     beta= 0.70
     Davidson diagonalization with overlap
     ethr =  6.34E-04,  avg # of iterations =  1.0

     total cpu time spent up to now is      205.3 secs

     total energy              =    -811.10839815 Ry
     Harris-Foulkes estimate   =    -811.13649705 Ry
     estimated scf accuracy    <       0.29686582 Ry

     total magnetization       =     4.00 Bohr mag/cell
     absolute magnetization    =     4.15 Bohr mag/cell

     iteration #  6     ecut=   100.00 Ry     beta= 0.70
     Davidson diagonalization with overlap
     ethr =  1.48E-04,  avg # of iterations =  1.0

     total cpu time spent up to now is      208.5 secs

     total energy              =    -811.10905902 Ry
     Harris-Foulkes estimate   =    -811.11755006 Ry
     estimated scf accuracy    <       0.10155021 Ry

     total magnetization       =     4.00 Bohr mag/cell
     absolute magnetization    =     4.14 Bohr mag/cell

     iteration #  7     ecut=   100.00 Ry     beta= 0.70
     Davidson diagonalization with overlap
     ethr =  5.08E-05,  avg # of iterations =  3.5

     total cpu time spent up to now is      211.9 secs

     total energy              =    -811.11236740 Ry
     Harris-Foulkes estimate   =    -811.11352027 Ry
     estimated scf accuracy    <       0.02708236 Ry

     total magnetization       =     4.00 Bohr mag/cell
     absolute magnetization    =     4.12 Bohr mag/cell

     iteration #  8     ecut=   100.00 Ry     beta= 0.70
     Davidson diagonalization with overlap
     ethr =  1.35E-05,  avg # of iterations =  3.0

     total cpu time spent up to now is      215.4 secs

     total energy              =    -811.11239442 Ry
     Harris-Foulkes estimate   =    -811.11327143 Ry
     estimated scf accuracy    <       0.01378932 Ry

     total magnetization       =     4.00 Bohr mag/cell
     absolute magnetization    =     4.11 Bohr mag/cell

     iteration #  9     ecut=   100.00 Ry     beta= 0.70
     Davidson diagonalization with overlap
     ethr =  6.89E-06,  avg # of iterations =  2.5

     total cpu time spent up to now is      218.7 secs

     total energy              =    -811.11257910 Ry
     Harris-Foulkes estimate   =    -811.11287072 Ry
     estimated scf accuracy    <       0.00391655 Ry

     total magnetization       =     4.00 Bohr mag/cell
     absolute magnetization    =     4.10 Bohr mag/cell

     iteration # 10     ecut=   100.00 Ry     beta= 0.70
     Davidson diagonalization with overlap
     ethr =  1.96E-06,  avg # of iterations =  3.0

     total cpu time spent up to now is      222.0 secs

     total energy              =    -811.11264589 Ry
     Harris-Foulkes estimate   =    -811.11276862 Ry
     estimated scf accuracy    <       0.00086432 Ry

     total magnetization       =     4.00 Bohr mag/cell
     absolute magnetization    =     4.10 Bohr mag/cell

     iteration # 11     ecut=   100.00 Ry     beta= 0.70
     Davidson diagonalization with overlap
     ethr =  4.32E-07,  avg # of iterations =  3.0

     total cpu time spent up to now is      225.6 secs

     total energy              =    -811.11275715 Ry
     Harris-Foulkes estimate   =    -811.11275603 Ry
     estimated scf accuracy    <       0.00002659 Ry

     total magnetization       =     4.00 Bohr mag/cell
     absolute magnetization    =     4.09 Bohr mag/cell

     iteration # 12     ecut=   100.00 Ry     beta= 0.70
     Davidson diagonalization with overlap
     ethr =  1.33E-08,  avg # of iterations =  3.5

     total cpu time spent up to now is      231.1 secs

     total energy              =    -811.11276882 Ry
     Harris-Foulkes estimate   =    -811.11276809 Ry
     estimated scf accuracy    <       0.00001347 Ry

     total magnetization       =     4.00 Bohr mag/cell
     absolute magnetization    =     4.08 Bohr mag/cell

     iteration # 13     ecut=   100.00 Ry     beta= 0.70
     Davidson diagonalization with overlap
     ethr =  6.73E-09,  avg # of iterations =  1.5

     total cpu time spent up to now is      234.3 secs

     total energy              =    -811.11276923 Ry
     Harris-Foulkes estimate   =    -811.11276967 Ry
     estimated scf accuracy    <       0.00000672 Ry

     total magnetization       =     4.00 Bohr mag/cell
     absolute magnetization    =     4.08 Bohr mag/cell

     iteration # 14     ecut=   100.00 Ry     beta= 0.70
     Davidson diagonalization with overlap
     ethr =  3.36E-09,  avg # of iterations =  1.5

     total cpu time spent up to now is      237.5 secs

     total energy              =    -811.11276928 Ry
     Harris-Foulkes estimate   =    -811.11276972 Ry
     estimated scf accuracy    <       0.00000389 Ry

     total magnetization       =     4.00 Bohr mag/cell
     absolute magnetization    =     4.08 Bohr mag/cell

     iteration # 15     ecut=   100.00 Ry     beta= 0.70
     Davidson diagonalization with overlap
     ethr =  1.95E-09,  avg # of iterations =  1.5

     total cpu time spent up to now is      240.8 secs

     total energy              =    -811.11276943 Ry
     Harris-Foulkes estimate   =    -811.11276950 Ry
     estimated scf accuracy    <       0.00000153 Ry

     total magnetization       =     4.00 Bohr mag/cell
     absolute magnetization    =     4.08 Bohr mag/cell

     iteration # 16     ecut=   100.00 Ry     beta= 0.70
     Davidson diagonalization with overlap
     ethr =  7.67E-10,  avg # of iterations =  2.0
 
     Magnetic moment per site:
     atom:    1    charge:    7.5381    magn:    1.2594    constr:    0.0000
     atom:    2    charge:    3.1419    magn:    0.0523    constr:    0.0000
     atom:    3    charge:    3.1405    magn:    0.0535    constr:    0.0000
     atom:    4    charge:    3.1393    magn:    0.0558    constr:    0.0000
     atom:    5    charge:    3.1390    magn:    0.0573    constr:    0.0000
     atom:    6    charge:    2.4602    magn:    0.0143    constr:    0.0000
     atom:    7    charge:    2.4564    magn:    0.0138    constr:    0.0000
     atom:    8    charge:    0.5972    magn:    0.0038    constr:    0.0000
     atom:    9    charge:    0.4112    magn:   -0.0003    constr:    0.0000
     atom:   10    charge:    0.5962    magn:    0.0038    constr:    0.0000
     atom:   11    charge:    0.5972    magn:    0.0038    constr:    0.0000
     atom:   12    charge:    0.4086    magn:   -0.0003    constr:    0.0000
     atom:   13    charge:    0.5969    magn:    0.0038    constr:    0.0000
     atom:   14    charge:    0.4110    magn:   -0.0003    constr:    0.0000
     atom:   15    charge:    0.5908    magn:    0.0030    constr:    0.0000
     atom:   16    charge:    0.4134    magn:   -0.0002    constr:    0.0000
     atom:   17    charge:    0.5911    magn:    0.0030    constr:    0.0000
     atom:   18    charge:    0.4147    magn:   -0.0003    constr:    0.0000
     atom:   19    charge:    0.5923    magn:    0.0033    constr:    0.0000
     atom:   20    charge:    0.4149    magn:    0.0002    constr:    0.0000
     atom:   21    charge:    0.5911    magn:    0.0033    constr:    0.0000
     atom:   22    charge:    0.4133    magn:    0.0001    constr:    0.0000
     atom:   23    charge:    0.5957    magn:    0.0036    constr:    0.0000
     atom:   24    charge:    0.4069    magn:   -0.0003    constr:    0.0000
     atom:   25    charge:    0.5965    magn:    0.0037    constr:    0.0000
     atom:   26    charge:    0.5608    magn:   -0.0017    constr:    0.0000
     atom:   27    charge:    0.5607    magn:   -0.0016    constr:    0.0000
     atom:   28    charge:    7.5385    magn:    1.2593    constr:    0.0000
     atom:   29    charge:    3.1419    magn:    0.0523    constr:    0.0000
     atom:   30    charge:    3.1405    magn:    0.0535    constr:    0.0000
     atom:   31    charge:    3.1394    magn:    0.0558    constr:    0.0000
     atom:   32    charge:    3.1391    magn:    0.0573    constr:    0.0000
     atom:   33    charge:    2.4602    magn:    0.0143    constr:    0.0000
     atom:   34    charge:    2.4564    magn:    0.0138    constr:    0.0000
     atom:   35    charge:    0.5972    magn:    0.0038    constr:    0.0000
     atom:   36    charge:    0.4112    magn:   -0.0003    constr:    0.0000
     atom:   37    charge:    0.5962    magn:    0.0038    constr:    0.0000
     atom:   38    charge:    0.5972    magn:    0.0038    constr:    0.0000
     atom:   39    charge:    0.4086    magn:   -0.0003    constr:    0.0000
     atom:   40    charge:    0.5969    magn:    0.0038    constr:    0.0000
     atom:   41    charge:    0.4110    magn:   -0.0003    constr:    0.0000
     atom:   42    charge:    0.5908    magn:    0.0030    constr:    0.0000
     atom:   43    charge:    0.4134    magn:   -0.0002    constr:    0.0000
     atom:   44    charge:    0.5911    magn:    0.0030    constr:    0.0000
     atom:   45    charge:    0.4147    magn:   -0.0003    constr:    0.0000
     atom:   46    charge:    0.5923    magn:    0.0033    constr:    0.0000
     atom:   47    charge:    0.4149    magn:    0.0002    constr:    0.0000
     atom:   48    charge:    0.5911    magn:    0.0033    constr:    0.0000
     atom:   49    charge:    0.4133    magn:    0.0001    constr:    0.0000
     atom:   50    charge:    0.5957    magn:    0.0036    constr:    0.0000
     atom:   51    charge:    0.4069    magn:   -0.0003    constr:    0.0000
     atom:   52    charge:    0.5965    magn:    0.0037    constr:    0.0000
     atom:   53    charge:    0.5608    magn:   -0.0017    constr:    0.0000
     atom:   54    charge:    0.5607    magn:   -0.0016    constr:    0.0000

     total cpu time spent up to now is      243.9 secs

     End of self-consistent calculation

 ------ SPIN UP ------------


          k = 0.0000 0.0000 0.0000 ( 45819 PWs)   bands (ev):

   -22.4442 -22.4408 -22.3480 -22.3454 -19.8259 -19.8168 -19.8029 -19.8026
   -19.8021 -19.7951 -19.7305 -19.7220 -15.9607 -15.8971 -15.8938 -15.8698
   -14.4929 -14.4605 -14.4581 -14.4228 -12.0621 -11.9556 -11.9381 -11.9214
   -11.1504 -11.1298 -11.1030 -11.0452  -9.6903  -9.4933  -9.4545  -9.3860
    -8.4677  -8.0683  -7.9978  -7.9325  -7.8656  -7.8459  -7.7772  -7.7676
    -7.0570  -6.9366  -6.8944  -6.7889  -6.7505  -6.6204  -6.5020  -6.4841
    -6.4114  -6.4067  -6.2801  -6.2126  -6.1718  -6.1167  -6.0558  -6.0328
    -5.9727  -5.8402  -5.6896  -5.5704  -5.4817  -5.3654  -5.3600  -5.3434
    -4.7992  -4.7231  -4.3296  -4.3278  -3.9126  -3.7573  -3.7309  -3.7059
    -3.6740  -3.6578  -3.6054  -3.5253  -3.4726  -3.4431  -3.4037  -3.3797
    -3.2710  -2.9609  -2.8550  -2.7459  -2.7209  -2.7064  -2.6852  -2.6290
    -2.5413  -2.5133  -2.4725  -2.4628  -2.3884  -2.3707  -2.3364  -2.2346
    -2.1922  -2.1003  -0.8342  -0.7956  -0.6015  -0.5924   1.7595   1.7718
     1.8041   1.8628   3.2439   3.3290   3.3718   3.5289   3.6954   4.0461
     4.2782   4.3419   4.4832   4.5352   4.7712   5.1194   5.4185   5.5093
     5.5600   5.6739

 ------ SPIN DOWN ----------


          k = 0.0000 0.0000 0.0000 ( 45819 PWs)   bands (ev):

   -22.3393 -22.3357 -22.2437 -22.2410 -19.7859 -19.7704 -19.6987 -19.6926
   -19.6745 -19.6740 -19.6661 -19.6630 -15.9217 -15.8587 -15.8552 -15.8303
   -14.4567 -14.4240 -14.4215 -14.3861 -12.0169 -11.9138 -11.8938 -11.8803
   -11.1199 -11.0995 -11.0734 -11.0161  -9.6579  -9.4620  -9.4244  -9.3544
    -8.4042  -7.9979  -7.9526  -7.8798  -7.8029  -7.8020  -7.7306  -7.7048
    -6.9357  -6.8439  -6.7537  -6.6819  -6.6591  -6.5018  -6.4026  -6.3799
    -6.3139  -6.2700  -6.2009  -6.1382  -6.1025  -6.0865  -6.0146  -6.0075
    -5.9123  -5.7605  -5.6527  -5.5456  -5.4252  -5.3462  -5.3268  -5.2802
    -4.6585  -4.1421  -3.8752  -3.8498  -3.6914  -3.6411  -3.6370  -3.5995
    -3.5561  -3.3358  -3.3116  -3.3032  -2.9832  -2.9826  -2.8935  -2.8831
    -2.8084  -2.6793  -2.5898  -2.5779  -2.5457  -2.4991  -2.3531  -2.2944
    -2.2811  -2.1807  -2.1516  -2.0161  -1.8323  -1.5808  -1.5755  -1.5582
    -1.5430  -1.4300   0.0082   0.0165   0.1792   0.2061   1.8588   1.8607
     1.9206   1.9518   3.3020   3.3703   3.4427   3.6015   3.7707   4.0873
     4.3233   4.3966   4.5525   4.5877   4.8180   5.1605   5.4673   5.5359
     5.6077   5.7276

     the spin up/dw Fermi energies are    -0.1757   -0.4624 ev

!    total energy              =    -811.11276960 Ry
     Harris-Foulkes estimate   =    -811.11276964 Ry
     estimated scf accuracy    <       0.00000046 Ry

     The total energy is the sum of the following terms:

     one-electron contribution =   -1219.22241932 Ry
     hartree contribution      =     678.93287863 Ry
     xc contribution           =    -247.19786929 Ry
     ewald contribution        =     -24.85409933 Ry
     Dispersion Correction     =      -0.19675668 Ry
     smearing contrib. (-TS)   =       1.42549641 Ry

     total magnetization       =     4.00 Bohr mag/cell
     absolute magnetization    =     4.08 Bohr mag/cell

     convergence has been achieved in  16 iterations

     Forces acting on atoms (cartesian axes, Ry/au):

     atom    1 type  1   force =     0.00169226   -0.00879351   -0.01900072
     atom    2 type  2   force =    -0.04793451   -0.01364438    0.01538905
     atom    3 type  2   force =     0.04871134    0.01304769    0.01803823
     atom    4 type  2   force =     0.04903466   -0.00955098   -0.03071509
     atom    5 type  2   force =    -0.04821091    0.01728407   -0.02884233
     atom    6 type  3   force =    -0.00532850   -0.00984732    0.01967707
     atom    7 type  3   force =    -0.00065488    0.00559543    0.01618556
     atom    8 type  4   force =    -0.00970288    0.07498666   -0.09916712
     atom    9 type  5   force =    -0.00985114   -0.00061236   -0.00263670
     atom   10 type  4   force =     0.00655344    0.03095603   -0.01712311
     atom   11 type  4   force =     0.10507641    0.07135393   -0.02549883
     atom   12 type  5   force =     0.00019303   -0.00417795    0.00802339
     atom   13 type  4   force =     0.01430392   -0.08115223   -0.09286803
     atom   14 type  5   force =     0.00984331    0.00229675   -0.00122829
     atom   15 type  4   force =     0.09997912    0.08236150    0.01995662
     atom   16 type  5   force =     0.00184206    0.00296492    0.00239551
     atom   17 type  4   force =    -0.10664022   -0.07982642    0.02375149
     atom   18 type  5   force =    -0.00610963   -0.00077042    0.00440282
     atom   19 type  4   force =     0.01176955   -0.07900549    0.09912665
     atom   20 type  5   force =     0.00366179   -0.00475197    0.01170326
     atom   21 type  4   force =    -0.01273640    0.08944551    0.09611636
     atom   22 type  5   force =    -0.00219715    0.00718204    0.00918689
     atom   23 type  4   force =    -0.09700103   -0.08098606   -0.02100119
     atom   24 type  5   force =     0.00223255    0.00796083    0.00586446
     atom   25 type  4   force =    -0.00967855   -0.02981456   -0.02342008
     atom   26 type  4   force =     0.00424888   -0.01447890    0.00494954
     atom   27 type  4   force =    -0.00309651    0.01529669    0.00673460
     atom   28 type  1   force =     0.00169226    0.00879351   -0.01900072
     atom   29 type  2   force =    -0.04793451    0.01364438    0.01538905
[...]
     atom   31 type  2   force =    -0.00062222   -0.00032071    0.00015746
     atom   32 type  2   force =     0.00019716   -0.00068096   -0.00059809
     atom   33 type  3   force =     0.00020160   -0.00125681    0.00027553
     atom   34 type  3   force =     0.00046896   -0.00006929   -0.00056609
     atom   35 type  4   force =    -0.00033510    0.00023536    0.00033781
     atom   36 type  5   force =    -0.00008491   -0.00114656    0.00043110
     atom   37 type  4   force =     0.00068301   -0.00092275    0.00027793
     atom   38 type  4   force =    -0.00018731   -0.00056531    0.00030252
     atom   39 type  5   force =    -0.00070180   -0.00002164   -0.00075253
     atom   40 type  4   force =    -0.00089220    0.00047513   -0.00062230
     atom   41 type  5   force =     0.00061737    0.00143291    0.00012834
     atom   42 type  4   force =    -0.00051499   -0.00003537   -0.00010911
     atom   43 type  5   force =     0.00052427   -0.00057715    0.00002409
     atom   44 type  4   force =    -0.00074383   -0.00039291   -0.00077515
     atom   45 type  5   force =    -0.00050139    0.00005802    0.00040490
     atom   46 type  4   force =    -0.00006897    0.00135315    0.00030529
     atom   47 type  5   force =     0.00045363    0.00085708    0.00004545
     atom   48 type  4   force =     0.00039738   -0.00125874   -0.00004231
     atom   49 type  5   force =    -0.00034119   -0.00156569    0.00033161
     atom   50 type  4   force =     0.00041709    0.00030671   -0.00044665
     atom   51 type  5   force =    -0.00015275   -0.00014371   -0.00002080
     atom   52 type  4   force =    -0.00016462    0.00008635   -0.00006828
     atom   53 type  4   force =     0.00043430   -0.00034632   -0.00043613
     atom   54 type  4   force =    -0.00043742   -0.00080689    0.00029258

     Total force =     0.007611     Total SCF correction =     0.000166


     Computing stress (Cartesian axis) and pressure

          total   stress  (Ry/bohr**3)                   (kbar)     P=        0.21
   0.00000143   0.00000000  -0.00000541            0.21        0.00       -0.80
   0.00000000   0.00000285   0.00000000            0.00        0.42        0.00
  -0.00000541   0.00000000   0.00000005           -0.80        0.00        0.01


     number of scf cycles    =  47
     number of bfgs steps    =  45

     enthalpy old            =    -811.3022513013 Ry
     enthalpy new            =    -811.3023658950 Ry

     CASE: enthalpy_new < enthalpy_old

     new trust radius        =       0.0092612261 bohr
     new conv_thr            =       0.0000000115 Ry

     new unit-cell volume =   5506.99065 a.u.^3 (   816.05181 Ang^3 )
     density =      1.23269 g/cm^3

CELL_PARAMETERS (angstrom)
   6.769137782   0.000000000   0.026348577
   0.000000000  10.751821305   0.000000000
  -0.199825814   0.000000000  11.211719213

ATOMIC_POSITIONS (crystal)
Ni            0.4991494642        0.7531996413        0.8360134071
O             0.2240913967        0.3576116550        0.3765038417
O             0.7710968779        0.1333979373        0.3655085521
O             0.9428569211        0.3676924439        0.4669863393
O             0.0539301944        0.1160018830        0.4579430520
N             0.6134678544        0.8568134236        0.7126703210
N             0.3830694169        0.6390269977        0.7206020475
C             0.5849171914        0.9662510092        0.5281654007
H             0.4930608363        0.9969609183        0.4536064649
C             0.7852377022        0.9977104361        0.5373625606
C             0.8994664009        0.9563790964        0.6344593490
H             0.0552457925        0.9794941345        0.6447096165
C             0.4101649799        0.5202481832        0.5421927643
H             0.5004189788        0.4865510550        0.4697709006
C             0.4935883278        0.5956645370        0.6305334341
H             0.6488069799        0.6223652599        0.6305781381
C             0.5024918797        0.8951625824        0.6188338318
H             0.3471981240        0.8686063670        0.6182548819
C             0.8073209969        0.8850944510        0.7216402454
H             0.8866055258        0.8498393878        0.7996073491
C             0.1899205128        0.6096213503        0.7294626676
H             0.1116052271        0.6485705323        0.8049251344
C             0.0973433521        0.5332487457        0.6448123687
H             0.9420852084        0.5096153512        0.6541289828
C             0.2101189199        0.4889570352        0.5503052962
C             0.8721632956        0.0818186898        0.4504503369
C             0.1229776423        0.4045888800        0.4624027158
Ni            0.9991494642        0.2468003587        0.3360134071
O             0.7240913967        0.6423883450        0.8765038417
O             0.2710968779        0.8666020627        0.8655085521
O             0.4428569211        0.6323075561        0.9669863393
O             0.5539301944        0.8839981170        0.9579430520
N             0.1134678544        0.1431865764        0.2126703210
N             0.8830694169        0.3609730023        0.2206020475
C             0.0849171914        0.0337489908        0.0281654007
H            -0.0069391637        0.0030390817        0.9536064649
C             0.2852377022        0.0022895639        0.0373625606
C             0.3994664009        0.0436209036        0.1344593490
H             0.5552457925        0.0205058655        0.1447096165
C             0.9101649799        0.4797518168        0.0421927643
H             1.0004189788        0.5134489450        0.9697709006
C             0.9935883278        0.4043354630        0.1305334341
H             0.1488069799        0.3776347401        0.1305781381
C             0.0024918797        0.1048374176        0.1188338318
H             0.8471981240        0.1313936330        0.1182548819
C             0.3073209969        0.1149055490        0.2216402454
H             0.3866055258        0.1501606122        0.2996073491
C             0.6899205128        0.3903786497        0.2294626676
H             0.6116052271        0.3514294677        0.3049251344
C             0.5973433521        0.4667512543        0.1448123687
H             0.4420852084        0.4903846488        0.1541289828
C             0.7101189199        0.5110429648        0.0503052962
C             0.3721632956        0.9181813102        0.9504503369
C             0.6229776423        0.5954111200        0.9624027158



     Writing output data file ./NiPyC2_P1_angles_vc-relax.save/
     NEW-OLD atomic charge density approx. for the potential
     NEW k-points:
   0.0000000   0.0000000   0.0000000   1.0000000
   0.0000000   0.0000000   0.0000000   1.0000000

     Check: negative core charge=   -0.000189
     extrapolated charge  200.10270, renormalised to  200.00000

     total cpu time spent up to now is     2817.4 secs

     Self-consistent Calculation

     iteration #  1     ecut=   100.00 Ry     beta= 0.70
     Davidson diagonalization with overlap
     ethr =  1.00E-06,  avg # of iterations =  4.0

     total cpu time spent up to now is     2825.0 secs

     total energy              =    -811.30005091 Ry
     Harris-Foulkes estimate   =    -810.71631793 Ry
     estimated scf accuracy    <       0.00576014 Ry

     total magnetization       =     4.00 Bohr mag/cell
     absolute magnetization    =     4.15 Bohr mag/cell

     iteration #  2     ecut=   100.00 Ry     beta= 0.70
     Davidson diagonalization with overlap
     ethr =  2.88E-06,  avg # of iterations =  2.0

     total cpu time spent up to now is     2828.8 secs

     total energy              =    -811.30022279 Ry
     Harris-Foulkes estimate   =    -811.30597775 Ry
     estimated scf accuracy    <       0.05810235 Ry

     total magnetization       =     4.00 Bohr mag/cell
     absolute magnetization    =     4.15 Bohr mag/cell

     iteration #  3     ecut=   100.00 Ry     beta= 0.70
     Davidson diagonalization with overlap
     ethr =  2.88E-06,  avg # of iterations =  2.0

     total cpu time spent up to now is     2832.2 secs

     total energy              =    -811.30248252 Ry
     Harris-Foulkes estimate   =    -811.30258735 Ry
     estimated scf accuracy    <       0.00169262 Ry

     total magnetization       =     4.00 Bohr mag/cell
     absolute magnetization    =     4.15 Bohr mag/cell

     iteration #  4     ecut=   100.00 Ry     beta= 0.70
     Davidson diagonalization with overlap
     ethr =  8.46E-07,  avg # of iterations =  1.0

     total cpu time spent up to now is     2835.4 secs

     total energy              =    -811.30243256 Ry
     Harris-Foulkes estimate   =    -811.30250626 Ry
     estimated scf accuracy    <       0.00090156 Ry

     total magnetization       =     4.00 Bohr mag/cell
     absolute magnetization    =     4.15 Bohr mag/cell

     iteration #  5     ecut=   100.00 Ry     beta= 0.70
     Davidson diagonalization with overlap
     ethr =  4.51E-07,  avg # of iterations =  1.0

     total cpu time spent up to now is     2838.6 secs

     total energy              =    -811.30244589 Ry
     Harris-Foulkes estimate   =    -811.30245464 Ry
     estimated scf accuracy    <       0.00015657 Ry

     total magnetization       =     4.00 Bohr mag/cell
     absolute magnetization    =     4.15 Bohr mag/cell

     iteration #  6     ecut=   100.00 Ry     beta= 0.70
     Davidson diagonalization with overlap
     ethr =  7.83E-08,  avg # of iterations =  1.0

     total cpu time spent up to now is     2841.7 secs

     total energy              =    -811.30244267 Ry
     Harris-Foulkes estimate   =    -811.30245003 Ry
     estimated scf accuracy    <       0.00009596 Ry

     total magnetization       =     4.00 Bohr mag/cell
     absolute magnetization    =     4.15 Bohr mag/cell

     iteration #  7     ecut=   100.00 Ry     beta= 0.70
     Davidson diagonalization with overlap
     ethr =  4.80E-08,  avg # of iterations =  1.0

     total cpu time spent up to now is     2844.9 secs

     total energy              =    -811.30244376 Ry
     Harris-Foulkes estimate   =    -811.30244527 Ry
     estimated scf accuracy    <       0.00001488 Ry

     total magnetization       =     4.00 Bohr mag/cell
     absolute magnetization    =     4.15 Bohr mag/cell

     iteration #  8     ecut=   100.00 Ry     beta= 0.70
     Davidson diagonalization with overlap
     ethr =  7.44E-09,  avg # of iterations =  2.0

     total cpu time spent up to now is     2848.2 secs

     total energy              =    -811.30244401 Ry
     Harris-Foulkes estimate   =    -811.30244426 Ry
     estimated scf accuracy    <       0.00000361 Ry

     total magnetization       =     4.00 Bohr mag/cell
     absolute magnetization    =     4.15 Bohr mag/cell

     iteration #  9     ecut=   100.00 Ry     beta= 0.70
     Davidson diagonalization with overlap
     ethr =  1.81E-09,  avg # of iterations =  3.0

     total cpu time spent up to now is     2851.7 secs

     total energy              =    -811.30244403 Ry
     Harris-Foulkes estimate   =    -811.30244416 Ry
     estimated scf accuracy    <       0.00000123 Ry

     total magnetization       =     4.00 Bohr mag/cell
     absolute magnetization    =     4.15 Bohr mag/cell

     iteration # 10     ecut=   100.00 Ry     beta= 0.70
     Davidson diagonalization with overlap
     ethr =  6.13E-10,  avg # of iterations =  2.0

     total cpu time spent up to now is     2855.0 secs

     total energy              =    -811.30244407 Ry
     Harris-Foulkes estimate   =    -811.30244409 Ry
     estimated scf accuracy    <       0.00000013 Ry

     total magnetization       =     4.00 Bohr mag/cell
     absolute magnetization    =     4.15 Bohr mag/cell

     iteration # 11     ecut=   100.00 Ry     beta= 0.70
     Davidson diagonalization with overlap
     ethr =  6.50E-11,  avg # of iterations =  3.0

     total cpu time spent up to now is     2859.0 secs

     total energy              =    -811.30244408 Ry
     Harris-Foulkes estimate   =    -811.30244409 Ry
     estimated scf accuracy    <       0.00000001 Ry

     total magnetization       =     4.00 Bohr mag/cell
     absolute magnetization    =     4.15 Bohr mag/cell

     iteration # 12     ecut=   100.00 Ry     beta= 0.70
     Davidson diagonalization with overlap
     ethr =  7.23E-12,  avg # of iterations =  3.0
 
     Magnetic moment per site:
     atom:    1    charge:    7.5187    magn:    1.0425    constr:    0.0000
     atom:    2    charge:    2.7838    magn:    0.0611    constr:    0.0000
     atom:    3    charge:    3.0128    magn:    0.0668    constr:    0.0000
     atom:    4    charge:    2.2223    magn:    0.0502    constr:    0.0000
     atom:    5    charge:    2.8335    magn:    0.0645    constr:    0.0000
     atom:    6    charge:    2.1565    magn:    0.0161    constr:    0.0000
     atom:    7    charge:    2.3209    magn:    0.0175    constr:    0.0000
     atom:    8    charge:    0.5477    magn:    0.0049    constr:    0.0000
     atom:    9    charge:    0.3392    magn:   -0.0011    constr:    0.0000
     atom:   10    charge:    0.5805    magn:    0.0040    constr:    0.0000
     atom:   11    charge:    0.5739    magn:    0.0046    constr:    0.0000
     atom:   12    charge:    0.3527    magn:   -0.0014    constr:    0.0000
     atom:   13    charge:    0.5865    magn:    0.0050    constr:    0.0000
     atom:   14    charge:    0.4221    magn:   -0.0013    constr:    0.0000
     atom:   15    charge:    0.5548    magn:    0.0046    constr:    0.0000
     atom:   16    charge:    0.3521    magn:   -0.0006    constr:    0.0000
     atom:   17    charge:    0.4897    magn:    0.0052    constr:    0.0000
     atom:   18    charge:    0.2162    magn:   -0.0002    constr:    0.0000
     atom:   19    charge:    0.5472    magn:    0.0042    constr:    0.0000
     atom:   20    charge:    0.3341    magn:   -0.0007    constr:    0.0000
     atom:   21    charge:    0.5558    magn:    0.0036    constr:    0.0000
     atom:   22    charge:    0.2972    magn:   -0.0007    constr:    0.0000
     atom:   23    charge:    0.5213    magn:    0.0050    constr:    0.0000
     atom:   24    charge:    0.2472    magn:   -0.0008    constr:    0.0000
     atom:   25    charge:    0.5446    magn:    0.0041    constr:    0.0000
     atom:   26    charge:    0.5595    magn:   -0.0015    constr:    0.0000
     atom:   27    charge:    0.4819    magn:   -0.0012    constr:    0.0000
     atom:   28    charge:    7.5187    magn:    1.0425    constr:    0.0000
     atom:   29    charge:    2.7838    magn:    0.0611    constr:    0.0000
     atom:   30    charge:    3.0128    magn:    0.0668    constr:    0.0000
     atom:   31    charge:    2.2223    magn:    0.0502    constr:    0.0000
     atom:   32    charge:    2.8335    magn:    0.0645    constr:    0.0000
     atom:   33    charge:    2.1565    magn:    0.0161    constr:    0.0000
     atom:   34    charge:    2.3209    magn:    0.0175    constr:    0.0000
     atom:   35    charge:    0.5477    magn:    0.0049    constr:    0.0000
     atom:   36    charge:    0.3392    magn:   -0.0011    constr:    0.0000
     atom:   37    charge:    0.5805    magn:    0.0040    constr:    0.0000
     atom:   38    charge:    0.5739    magn:    0.0046    constr:    0.0000
     atom:   39    charge:    0.3527    magn:   -0.0014    constr:    0.0000
     atom:   40    charge:    0.5865    magn:    0.0050    constr:    0.0000
     atom:   41    charge:    0.4221    magn:   -0.0013    constr:    0.0000
     atom:   42    charge:    0.5548    magn:    0.0046    constr:    0.0000
     atom:   43    charge:    0.3521    magn:   -0.0006    constr:    0.0000
     atom:   44    charge:    0.4897    magn:    0.0052    constr:    0.0000
     atom:   45    charge:    0.2162    magn:   -0.0002    constr:    0.0000
     atom:   46    charge:    0.5472    magn:    0.0042    constr:    0.0000
     atom:   47    charge:    0.3341    magn:   -0.0007    constr:    0.0000
     atom:   48    charge:    0.5558    magn:    0.0036    constr:    0.0000
     atom:   49    charge:    0.2972    magn:   -0.0007    constr:    0.0000
     atom:   50    charge:    0.5213    magn:    0.0050    constr:    0.0000
     atom:   51    charge:    0.2472    magn:   -0.0008    constr:    0.0000
     atom:   52    charge:    0.5446    magn:    0.0041    constr:    0.0000
     atom:   53    charge:    0.5595    magn:   -0.0015    constr:    0.0000
     atom:   54    charge:    0.4819    magn:   -0.0012    constr:    0.0000

     total cpu time spent up to now is     2862.6 secs

     End of self-consistent calculation

 ------ SPIN UP ------------


          k = 0.0000 0.0000 0.0000 ( 45819 PWs)   bands (ev):

   -22.7583 -22.7556 -22.5873 -22.5859 -19.7511 -19.7508 -19.7371 -19.7369
   -19.4769 -19.4562 -19.3054 -19.2972 -15.6627 -15.5611 -15.5598 -15.5315
   -14.3839 -14.3616 -14.3285 -14.2936 -11.9990 -11.7956 -11.7768 -11.7742
   -11.2284 -11.1972 -11.1865 -11.0986  -9.5410  -9.2497  -9.2395  -9.1888
    -8.4872  -7.9838  -7.9077  -7.8107  -7.7784  -7.7485  -7.7042  -7.5682
    -7.0227  -6.9227  -6.8842  -6.8340  -6.7935  -6.6951  -6.6070  -6.6019
    -6.6005  -6.5305  -6.3933  -6.3237  -6.3087  -6.2820  -6.2000  -6.0856
    -5.9900  -5.7560  -5.6268  -5.6071  -5.4985  -5.4074  -5.3796  -5.1149
    -4.8716  -4.7730  -4.4354  -4.3274  -4.2247  -4.1469  -4.1406  -3.9481
    -3.9140  -3.7294  -3.6859  -3.6320  -3.4798  -3.3528  -3.3148  -3.2868
    -3.1692  -2.8050  -2.7387  -2.6584  -2.6466  -2.5721  -2.4909  -2.4660
    -2.4241  -2.3395  -2.3197  -2.2448  -2.2385  -2.2007  -2.1294  -2.0996
    -1.9996  -1.8995  -0.1820  -0.1761   0.1727   0.2286   1.6556   1.7412
     1.8013   1.8696   2.8886   2.9294   3.1558   3.2153   3.3121   4.0853
     4.2919   4.3346   4.4026   4.5117   4.9402   5.2773   5.3803   5.5075
     5.6190   5.6706

 ------ SPIN DOWN ----------


          k = 0.0000 0.0000 0.0000 ( 45819 PWs)   bands (ev):

   -22.6236 -22.6208 -22.4531 -22.4515 -19.5775 -19.5772 -19.5642 -19.5639
   -19.4287 -19.4077 -19.2576 -19.2489 -15.6111 -15.5096 -15.5087 -15.4789
   -14.3329 -14.3104 -14.2775 -14.2422 -11.9399 -11.7402 -11.7222 -11.7147
   -11.1884 -11.1578 -11.1464 -11.0601  -9.5050  -9.2142  -9.2077  -9.1535
    -8.4059  -7.8850  -7.8317  -7.7207  -7.7017  -7.6530  -7.6295  -7.5135
    -6.8735  -6.7702  -6.7227  -6.7059  -6.6555  -6.5825  -6.5140  -6.5007
    -6.4869  -6.4045  -6.3375  -6.2690  -6.2534  -6.2004  -6.0920  -5.9661
    -5.8847  -5.7185  -5.5810  -5.5795  -5.4680  -5.3180  -5.2993  -5.0044
    -4.7133  -4.3025  -4.2640  -4.2071  -4.1053  -4.0999  -3.8599  -3.7138
    -3.5916  -3.4946  -3.4262  -3.3137  -3.0223  -2.9277  -2.8865  -2.8707
    -2.7970  -2.5405  -2.4441  -2.3958  -2.3850  -2.3501  -2.2027  -2.1874
    -2.1427  -2.1123  -1.8734  -1.8316  -1.7865  -1.5181  -1.4828  -1.4797
    -1.4341  -1.3432   0.5554   0.5611   0.8227   0.8950   1.7741   1.9001
     1.9385   1.9940   3.0026   3.0439   3.2706   3.3322   3.3591   4.1528
     4.3791   4.4134   4.4703   4.6137   5.0186   5.3371   5.4324   5.5437
     5.6630   5.7162

     the spin up/dw Fermi energies are     0.1392   -0.3026 ev

!    total energy              =    -811.30244406 Ry
     Harris-Foulkes estimate   =    -811.30244408 Ry
     estimated scf accuracy    <          8.4E-09 Ry

     The total energy is the sum of the following terms:

     one-electron contribution =   -1261.39496876 Ry
     hartree contribution      =     700.09942400 Ry
     xc contribution           =    -246.81975121 Ry
     ewald contribution        =      -4.36559847 Ry
     Dispersion Correction     =      -0.20581187 Ry
     smearing contrib. (-TS)   =       1.38426224 Ry

     total magnetization       =     4.00 Bohr mag/cell
     absolute magnetization    =     4.15 Bohr mag/cell

     convergence has been achieved in  12 iterations
