/apps/openmpi/3.1_intel-19/bin/mpiexec
starting QE Mon Jun 1 13:00:57 PDT 2020

     Program PWSCF v.6.5 starts on  1Jun2020 at 13: 0:58 

     This program is part of the open-source Quantum ESPRESSO suite
     for quantum simulation of materials; please cite
         "P. Giannozzi et al., J. Phys.:Condens. Matter 21 395502 (2009);
         "P. Giannozzi et al., J. Phys.:Condens. Matter 29 465901 (2017);
          URL http://www.quantum-espresso.org", 
     in publications or presentations arising from this work. More details at
     http://www.quantum-espresso.org/quote

     Parallel version (MPI), running on    32 processors

     MPI processes distributed on     1 nodes
     K-points division:     npool     =       2
     R & G space division:  proc/nbgrp/npool/nimage =      16
     Reading input from QE_input_scripts/pw.NiPyC2_relax_meta_functionalized_OH.in
Warning: card &CELL ignored
Warning: card CELL_DYNAMICS = 'BFGS' ignored
Warning: card CELL_DOFREE = 'XYZ' ignored
Warning: card / ignored

     Current dimensions of program PWSCF are:
     Max number of different atomic species (ntypx) = 10
     Max number of k-points (npk) =  40000
     Max angular momentum in pseudopotentials (lmaxx) =  3

     -------------------------------------------------
     Parameters for Dispersion (Grimme-D2) Correction:
     -------------------------------------------------
       atom      VdW radius       C_6     

        Ni2        2.952        374.666
        Ni1        2.952        374.666
        O          2.536         24.284
        N          2.640         42.670
        C          2.744         60.710
        H          1.892          4.857

     gamma-point specific algorithms are used

     Subspace diagonalization in iterative solution of the eigenvalue problem:
     a serial algorithm will be used

 
     Parallelization info
     --------------------
     sticks:   dense  smooth     PW     G-vecs:    dense   smooth      PW
     Min        1113    1113    277                91686    91686   11456
     Max        1116    1116    280                91692    91692   11460
     Sum       17829   17829   4453              1467017  1467017  183325
 


     bravais-lattice index     =            0
     lattice parameter (alat)  =      23.6322  a.u.
     unit-cell volume          =   10858.6228 (a.u.)^3
     number of atoms/cell      =          116
     number of atomic types    =            6
     number of electrons       =       448.00 (up: 228.00, down: 220.00)
     number of Kohn-Sham states=          274
     kinetic-energy cutoff     =     100.0000  Ry
     charge density cutoff     =     400.0000  Ry
     convergence threshold     =      1.0E-06
     mixing beta               =       0.7000
     number of iterations used =            8  local-TF  mixing
     Exchange-correlation= PBESOL
                           (   1   4  10   8   0   0   0)
     nstep                     =          200


     celldm(1)=  23.632159  celldm(2)=   0.000000  celldm(3)=   0.000000
     celldm(4)=   0.000000  celldm(5)=   0.000000  celldm(6)=   0.000000

     crystal axes: (cart. coord. in units of alat)
               a(1) = (   1.000000   0.000000   0.000000 )  
               a(2) = (   0.000000   1.001423   0.000000 )  
               a(3) = (  -0.018199   0.000000   0.821574 )  

     reciprocal axes: (cart. coord. in units 2 pi/alat)
               b(1) = (  1.000000  0.000000  0.022152 )  
               b(2) = (  0.000000  0.998579  0.000000 )  
               b(3) = (  0.000000  0.000000  1.217175 )  


     PseudoPot. # 1 for Ni read from file:
     ../structural_relaxation/pseudo/Ni.pbesol-n-nc.UPF
     MD5 check sum: 623411631e0c2eb7c0b2b9815547d2d9
     Pseudo is Norm-conserving + core correction, Zval = 10.0
     Generated using "atomic" code by A. Dal Corso v.6.5
     Using radial grid of 1195 points,  2 beta functions with: 
                l(1) =   1
                l(2) =   2

     PseudoPot. # 2 for Ni read from file:
     ../structural_relaxation/pseudo/Ni.pbesol-n-nc.UPF
     MD5 check sum: 623411631e0c2eb7c0b2b9815547d2d9
     Pseudo is Norm-conserving + core correction, Zval = 10.0
     Generated using "atomic" code by A. Dal Corso v.6.5
     Using radial grid of 1195 points,  2 beta functions with: 
                l(1) =   1
                l(2) =   2

     PseudoPot. # 3 for O  read from file:
     ../structural_relaxation/pseudo/O.pbesol-nc.UPF
     MD5 check sum: 73d10e7e91dbfcbe8a7e362101007f84
     Pseudo is Norm-conserving, Zval =  6.0
     Generated using "atomic" code by A. Dal Corso v.6.5
     Using radial grid of 1095 points,  1 beta functions with: 
                l(1) =   1

     PseudoPot. # 4 for N  read from file:
     ../structural_relaxation/pseudo/N.pbesol-nc.UPF
     MD5 check sum: e18cc5e4b8a5600c1a19b30c2cab1ca0
     Pseudo is Norm-conserving, Zval =  5.0
     Generated using "atomic" code by A. Dal Corso v.6.5
     Using radial grid of 1085 points,  1 beta functions with: 
                l(1) =   1

     PseudoPot. # 5 for C  read from file:
     ../structural_relaxation/pseudo/C.pbesol-nc.UPF
     MD5 check sum: ce26087537ded160c8d400e183a8bf42
     Pseudo is Norm-conserving, Zval =  4.0
     Generated using "atomic" code by A. Dal Corso v.6.5
     Using radial grid of 1073 points,  1 beta functions with: 
                l(1) =   1

     PseudoPot. # 6 for H  read from file:
     ../structural_relaxation/pseudo/H.pbesol-n-nc.UPF
     MD5 check sum: 7995ef24074557c85b430109caaacc09
     Pseudo is Norm-conserving, Zval =  1.0
     Generated using "atomic" code by A. Dal Corso v.6.5
     Using radial grid of  929 points,  0 beta functions with: 

     atomic species   valence    mass     pseudopotential
        Ni2           10.00    58.69340     Ni( 1.00)
        Ni1           10.00    58.69340     Ni( 1.00)
        O              6.00    15.99940     O ( 1.00)
        N              5.00    14.00670     N ( 1.00)
        C              4.00    12.01070     C ( 1.00)
        H              1.00     1.00794     H ( 1.00)

     Starting magnetic structure 
     atomic species   magnetization
        Ni2          0.250
        Ni1          0.250
        O            0.000
        N            0.000
        C            0.000
        H            0.000

     No symmetry found



   Cartesian axes

     site n.     atom                  positions (alat units)
         1           Ni2 tau(   1) = (   0.2317814   0.7525556   0.6871039  )
         2           Ni1 tau(   2) = (   0.4937992   0.2483520   0.2786599  )
         3           O   tau(   3) = (   0.1158100   0.3481839   0.3145586  )
         4           O   tau(   4) = (   0.3551690   0.6519036   0.7240468  )
         5           O   tau(   5) = (   0.3707656   0.1477170   0.3098797  )
         6           O   tau(   6) = (   0.1091506   0.8535652   0.7199135  )
         7           O   tau(   7) = (   0.4642788   0.3566669   0.3968154  )
         8           O   tau(   8) = (   0.2033039   0.6423280   0.8050417  )
         9           O   tau(   9) = (   0.0200847   0.1353504   0.3952413  )
        10           O   tau(  10) = (   0.2588616   0.8639860   0.8046490  )
        11           N   tau(  11) = (   0.2956096   0.8524646   0.5790685  )
        12           N   tau(  12) = (   0.0569790   0.1490689   0.1692870  )
        13           N   tau(  13) = (   0.1736962   0.6512356   0.5798983  )
        14           N   tau(  14) = (   0.4350238   0.3514275   0.1709211  )
        15           C   tau(  15) = (   0.2787122   0.9714307   0.4288486  )
        16           C   tau(  16) = (   0.0379730   0.0311503   0.0183277  )
        17           H   tau(  17) = (   0.2290596   1.0009978   0.3640502  )
        18           H   tau(  18) = (   0.4693669   0.0026958   0.7751545  )
        19           C   tau(  19) = (   0.3806882   0.0117868   0.4489838  )
        20           C   tau(  20) = (   0.1394042   0.9891499   0.0379124  )
        21           C   tau(  21) = (   0.4400787   0.9715829   0.5343281  )
        22           C   tau(  22) = (   0.1997920   0.0283934   0.1231482  )
        23           H   tau(  23) = (   0.2791988   1.0000865   0.1418054  )
        24           C   tau(  24) = (   0.1986011   0.5304580   0.4324635  )
        25           C   tau(  25) = (   0.4580372   0.4720800   0.0229252  )
        26           H   tau(  26) = (   0.2505234   0.5016080   0.3691185  )
        27           C   tau(  27) = (   0.2341003   0.6142040   0.4982314  )
        28           C   tau(  28) = (   0.4948422   0.3892302   0.0892369  )
        29           H   tau(  29) = (   0.3118554   0.6514319   0.4868937  )
        30           H   tau(  30) = (   0.0732386   0.3533532   0.0780726  )
        31           C   tau(  31) = (   0.2384981   0.8904717   0.4955761  )
        32           C   tau(  32) = (  -0.0008282   0.1123917   0.0856467  )
        33           H   tau(  33) = (   0.1594426   0.8563401   0.4835457  )
        34           H   tau(  34) = (   0.4206861   0.1479423   0.0738480  )
        35           C   tau(  35) = (   0.3947360   0.8906489   0.5977380  )
        36           C   tau(  36) = (   0.1557890   0.1097029   0.1871645  )
        37           H   tau(  37) = (   0.4386511   0.8563902   0.6644572  )
        38           H   tau(  38) = (   0.2006191   0.1433067   0.2536997  )
        39           C   tau(  39) = (   0.0756247   0.6098498   0.5975737  )
        40           C   tau(  40) = (   0.3367152   0.3921904   0.1884642  )
        41           H   tau(  41) = (   0.0290492   0.6438591   0.6626884  )
        42           H   tau(  42) = (   0.2907535   0.3580349   0.2539083  )
        43           C   tau(  43) = (   0.0350715   0.5258264   0.5351012  )
        44           C   tau(  44) = (   0.2948780   0.4753867   0.1254988  )
        45           H   tau(  45) = (   0.4564147   0.4939330   0.5533319  )
        46           C   tau(  46) = (   0.0981522   0.4849593   0.4519611  )
        47           C   tau(  47) = (   0.3569104   0.5163900   0.0416029  )
        48           C   tau(  48) = (   0.4248178   0.0994604   0.3833638  )
        49           C   tau(  49) = (   0.1639424   0.9010006   0.7933713  )
        50           C   tau(  50) = (   0.0588120   0.3950355   0.3866953  )
        51           C   tau(  51) = (   0.2984059   0.6050320   0.7961934  )
        52           Ni2 tau(  52) = (   0.7317814   0.7525556   0.6871039  )
        53           Ni1 tau(  53) = (   0.9937992   0.2483520   0.2786599  )
        54           O   tau(  54) = (   0.6158110   0.3481839   0.3145586  )
        55           O   tau(  55) = (   0.8551690   0.6519036   0.7240468  )
        56           O   tau(  56) = (   0.8707656   0.1477170   0.3098797  )
        57           O   tau(  57) = (   0.6091506   0.8535652   0.7199135  )
        58           O   tau(  58) = (   0.9642788   0.3566669   0.3968154  )
        59           O   tau(  59) = (   0.7033039   0.6423280   0.8050417  )
        60           O   tau(  60) = (   0.5200847   0.1353504   0.3952413  )
        61           O   tau(  61) = (   0.7588616   0.8639860   0.8046490  )
        62           N   tau(  62) = (   0.7956096   0.8524646   0.5790685  )
        63           N   tau(  63) = (   0.5569790   0.1490689   0.1692870  )
        64           N   tau(  64) = (   0.6736972   0.6512356   0.5798983  )
        65           N   tau(  65) = (   0.9350238   0.3514275   0.1709211  )
        66           C   tau(  66) = (   0.7787122   0.9714307   0.4288486  )
        67           C   tau(  67) = (   0.5379730   0.0311503   0.0183277  )
        68           H   tau(  68) = (   0.7290596   1.0009978   0.3640502  )
        69           C   tau(  69) = (   0.8806882   0.0117868   0.4489838  )
        70           C   tau(  70) = (   0.6394042   0.9891499   0.0379124  )
        71           C   tau(  71) = (   0.9400787   0.9715829   0.5343281  )
        72           C   tau(  72) = (   0.6997920   0.0283934   0.1231482  )
        73           C   tau(  73) = (   0.6986021   0.5304580   0.4324635  )
        74           C   tau(  74) = (   0.9580382   0.4720800   0.0229252  )
        75           H   tau(  75) = (   0.4913416   0.5011092   0.7809458  )
        76           C   tau(  76) = (   0.7341003   0.6142040   0.4982314  )
        77           C   tau(  77) = (   0.9948422   0.3892302   0.0892369  )
        78           H   tau(  78) = (   0.8118554   0.6514319   0.4868937  )
        79           H   tau(  79) = (   0.5732386   0.3533532   0.0780726  )
        80           C   tau(  80) = (   0.7384981   0.8904717   0.4955761  )
        81           C   tau(  81) = (   0.4991718   0.1123917   0.0856467  )
        82           H   tau(  82) = (   0.6594426   0.8563401   0.4835457  )
        83           H   tau(  83) = (   0.9206861   0.1479423   0.0738480  )
        84           C   tau(  84) = (   0.8947360   0.8906489   0.5977380  )
        85           C   tau(  85) = (   0.6557880   0.1097029   0.1871645  )
        86           H   tau(  86) = (   0.9386511   0.8563902   0.6644572  )
        87           H   tau(  87) = (   0.7006201   0.1433067   0.2536997  )
        88           C   tau(  88) = (   0.5756247   0.6098498   0.5975737  )
        89           C   tau(  89) = (   0.8367152   0.3921904   0.1884642  )
        90           H   tau(  90) = (   0.5290492   0.6438591   0.6626884  )
        91           H   tau(  91) = (   0.7907535   0.3580349   0.2539083  )
        92           C   tau(  92) = (   0.5350715   0.5258264   0.5351012  )
        93           C   tau(  93) = (   0.7948780   0.4753867   0.1254988  )
        94           H   tau(  94) = (   0.7157623   0.5059201   0.1439924  )
        95           C   tau(  95) = (   0.5981522   0.4849593   0.4519611  )
        96           C   tau(  96) = (   0.8569104   0.5163900   0.0416029  )
        97           C   tau(  97) = (   0.9248178   0.0994604   0.3833638  )
        98           C   tau(  98) = (   0.6639424   0.9010006   0.7933713  )
        99           C   tau(  99) = (   0.5588110   0.3950355   0.3866953  )
       100           C   tau( 100) = (   0.7984059   0.6050320   0.7961934  )
       101           O   tau( 101) = (   0.5393362   0.0062279   0.5564679  )
       102           H   tau( 102) = (   0.5811489   0.9795162   0.6152145  )
       103           O   tau( 103) = (   0.9589316   0.9977511   0.7576993  )
       104           H   tau( 104) = (   0.8887471   0.0255814   0.7432289  )
       105           O   tau( 105) = (   0.9369769   0.4860669   0.5558073  )
       106           H   tau( 106) = (   0.8927090   0.5136461   0.6129979  )
       107           O   tau( 107) = (   0.1964508   0.5142019   0.1465886  )
       108           H   tau( 108) = (   0.1528660   0.4865636   0.2042729  )
       109           O   tau( 109) = (   0.0393362   0.0062279   0.5564679  )
       110           H   tau( 110) = (   0.0811489   0.9795162   0.6152145  )
       111           O   tau( 111) = (   0.7987240   0.9924746   0.1445921  )
       112           H   tau( 112) = (   0.8412028   0.0184703   0.2032000  )
       113           O   tau( 113) = (   0.7613722   0.4952750   0.3519731  )
       114           H   tau( 114) = (   0.8309421   0.5260397   0.3376670  )
       115           O   tau( 115) = (   0.0024461   0.5076896   0.7638611  )
       116           H   tau( 116) = (   0.0725058   0.4778602   0.7499700  )

     number of k points=     1  Marzari-Vanderbilt smearing, width (Ry)=  0.2000
                       cart. coord. in units 2pi/alat
        k(    1) = (   0.0000000   0.0000000   0.0000000), wk =   1.0000000

     Dense  grid:   733509 G-vectors     FFT dimensions: ( 160, 160, 125)

     Estimated max dynamical RAM per process >     334.55 MB

     Estimated total dynamical RAM >      10.45 GB
     Generating pointlists ...
     new r_m :   0.0654 (alat units)  1.5454 (a.u.) for type    1
     new r_m :   0.0661 (alat units)  1.5624 (a.u.) for type    2
     new r_m :   0.0319 (alat units)  0.7545 (a.u.) for type    3
     new r_m :   0.0445 (alat units)  1.0514 (a.u.) for type    4
     new r_m :   0.0358 (alat units)  0.8461 (a.u.) for type    5
     new r_m :   0.0319 (alat units)  0.7545 (a.u.) for type    6

     Check: negative core charge=   -0.000145

     Initial potential from superposition of free atoms

     starting charge  447.99668, renormalised to  448.00000
     Starting wfcs are  388 randomized atomic wfcs

     total cpu time spent up to now is       45.0 secs

     Self-consistent Calculation

     iteration #  1     ecut=   100.00 Ry     beta= 0.70
     Davidson diagonalization with overlap
     ethr =  1.00E-02,  avg # of iterations =  4.0

     total cpu time spent up to now is      154.9 secs

     total energy              =   -1875.07377634 Ry
     Harris-Foulkes estimate   =   -1882.79340810 Ry
     estimated scf accuracy    <      19.35722475 Ry

     total magnetization       =     8.00 Bohr mag/cell
     absolute magnetization    =     8.62 Bohr mag/cell

     iteration #  2     ecut=   100.00 Ry     beta= 0.70
     Davidson diagonalization with overlap
     ethr =  4.32E-03,  avg # of iterations =  2.0

     total cpu time spent up to now is      224.9 secs

     total energy              =   -1877.98264189 Ry
     Harris-Foulkes estimate   =   -1881.66211153 Ry
     estimated scf accuracy    <      18.59482659 Ry

     total magnetization       =     8.00 Bohr mag/cell
     absolute magnetization    =     8.32 Bohr mag/cell

     iteration #  3     ecut=   100.00 Ry     beta= 0.70
     Davidson diagonalization with overlap
     ethr =  4.15E-03,  avg # of iterations =  1.0

     total cpu time spent up to now is      286.1 secs

     total energy              =   -1878.01554584 Ry
     Harris-Foulkes estimate   =   -1878.81844582 Ry
     estimated scf accuracy    <       2.40728671 Ry

     total magnetization       =     8.00 Bohr mag/cell
     absolute magnetization    =     8.19 Bohr mag/cell

     iteration #  4     ecut=   100.00 Ry     beta= 0.70
     Davidson diagonalization with overlap
     ethr =  5.37E-04,  avg # of iterations =  6.5

     total cpu time spent up to now is      366.3 secs

     total energy              =   -1877.89858261 Ry
     Harris-Foulkes estimate   =   -1878.68462337 Ry
     estimated scf accuracy    <       5.94672493 Ry

     total magnetization       =     8.00 Bohr mag/cell
     absolute magnetization    =     8.26 Bohr mag/cell

     iteration #  5     ecut=   100.00 Ry     beta= 0.70
     Davidson diagonalization with overlap
     ethr =  5.37E-04,  avg # of iterations =  2.0

     total cpu time spent up to now is      428.5 secs

     total energy              =   -1878.27466087 Ry
     Harris-Foulkes estimate   =   -1878.34047352 Ry
     estimated scf accuracy    <       0.57138957 Ry

     total magnetization       =     8.00 Bohr mag/cell
     absolute magnetization    =     8.25 Bohr mag/cell

     iteration #  6     ecut=   100.00 Ry     beta= 0.70
     Davidson diagonalization with overlap
     ethr =  1.28E-04,  avg # of iterations =  1.5

     total cpu time spent up to now is      489.9 secs

     total energy              =   -1878.25746994 Ry
     Harris-Foulkes estimate   =   -1878.32773685 Ry
     estimated scf accuracy    <       1.21051124 Ry

     total magnetization       =     8.00 Bohr mag/cell
     absolute magnetization    =     8.26 Bohr mag/cell

     iteration #  7     ecut=   100.00 Ry     beta= 0.70
     Davidson diagonalization with overlap
     ethr =  1.28E-04,  avg # of iterations =  1.0

     total cpu time spent up to now is      551.2 secs

     total energy              =   -1878.18706057 Ry
     Harris-Foulkes estimate   =   -1878.28389570 Ry
     estimated scf accuracy    <       0.56183289 Ry

     total magnetization       =     8.00 Bohr mag/cell
     absolute magnetization    =     8.27 Bohr mag/cell

     iteration #  8     ecut=   100.00 Ry     beta= 0.70
     Davidson diagonalization with overlap
     ethr =  1.25E-04,  avg # of iterations =  5.5

     total cpu time spent up to now is      615.9 secs

     total energy              =   -1878.23009578 Ry
     Harris-Foulkes estimate   =   -1878.24046439 Ry
     estimated scf accuracy    <       0.16036920 Ry

     total magnetization       =     8.00 Bohr mag/cell
     absolute magnetization    =     8.28 Bohr mag/cell

     iteration #  9     ecut=   100.00 Ry     beta= 0.70
     Davidson diagonalization with overlap
     ethr =  3.58E-05,  avg # of iterations =  6.0

     total cpu time spent up to now is      685.4 secs

     total energy              =   -1878.22383438 Ry
     Harris-Foulkes estimate   =   -1878.23847652 Ry
     estimated scf accuracy    <       0.15893375 Ry

     total magnetization       =     8.00 Bohr mag/cell
     absolute magnetization    =     8.28 Bohr mag/cell

     iteration # 10     ecut=   100.00 Ry     beta= 0.70
     Davidson diagonalization with overlap
     ethr =  3.55E-05,  avg # of iterations =  1.5

     total cpu time spent up to now is      746.8 secs

     total energy              =   -1878.23560519 Ry
     Harris-Foulkes estimate   =   -1878.23427322 Ry
     estimated scf accuracy    <       0.03015073 Ry

     total magnetization       =     8.00 Bohr mag/cell
     absolute magnetization    =     8.27 Bohr mag/cell

     iteration # 11     ecut=   100.00 Ry     beta= 0.70
     Davidson diagonalization with overlap
     ethr =  6.73E-06,  avg # of iterations = 13.0

     total cpu time spent up to now is      827.4 secs

     total energy              =   -1878.23843879 Ry
     Harris-Foulkes estimate   =   -1878.23730530 Ry
     estimated scf accuracy    <       0.00742211 Ry

     total magnetization       =     8.00 Bohr mag/cell
     absolute magnetization    =     8.27 Bohr mag/cell

     iteration # 12     ecut=   100.00 Ry     beta= 0.70
     Davidson diagonalization with overlap
     ethr =  1.66E-06,  avg # of iterations =  4.0

     total cpu time spent up to now is      896.5 secs

     total energy              =   -1878.23914149 Ry
     Harris-Foulkes estimate   =   -1878.23981476 Ry
     estimated scf accuracy    <       0.02306156 Ry

     total magnetization       =     8.00 Bohr mag/cell
     absolute magnetization    =     8.26 Bohr mag/cell

     iteration # 13     ecut=   100.00 Ry     beta= 0.70
     Davidson diagonalization with overlap
     ethr =  1.66E-06,  avg # of iterations =  3.0

     total cpu time spent up to now is      958.9 secs

     total energy              =   -1878.24062646 Ry
     Harris-Foulkes estimate   =   -1878.24003081 Ry
     estimated scf accuracy    <       0.00207461 Ry

     total magnetization       =     8.00 Bohr mag/cell
     absolute magnetization    =     8.26 Bohr mag/cell

     iteration # 14     ecut=   100.00 Ry     beta= 0.70
     Davidson diagonalization with overlap
     ethr =  4.63E-07,  avg # of iterations =  4.0

     total cpu time spent up to now is     1023.4 secs

     total energy              =   -1878.24118359 Ry
     Harris-Foulkes estimate   =   -1878.24074650 Ry
     estimated scf accuracy    <       0.00047282 Ry

     total magnetization       =     8.00 Bohr mag/cell
     absolute magnetization    =     8.26 Bohr mag/cell

     iteration # 15     ecut=   100.00 Ry     beta= 0.70
     Davidson diagonalization with overlap
     ethr =  1.06E-07,  avg # of iterations =  4.0

     total cpu time spent up to now is     1093.2 secs

     total energy              =   -1878.24125230 Ry
     Harris-Foulkes estimate   =   -1878.24121856 Ry
     estimated scf accuracy    <       0.00009211 Ry

     total magnetization       =     8.00 Bohr mag/cell
     absolute magnetization    =     8.26 Bohr mag/cell

     iteration # 16     ecut=   100.00 Ry     beta= 0.70
     Davidson diagonalization with overlap
     ethr =  2.06E-08,  avg # of iterations =  3.5

     total cpu time spent up to now is     1158.4 secs

     total energy              =   -1878.24127037 Ry
     Harris-Foulkes estimate   =   -1878.24125833 Ry
     estimated scf accuracy    <       0.00003976 Ry

     total magnetization       =     8.00 Bohr mag/cell
     absolute magnetization    =     8.26 Bohr mag/cell

     iteration # 17     ecut=   100.00 Ry     beta= 0.70
     Davidson diagonalization with overlap
     ethr =  8.88E-09,  avg # of iterations =  3.5

     total cpu time spent up to now is     1223.3 secs

     total energy              =   -1878.24127725 Ry
     Harris-Foulkes estimate   =   -1878.24127307 Ry
     estimated scf accuracy    <       0.00001763 Ry

     total magnetization       =     8.00 Bohr mag/cell
     absolute magnetization    =     8.26 Bohr mag/cell

     iteration # 18     ecut=   100.00 Ry     beta= 0.70
     Davidson diagonalization with overlap
     ethr =  3.94E-09,  avg # of iterations =  3.5

     total cpu time spent up to now is     1287.4 secs

     total energy              =   -1878.24127847 Ry
     Harris-Foulkes estimate   =   -1878.24127848 Ry
     estimated scf accuracy    <       0.00001161 Ry

     total magnetization       =     8.00 Bohr mag/cell
     absolute magnetization    =     8.26 Bohr mag/cell

     iteration # 19     ecut=   100.00 Ry     beta= 0.70
     Davidson diagonalization with overlap
     ethr =  2.59E-09,  avg # of iterations =  2.5

     total cpu time spent up to now is     1350.5 secs

     total energy              =   -1878.24127982 Ry
     Harris-Foulkes estimate   =   -1878.24127942 Ry
     estimated scf accuracy    <       0.00001435 Ry

     total magnetization       =     8.00 Bohr mag/cell
     absolute magnetization    =     8.26 Bohr mag/cell

     iteration # 20     ecut=   100.00 Ry     beta= 0.70
     Davidson diagonalization with overlap
     ethr =  2.59E-09,  avg # of iterations =  2.0

     total cpu time spent up to now is     1413.2 secs

     total energy              =   -1878.24128066 Ry
     Harris-Foulkes estimate   =   -1878.24128113 Ry
     estimated scf accuracy    <       0.00001131 Ry

     total magnetization       =     8.00 Bohr mag/cell
     absolute magnetization    =     8.26 Bohr mag/cell

     iteration # 21     ecut=   100.00 Ry     beta= 0.70
     Davidson diagonalization with overlap
     ethr =  2.52E-09,  avg # of iterations =  3.0

     total cpu time spent up to now is     1473.3 secs

     total energy              =   -1878.24128148 Ry
     Harris-Foulkes estimate   =   -1878.24128152 Ry
     estimated scf accuracy    <       0.00000467 Ry

     total magnetization       =     8.00 Bohr mag/cell
     absolute magnetization    =     8.26 Bohr mag/cell

     iteration # 22     ecut=   100.00 Ry     beta= 0.70
     Davidson diagonalization with overlap
     ethr =  1.04E-09,  avg # of iterations =  2.5

     total cpu time spent up to now is     1534.8 secs

     total energy              =   -1878.24128175 Ry
     Harris-Foulkes estimate   =   -1878.24128175 Ry
     estimated scf accuracy    <       0.00000117 Ry

     total magnetization       =     8.00 Bohr mag/cell
     absolute magnetization    =     8.26 Bohr mag/cell

     iteration # 23     ecut=   100.00 Ry     beta= 0.70
     Davidson diagonalization with overlap
     ethr =  2.60E-10,  avg # of iterations =  3.0

     total cpu time spent up to now is     1598.9 secs

     total energy              =   -1878.24128180 Ry
     Harris-Foulkes estimate   =   -1878.24128185 Ry
     estimated scf accuracy    <       0.00000126 Ry

     total magnetization       =     8.00 Bohr mag/cell
     absolute magnetization    =     8.26 Bohr mag/cell

     iteration # 24     ecut=   100.00 Ry     beta= 0.70
     Davidson diagonalization with overlap
     ethr =  2.60E-10,  avg # of iterations =  2.0
 
     Magnetic moment per site:
     atom:    1    charge:    7.4357    magn:    1.1417    constr:    0.0000
     atom:    2    charge:    7.4833    magn:    1.1416    constr:    0.0000
     atom:    3    charge:    1.9287    magn:    0.0338    constr:    0.0000
     atom:    4    charge:    1.9253    magn:    0.0394    constr:    0.0000
     atom:    5    charge:    1.9268    magn:    0.0393    constr:    0.0000
     atom:    6    charge:    1.9270    magn:    0.0350    constr:    0.0000
     atom:    7    charge:    1.9261    magn:    0.0394    constr:    0.0000
     atom:    8    charge:    1.9269    magn:    0.0412    constr:    0.0000
     atom:    9    charge:    1.9250    magn:    0.0406    constr:    0.0000
     atom:   10    charge:    1.9259    magn:    0.0382    constr:    0.0000
     atom:   11    charge:    2.4469    magn:    0.0124    constr:    0.0000
     atom:   12    charge:    2.4470    magn:    0.0128    constr:    0.0000
     atom:   13    charge:    2.4499    magn:    0.0121    constr:    0.0000
     atom:   14    charge:    2.4463    magn:    0.0126    constr:    0.0000
     atom:   15    charge:    0.8444    magn:    0.0045    constr:    0.0000
     atom:   16    charge:    0.8285    magn:    0.0028    constr:    0.0000
     atom:   17    charge:    0.3833    magn:   -0.0012    constr:    0.0000
     atom:   18    charge:    0.3834    magn:   -0.0012    constr:    0.0000
     atom:   19    charge:    0.8507    magn:    0.0067    constr:    0.0000
     atom:   20    charge:    0.8504    magn:    0.0060    constr:    0.0000
     atom:   21    charge:    0.8280    magn:    0.0023    constr:    0.0000
     atom:   22    charge:    0.8463    magn:    0.0046    constr:    0.0000
     atom:   23    charge:    0.3825    magn:   -0.0013    constr:    0.0000
     atom:   24    charge:    0.8465    magn:    0.0042    constr:    0.0000
     atom:   25    charge:    0.8451    magn:    0.0044    constr:    0.0000
     atom:   26    charge:    0.3830    magn:   -0.0012    constr:    0.0000
     atom:   27    charge:    0.8382    magn:    0.0063    constr:    0.0000
     atom:   28    charge:    0.8374    magn:    0.0063    constr:    0.0000
     atom:   29    charge:    0.3872    magn:   -0.0011    constr:    0.0000
     atom:   30    charge:    0.3837    magn:   -0.0010    constr:    0.0000
     atom:   31    charge:    0.8384    magn:    0.0064    constr:    0.0000
     atom:   32    charge:    0.8435    magn:    0.0087    constr:    0.0000
     atom:   33    charge:    0.3875    magn:   -0.0010    constr:    0.0000
     atom:   34    charge:    0.3871    magn:   -0.0011    constr:    0.0000
     atom:   35    charge:    0.8455    magn:    0.0091    constr:    0.0000
     atom:   36    charge:    0.8398    magn:    0.0063    constr:    0.0000
     atom:   37    charge:    0.3805    magn:   -0.0010    constr:    0.0000
     atom:   38    charge:    0.3838    magn:   -0.0008    constr:    0.0000
     atom:   39    charge:    0.8464    magn:    0.0087    constr:    0.0000
     atom:   40    charge:    0.8448    magn:    0.0087    constr:    0.0000
     atom:   41    charge:    0.3793    magn:   -0.0007    constr:    0.0000
     atom:   42    charge:    0.3799    magn:   -0.0010    constr:    0.0000
     atom:   43    charge:    0.8291    magn:    0.0025    constr:    0.0000
     atom:   44    charge:    0.8283    magn:    0.0025    constr:    0.0000
     atom:   45    charge:    0.3828    magn:   -0.0013    constr:    0.0000
     atom:   46    charge:    0.8530    magn:    0.0062    constr:    0.0000
     atom:   47    charge:    0.8504    magn:    0.0065    constr:    0.0000
     atom:   48    charge:    0.8217    magn:   -0.0022    constr:    0.0000
     atom:   49    charge:    0.8225    magn:   -0.0015    constr:    0.0000
     atom:   50    charge:    0.8228    magn:   -0.0014    constr:    0.0000
     atom:   51    charge:    0.8232    magn:   -0.0021    constr:    0.0000
     atom:   52    charge:    7.4365    magn:    1.1430    constr:    0.0000
     atom:   53    charge:    7.4863    magn:    1.1463    constr:    0.0000
     atom:   54    charge:    1.9255    magn:    0.0402    constr:    0.0000
     atom:   55    charge:    1.9267    magn:    0.0369    constr:    0.0000
     atom:   56    charge:    1.9295    magn:    0.0340    constr:    0.0000
     atom:   57    charge:    1.9278    magn:    0.0333    constr:    0.0000
     atom:   58    charge:    1.9252    magn:    0.0389    constr:    0.0000
     atom:   59    charge:    1.9275    magn:    0.0391    constr:    0.0000
     atom:   60    charge:    1.9250    magn:    0.0425    constr:    0.0000
     atom:   61    charge:    1.9253    magn:    0.0388    constr:    0.0000
     atom:   62    charge:    2.4479    magn:    0.0122    constr:    0.0000
     atom:   63    charge:    2.4461    magn:    0.0124    constr:    0.0000
     atom:   64    charge:    2.4499    magn:    0.0124    constr:    0.0000
     atom:   65    charge:    2.4476    magn:    0.0129    constr:    0.0000
     atom:   66    charge:    0.8448    magn:    0.0044    constr:    0.0000
     atom:   67    charge:    0.8453    magn:    0.0044    constr:    0.0000
     atom:   68    charge:    0.3838    magn:   -0.0012    constr:    0.0000
     atom:   69    charge:    0.8510    magn:    0.0063    constr:    0.0000
     atom:   70    charge:    0.8507    magn:    0.0061    constr:    0.0000
     atom:   71    charge:    0.8284    magn:    0.0024    constr:    0.0000
     atom:   72    charge:    0.8295    magn:    0.0025    constr:    0.0000
     atom:   73    charge:    0.8293    magn:    0.0024    constr:    0.0000
     atom:   74    charge:    0.8284    magn:    0.0027    constr:    0.0000
     atom:   75    charge:    0.3833    magn:   -0.0012    constr:    0.0000
     atom:   76    charge:    0.8438    magn:    0.0089    constr:    0.0000
     atom:   77    charge:    0.8433    magn:    0.0087    constr:    0.0000
     atom:   78    charge:    0.3839    magn:   -0.0010    constr:    0.0000
     atom:   79    charge:    0.3871    magn:   -0.0011    constr:    0.0000
     atom:   80    charge:    0.8387    magn:    0.0064    constr:    0.0000
     atom:   81    charge:    0.8377    magn:    0.0063    constr:    0.0000
     atom:   82    charge:    0.3874    magn:   -0.0010    constr:    0.0000
     atom:   83    charge:    0.3837    magn:   -0.0010    constr:    0.0000
     atom:   84    charge:    0.8468    magn:    0.0090    constr:    0.0000
     atom:   85    charge:    0.8447    magn:    0.0088    constr:    0.0000
     atom:   86    charge:    0.3799    magn:   -0.0006    constr:    0.0000
     atom:   87    charge:    0.3800    magn:   -0.0010    constr:    0.0000
     atom:   88    charge:    0.8400    magn:    0.0063    constr:    0.0000
     atom:   89    charge:    0.8413    magn:    0.0064    constr:    0.0000
     atom:   90    charge:    0.3840    magn:   -0.0009    constr:    0.0000
     atom:   91    charge:    0.3823    magn:   -0.0004    constr:    0.0000
     atom:   92    charge:    0.8453    magn:    0.0044    constr:    0.0000
     atom:   93    charge:    0.8454    magn:    0.0048    constr:    0.0000
     atom:   94    charge:    0.3825    magn:   -0.0012    constr:    0.0000
     atom:   95    charge:    0.8524    magn:    0.0065    constr:    0.0000
     atom:   96    charge:    0.8504    magn:    0.0061    constr:    0.0000
     atom:   97    charge:    0.8220    magn:   -0.0016    constr:    0.0000
     atom:   98    charge:    0.8230    magn:   -0.0014    constr:    0.0000
     atom:   99    charge:    0.8222    magn:   -0.0020    constr:    0.0000
     atom:  100    charge:    0.8231    magn:   -0.0018    constr:    0.0000
     atom:  101    charge:    1.9450    magn:    0.0163    constr:    0.0000
     atom:  102    charge:    0.3848    magn:    0.0001    constr:    0.0000
     atom:  103    charge:    1.9457    magn:    0.0129    constr:    0.0000
     atom:  104    charge:    0.3873    magn:   -0.0000    constr:    0.0000
     atom:  105    charge:    1.9439    magn:    0.0163    constr:    0.0000
     atom:  106    charge:    0.3840    magn:    0.0001    constr:    0.0000
     atom:  107    charge:    1.9463    magn:    0.0144    constr:    0.0000
     atom:  108    charge:    0.3854    magn:    0.0001    constr:    0.0000
     atom:  109    charge:    1.9450    magn:    0.0183    constr:    0.0000
     atom:  110    charge:    0.3836    magn:    0.0001    constr:    0.0000
     atom:  111    charge:    1.9458    magn:    0.0150    constr:    0.0000
     atom:  112    charge:    0.3848    magn:    0.0001    constr:    0.0000
     atom:  113    charge:    1.9466    magn:    0.0143    constr:    0.0000
     atom:  114    charge:    0.3880    magn:   -0.0000    constr:    0.0000
     atom:  115    charge:    1.9471    magn:    0.0129    constr:    0.0000
     atom:  116    charge:    0.3873    magn:   -0.0000    constr:    0.0000

     total cpu time spent up to now is     1660.9 secs

     End of self-consistent calculation

 ------ SPIN UP ------------


          k = 0.0000 0.0000 0.0000 ( 91663 PWs)   bands (ev):

   -22.0179 -21.9969 -21.9760 -21.9263 -21.8964 -21.8706 -21.8435 -21.8045
   -21.4821 -21.4660 -21.3420 -21.2833 -21.2626 -21.1971 -21.1633 -21.0864
   -18.9543 -18.9470 -18.9264 -18.9158 -18.8957 -18.8652 -18.8635 -18.8492
   -18.7688 -18.7503 -18.7325 -18.7150 -18.6659 -18.6508 -18.6295 -18.6192
   -15.0996 -15.0668 -15.0544 -15.0421 -15.0370 -15.0182 -15.0000 -14.9830
   -13.7713 -13.7171 -13.6651 -13.6632 -13.6364 -13.6174 -13.5787 -13.5486
   -11.4535 -11.3680 -11.3440 -11.3230 -11.2965 -11.2867 -11.2729 -11.2374
   -11.0340 -11.0023 -10.9613 -10.9530 -10.9388 -10.9153 -10.8992 -10.8087
    -9.2677  -9.1524  -9.0515  -9.0313  -8.9938  -8.9385  -8.9070  -8.8636
    -8.7440  -8.6555  -8.6341  -8.5983  -8.5752  -8.5449  -8.5011  -8.4420
    -7.5896  -7.3504  -7.3062  -7.2841  -7.2761  -7.2308  -7.2302  -7.2029
    -7.1520  -7.1124  -7.0884  -7.0650  -6.8363  -6.8272  -6.6837  -6.6430
    -6.3252  -6.3167  -6.3058  -6.2796  -6.2647  -6.2305  -6.2075  -6.1985
    -6.1822  -6.1505  -6.0568  -5.9632  -5.9312  -5.8954  -5.8846  -5.8541
    -5.8437  -5.8387  -5.8112  -5.7852  -5.7596  -5.6955  -5.6806  -5.6136
    -5.5928  -5.5267  -5.5187  -5.4350  -5.4055  -5.3850  -5.2940  -5.2575
    -5.2498  -5.2024  -5.1724  -5.1495  -5.1064  -5.1050  -4.9277  -4.7685
    -4.4124  -4.2991  -4.2834  -4.2357  -4.2232  -4.1817  -4.1281  -4.1217
    -4.0652  -4.0446  -4.0234  -4.0161  -3.9970  -3.9673  -3.8937  -3.8739
    -3.8691  -3.8431  -3.8130  -3.7879  -3.7605  -3.7339  -3.6811  -3.6516
    -3.6119  -3.5563  -3.4744  -3.4413  -3.3795  -3.3188  -3.2086  -3.1344
    -2.9067  -2.8736  -2.7633  -2.7272  -2.6836  -2.6657  -2.6247  -2.5929
    -2.5457  -2.5246  -2.5032  -2.4733  -2.4554  -2.4270  -2.3390  -2.3216
    -2.2607  -2.2088  -2.1420  -2.0340  -1.9692  -1.9511  -1.9268  -1.8431
    -1.8351  -1.7891  -1.7509  -1.7276  -1.7167  -1.7116  -1.6516  -1.6034
    -1.5723  -1.5489  -1.5244  -1.5140  -1.5007  -1.4588  -1.4382  -1.4206
    -1.3668  -1.3168  -1.2631  -1.2559  -0.9077  -0.8436  -0.7973  -0.7683
    -0.7287  -0.6973  -0.6240  -0.4682   0.3010   0.3366   0.3896   0.4467
     0.6332   0.6903   0.7039   0.7383   2.3858   2.4011   2.4223   2.4480
     2.4722   2.4990   2.5404   2.5548   3.6412   3.7249   3.7819   3.8196
     3.8755   3.8990   3.9816   4.0064   4.0592   4.4415   4.4548   4.6408
     4.9132   4.9356   4.9449   4.9558   5.0563   5.0570   5.0900   5.1653
     5.2129   5.3986   5.5257   5.5630   5.6359   5.7219   5.7471   6.0711
     6.1253   6.1575   6.2229   6.5132   6.6511   6.7722   6.8098   6.8278
     6.9111   7.0107

 ------ SPIN DOWN ----------


          k = 0.0000 0.0000 0.0000 ( 91663 PWs)   bands (ev):

   -21.9166 -21.8926 -21.8727 -21.8135 -21.7974 -21.7674 -21.7364 -21.6940
   -21.4336 -21.4164 -21.2939 -21.2356 -21.2148 -21.1442 -21.1137 -21.0310
   -18.8212 -18.8135 -18.7920 -18.7813 -18.7604 -18.7390 -18.7222 -18.7139
   -18.7083 -18.7021 -18.6852 -18.6737 -18.6266 -18.6124 -18.5901 -18.5810
   -15.0612 -15.0282 -15.0161 -15.0038 -14.9986 -14.9797 -14.9607 -14.9431
   -13.7285 -13.6741 -13.6220 -13.6202 -13.5932 -13.5747 -13.5353 -13.5044
   -11.4072 -11.3226 -11.2993 -11.2816 -11.2552 -11.2442 -11.2294 -11.1948
   -11.0054 -10.9739 -10.9315 -10.9250 -10.9115 -10.8860 -10.8710 -10.7804
    -9.2407  -9.1258  -9.0264  -9.0038  -8.9689  -8.9139  -8.8822  -8.8369
    -8.7079  -8.6150  -8.5965  -8.5572  -8.5347  -8.5031  -8.4596  -8.4041
    -7.5322  -7.3026  -7.2627  -7.2402  -7.2331  -7.1872  -7.1810  -7.1566
    -7.1109  -7.0429  -7.0313  -7.0099  -6.7639  -6.7517  -6.6158  -6.5595
    -6.2305  -6.2086  -6.1945  -6.1726  -6.1532  -6.1237  -6.1231  -6.0974
    -6.0801  -6.0493  -5.9259  -5.8847  -5.8381  -5.7979  -5.7850  -5.7482
    -5.7322  -5.7228  -5.7019  -5.6876  -5.6239  -5.6098  -5.5687  -5.5353
    -5.5041  -5.4883  -5.4677  -5.3727  -5.3427  -5.3254  -5.2340  -5.2196
    -5.1894  -5.1264  -5.0798  -5.0643  -5.0345  -5.0117  -4.8282  -4.6702
    -4.3130  -4.2369  -4.2156  -4.1673  -4.1512  -4.0839  -4.0462  -4.0193
    -3.9646  -3.9437  -3.9354  -3.8878  -3.8583  -3.8224  -3.7885  -3.7678
    -3.7215  -3.7129  -3.6617  -3.6413  -3.6194  -3.5932  -3.5703  -3.5319
    -3.5136  -3.4583  -3.3280  -3.2107  -3.0939  -2.9822  -2.9697  -2.8705
    -2.5800  -2.5350  -2.4359  -2.4116  -2.3769  -2.2956  -2.2628  -2.2410
    -2.2025  -2.1715  -2.1225  -2.1188  -2.0843  -2.0607  -2.0237  -1.9677
    -1.9096  -1.8816  -1.8311  -1.7942  -1.6705  -1.6611  -1.6433  -1.5953
    -1.5673  -1.5317  -1.4788  -1.4429  -1.3542  -1.2658  -1.2287  -1.1110
    -0.9705  -0.9078  -0.8767  -0.8408  -0.7907  -0.7252  -0.7103  -0.6770
    -0.6417  -0.6401  -0.6289  -0.6109  -0.5954  -0.5676  -0.5583  -0.5339
    -0.5026  -0.4739  -0.4603  -0.3374   1.1020   1.1333   1.1688   1.2240
     1.3852   1.4044   1.4286   1.4522   2.5022   2.5095   2.5341   2.5788
     2.5851   2.6202   2.6519   2.6707   3.7214   3.8042   3.8583   3.8770
     3.9604   3.9852   4.0677   4.0937   4.1460   4.4954   4.5156   4.6883
     4.9830   4.9956   5.0106   5.0355   5.1329   5.1370   5.1748   5.2452
     5.2856   5.4457   5.5662   5.6109   5.6841   5.7677   5.7848   6.1086
     6.1639   6.1995   6.2620   6.5621   6.6966   6.8129   6.8486   6.8682
     6.9488   7.0599

     the spin up/dw Fermi energies are     0.9147    0.5577 ev

!    total energy              =   -1878.24128139 Ry
     Harris-Foulkes estimate   =   -1878.24128189 Ry
     estimated scf accuracy    <       0.00000083 Ry

     The total energy is the sum of the following terms:

     one-electron contribution =   -2669.28473454 Ry
     hartree contribution      =    1500.69866476 Ry
     xc contribution           =    -548.82945786 Ry
     ewald contribution        =    -163.19067516 Ry
     Dispersion Correction     =      -0.49322408 Ry
     smearing contrib. (-TS)   =       2.85814548 Ry

     total magnetization       =     8.00 Bohr mag/cell
     absolute magnetization    =     8.26 Bohr mag/cell

     convergence has been achieved in  24 iterations

     Forces acting on atoms (cartesian axes, Ry/au):

     atom    1 type  1   force =     0.01238100   -0.00215468    0.00688814
     atom    2 type  2   force =     0.00086033   -0.00094844    0.00656169
     atom    3 type  3   force =     0.01325469    0.00757548   -0.01269802
     atom    4 type  3   force =     0.00511860   -0.00096037   -0.00019388
     atom    5 type  3   force =    -0.00429646   -0.00080118   -0.00101869
     atom    6 type  3   force =    -0.00191768    0.00125372   -0.01380720
     atom    7 type  3   force =    -0.00618013    0.00148089    0.00143083
     atom    8 type  3   force =    -0.00154223    0.00226908   -0.00858449
     atom    9 type  3   force =    -0.00751671    0.00264493   -0.00893123
     atom   10 type  3   force =     0.00003223    0.00405713    0.00233777
     atom   11 type  4   force =     0.01214018    0.00068108    0.00519579
     atom   12 type  4   force =    -0.01189603    0.00265514   -0.00940283
     atom   13 type  4   force =    -0.01334461   -0.00301099   -0.00060406
     atom   14 type  4   force =    -0.01308606    0.00038364    0.00375303
     atom   15 type  5   force =     0.01123700   -0.00404407    0.01303466
     atom   16 type  5   force =    -0.08352534    0.01110681   -0.04185735
     atom   17 type  6   force =     0.00228628    0.00264822    0.00032248
     atom   18 type  6   force =     0.00133907   -0.00300439   -0.00062378
     atom   19 type  5   force =    -0.00956971    0.02883146   -0.03832702
     atom   20 type  5   force =     0.03588761   -0.03112890   -0.00960184
     atom   21 type  5   force =     0.08655561   -0.00421427    0.05492534
     atom   22 type  5   force =    -0.02101949    0.01045292   -0.00644099
     atom   23 type  6   force =    -0.00074658   -0.00296435   -0.00395886
     atom   24 type  5   force =    -0.01253788    0.00753086    0.01734478
     atom   25 type  5   force =    -0.01052703   -0.00569818    0.01465842
     atom   26 type  6   force =    -0.00100168   -0.00322428   -0.00074704
     atom   27 type  5   force =     0.00488948   -0.00650948   -0.00685090
     atom   28 type  5   force =     0.00210217    0.00577563   -0.00526792
     atom   29 type  6   force =    -0.00086351   -0.00009170    0.00168476
     atom   30 type  6   force =     0.00352906    0.00033728   -0.00385489
     atom   31 type  5   force =    -0.00145094    0.00341368   -0.00656322
     atom   32 type  5   force =     0.00656361    0.02426404    0.03367034
     atom   33 type  6   force =     0.00258351    0.00017419    0.00001132
     atom   34 type  6   force =     0.00058420   -0.00066476    0.00130652
     atom   35 type  5   force =    -0.02974485   -0.03102577    0.01737903
     atom   36 type  5   force =     0.01251321   -0.00478310    0.00182682
     atom   37 type  6   force =     0.00358428    0.00145938    0.00159914
     atom   38 type  6   force =    -0.00280604   -0.00068319   -0.00089382
     atom   39 type  5   force =     0.02748986    0.04873205    0.01183741
     atom   40 type  5   force =     0.02829364   -0.03061796    0.01496734
     atom   41 type  6   force =    -0.00014252   -0.00130211   -0.00747503
     atom   42 type  6   force =    -0.00450285    0.00169544    0.00171071
     atom   43 type  5   force =    -0.08647271    0.00216122    0.05136708
     atom   44 type  5   force =    -0.07955584   -0.00456540    0.05262197
     atom   45 type  6   force =     0.00024780   -0.00282822   -0.00448689
     atom   46 type  5   force =     0.00909988   -0.03172931   -0.03909274
     atom   47 type  5   force =     0.00914695    0.02924197   -0.03825522
     atom   48 type  5   force =     0.00492548    0.00119869    0.00446261
     atom   49 type  5   force =     0.00622001   -0.00053384    0.00939536
     atom   50 type  5   force =    -0.01280553    0.00007309    0.01281414
     atom   51 type  5   force =    -0.00180960    0.00162240    0.00411567
     atom   52 type  1   force =     0.01177713   -0.00268952    0.00496686
     atom   53 type  2   force =     0.00152086    0.00035565    0.00641290
     atom   54 type  3   force =    -0.00783746   -0.00489566    0.00120653
     atom   55 type  3   force =     0.00049802    0.00125052   -0.01089025
     atom   56 type  3   force =    -0.01348319   -0.00727438   -0.01524027
     atom   57 type  3   force =    -0.01455725    0.00862264   -0.01533596
     atom   58 type  3   force =     0.00338997   -0.00183911   -0.00916932
     atom   59 type  3   force =    -0.00202728   -0.00271053    0.00267990
     atom   60 type  3   force =    -0.00247843    0.00420372   -0.00948081
     atom   61 type  3   force =    -0.00413681   -0.00044847   -0.00877006
     atom   62 type  4   force =     0.01217002    0.00237526    0.00249069
     atom   63 type  4   force =     0.01214016   -0.00031897    0.00417932
     atom   64 type  4   force =     0.00995585    0.00170931   -0.01064666
     atom   65 type  4   force =     0.01100545   -0.00018148   -0.01216102
     atom   66 type  5   force =     0.01215014   -0.00571699    0.01430458
     atom   67 type  5   force =     0.01186890    0.00662278    0.01635593
     atom   68 type  6   force =     0.00052804    0.00288461    0.00061537
     atom   69 type  5   force =    -0.00914096    0.03014193   -0.03909010
     atom   70 type  5   force =    -0.00743423   -0.03045855   -0.03955167
     atom   71 type  5   force =     0.09471482   -0.00097618    0.05275892
     atom   72 type  5   force =     0.08124265    0.00603198    0.05500691
     atom   73 type  5   force =     0.08606358    0.00929887   -0.04836892
     atom   74 type  5   force =     0.08637833   -0.01060331   -0.04242746
     atom   75 type  6   force =    -0.00224621    0.00309715   -0.00135232
     atom   76 type  5   force =    -0.00722746    0.02600132    0.03543613
     atom   77 type  5   force =    -0.00519115   -0.02455291    0.03287391
     atom   78 type  6   force =     0.00312928   -0.00059848   -0.00317080
     atom   79 type  6   force =    -0.00098057   -0.00034600    0.00185335
     atom   80 type  5   force =    -0.00459441    0.00452160   -0.00885853
     atom   81 type  5   force =    -0.00228232   -0.00619162   -0.00618255
     atom   82 type  6   force =     0.00216962    0.00023209   -0.00034712
     atom   83 type  6   force =    -0.00321971   -0.00133884   -0.00402895
     atom   84 type  5   force =    -0.02843537   -0.05196778    0.01351749
     atom   85 type  5   force =    -0.02973537    0.03042578    0.01661002
     atom   86 type  6   force =     0.00027460    0.00009581   -0.00930181
     atom   87 type  6   force =     0.00309826   -0.00191100    0.00099367
     atom   88 type  5   force =    -0.01211338   -0.00549583    0.00084289
     atom   89 type  5   force =    -0.01088689   -0.01436537   -0.00362191
     atom   90 type  6   force =     0.00267082    0.00004947   -0.00044345
     atom   91 type  6   force =     0.00436420    0.00030610   -0.00916767
     atom   92 type  5   force =     0.02133386    0.00911992   -0.00709724
     atom   93 type  5   force =     0.01842435   -0.00623204   -0.01116966
     atom   94 type  6   force =     0.00173921    0.00218706   -0.00390299
     atom   95 type  5   force =    -0.03607032   -0.03172239   -0.00829796
     atom   96 type  5   force =    -0.03426119    0.03063564   -0.01029434
     atom   97 type  5   force =     0.01847367   -0.00008060    0.01686983
     atom   98 type  5   force =     0.01450007    0.00036966    0.01748300
     atom   99 type  5   force =     0.00843247   -0.00108868   -0.00467728
     atom  100 type  5   force =    -0.00442115    0.00116845    0.00549419
     atom  101 type  3   force =    -0.05205551    0.03825774   -0.07110408
     atom  102 type  6   force =    -0.02820450   -0.04728079    0.02799239
     atom  103 type  3   force =     0.07923372   -0.01272305    0.03341122
     atom  104 type  6   force =    -0.00641174    0.02583464    0.03808742
     atom  105 type  3   force =     0.04571561   -0.03331606   -0.07675187
     atom  106 type  6   force =     0.03249235    0.04321026    0.02712507
     atom  107 type  3   force =     0.04310410    0.03608303   -0.06498446
     atom  108 type  6   force =     0.02762088   -0.04384372    0.02507490
     atom  109 type  3   force =    -0.05454271    0.03503441   -0.08369253
     atom  110 type  6   force =    -0.03304099   -0.04569316    0.02918327
     atom  111 type  3   force =    -0.04648572   -0.03723577   -0.06963072
     atom  112 type  6   force =    -0.02812568    0.04570101    0.02798359
     atom  113 type  3   force =    -0.08414500   -0.01492008    0.02698789
     atom  114 type  6   force =     0.00449821    0.02660338    0.03639608
     atom  115 type  3   force =    -0.08066656    0.01632209    0.02914114
     atom  116 type  6   force =     0.00575660   -0.02596804    0.03719015

     Total force =     0.471489     Total SCF correction =     0.002032

     BFGS Geometry Optimization

     number of scf cycles    =   1
     number of bfgs steps    =   0

     energy   new            =   -1878.2412813911 Ry

     new trust radius        =       0.1084221095 bohr
     new conv_thr            =       0.0000010000 Ry


ATOMIC_POSITIONS (crystal)
Ni2           0.2475323616        0.7513949540        0.8366807738
Ni1           0.5000145556        0.2479589237        0.3395159602
O             0.1233269726        0.3480091024        0.3822189879
O             0.3714244129        0.6509364196        0.8812820142
O             0.3774472397        0.1474731460        0.3771255323
O             0.1250039108        0.8524049762        0.8755498595
O             0.4728088277        0.3562225749        0.4830676949
O             0.2210636934        0.6415108800        0.9794348554
O             0.0285135568        0.1352697616        0.4806179964
O             0.2766895551        0.8629294341        0.9795194068
N             0.3089555848        0.8512817789        0.7050956095
N             0.0602168032        0.1489691932        0.2055677067
N             0.1859767536        0.6501827705        0.7058068879
N             0.4382597784        0.3509442106        0.2082343002
C             0.2886997143        0.9698791176        0.5226553506
C             0.0348053715        0.0315753193        0.0201521352
H             0.2372210465        0.9996869007        0.4431296094
H             0.4865940783        0.0025650494        0.9434668722
C             0.3901931296        0.0129882755        0.5445179650
C             0.1417535918        0.9864286460        0.0456514566
C             0.4556291044        0.9700239257        0.6531999320
C             0.2016245180        0.0287946889        0.1495612565
H             0.2823046974        0.9985397413        0.1723980986
C             0.2076667150        0.5300222173        0.5272773435
C             0.4581132865        0.4711682229        0.0286589826
H             0.2586569136        0.5007587578        0.4492435239
C             0.2453374777        0.6130559413        0.6060821439
C             0.4969030160        0.3889210495        0.1083456755
H             0.3226060397        0.6505021253        0.5927217734
H             0.0751137195        0.3528652519        0.0948294539
C             0.2494084512        0.8893502454        0.6028649608
C             0.0013783020        0.1132572790        0.1059811922
H             0.1702633323        0.8551303603        0.5885605830
H             0.4223479451        0.1477039105        0.0899532923
C             0.4067346306        0.8880720038        0.7284471079
C             0.1604662116        0.1093448896        0.2279060902
H             0.4535231685        0.8552346662        0.8088433638
H             0.2061194242        0.1430741317        0.3087509636
C             0.0900363355        0.6110421763        0.7279616866
C             0.3421012813        0.3903392358        0.2301648937
H             0.0437159626        0.6428889793        0.8062229983
H             0.2961890643        0.3575976409        0.3091391101
C             0.0433140377        0.5251703224        0.6539576639
C             0.2943409031        0.4745180886        0.1554642971
H             0.4686782798        0.4931114934        0.6732709026
C             0.1085124196        0.4829292755        0.5481025267
C             0.3581831965        0.5168916216        0.0486676634
C             0.4335226058        0.0993696506        0.4668508471
C             0.1817890080        0.8996974427        0.9661559083
C             0.0668481427        0.3944770886        0.4713359928
C             0.3159702840        0.6042405546        0.9693189776
Ni2           0.7475050074        0.7513723541        0.8365818186
Ni1           1.0000423665        0.2480140281        0.3395082967
O             0.6224484871        0.3474821337        0.3829351423
O             0.8712188657        0.6510298408        0.8807310970
O             0.8770451701        0.1471996203        0.3763930492
O             0.6244676313        0.8527163502        0.8754711207
O             0.9732038524        0.3560822881        0.4825217336
O             0.7210537274        0.6413004664        0.9800150283
O             0.5287262378        0.1353356286        0.4805896905
O             0.7765027292        0.8627390499        0.9789472976
N             0.8089543119        0.8513533668        0.7049562830
N             0.5612466310        0.1488435220        0.2062672559
N             0.6869543041        0.6503822272        0.7052896435
N             0.9392642989        0.3509203314        0.2074146461
C             0.7887395444        0.9698084281        0.5227207580
C             0.5388965664        0.0313858459        0.0231504129
H             0.7371469208        0.9996968896        0.4431446947
C             0.8902105568        0.0130436496        0.5444786625
C             0.6398923450        0.9864569716        0.0441088894
C             0.9559723325        0.9701607514        0.6530883506
C             0.7060093618        0.0286078817        0.1527261334
C             0.7117784603        0.5300969243        0.5238927564
C             0.9621613484        0.4709609562        0.0257187718
H             0.5085446835        0.5005278703        0.9504783488
C             0.7448643848        0.6144296878        0.6082601394
C             0.9966301501        0.3876395150        0.1103101722
H             0.8227704438        0.6504807111        0.5924716881
H             0.5749282441        0.3528363796        0.0951234568
C             0.7492732830        0.8893970607        0.6027467409
C             0.5009666277        0.1119703725        0.1039285675
H             0.6702454827        0.8551328071        0.5885421218
H             0.9221819806        0.1476754273        0.0896784889
C             0.9067864219        0.8871870976        0.7282482190
C             0.6586913108        0.1108326435        0.2286675001
H             0.9533729006        0.8551770485        0.8082819097
H             0.7063720352        0.1430222505        0.3088481789
C             0.5883502096        0.6087507733        0.7273954129
C             0.8404259237        0.3910259903        0.2292074532
H             0.5438416007        0.6429460906        0.8065851601
H             0.7965540786        0.3575389342        0.3085788186
C             0.5478210945        0.5254643629        0.6509464562
C             0.7984271602        0.4744476646        0.1521787063
H             0.7190219365        0.5052934143        0.1750629764
C             0.6066298984        0.4829295679        0.5496886134
C             0.8563725808        0.5169505113        0.0501077894
C             0.9341075304        0.0993155942        0.4674898813
C             0.6821469616        0.8997356198        0.9665724627
C             0.5677294374        0.3944279977        0.4704350964
C             0.8158610680        0.6042213731        0.9693899788
O             0.5493936095        0.0078355838        0.6736567813
H             0.5936097593        0.9761261467        0.7502657494
O             0.9791001104        0.9957953868        0.9239738466
H             0.9049753873        0.0266366445        0.9066016941
O             0.9511515222        0.4839682273        0.6725618917
H             0.9076883469        0.5147418526        0.7475230780
O             0.2014610458        0.5149956913        0.1750769723
H             0.1585832878        0.4840193804        0.2499274840
O             0.0492765633        0.0076993815        0.6730084124
H             0.0934062183        0.9761932320        0.7503270858
O             0.7998946774        0.9894905998        0.1724076668
H             0.8445400863        0.0203750995        0.2487712962
O             0.7656336830        0.4939405511        0.4298030126
H             0.8386464589        0.5264161279        0.4128745819
O             0.0159808926        0.5076576913        0.9312539158
H             0.0893974522        0.4760837186        0.9147604806



     Writing output data file ../structural_relaxation/NiPyC2_relax_meta_functionalized_OH.save/
     NEW-OLD atomic charge density approx. for the potential

     Check: negative core charge=   -0.000145

     total cpu time spent up to now is     1689.0 secs

     Self-consistent Calculation

     iteration #  1     ecut=   100.00 Ry     beta= 0.70
     Davidson diagonalization with overlap
     ethr =  1.00E-06,  avg # of iterations = 12.5

     total cpu time spent up to now is     1992.5 secs

     total energy              =   -1878.24705799 Ry
     Harris-Foulkes estimate   =   -1878.29600155 Ry
     estimated scf accuracy    <       0.16681777 Ry

     total magnetization       =     8.00 Bohr mag/cell
     absolute magnetization    =     8.25 Bohr mag/cell

     iteration #  2     ecut=   100.00 Ry     beta= 0.70
     Davidson diagonalization with overlap
     ethr =  3.72E-05,  avg # of iterations =  2.0

     total cpu time spent up to now is     2054.6 secs

     total energy              =   -1878.23896640 Ry
     Harris-Foulkes estimate   =   -1878.27460467 Ry
     estimated scf accuracy    <       0.18556784 Ry

     total magnetization       =     8.00 Bohr mag/cell
     absolute magnetization    =     8.26 Bohr mag/cell

     iteration #  3     ecut=   100.00 Ry     beta= 0.70
     Davidson diagonalization with overlap
     ethr =  3.72E-05,  avg # of iterations =  1.5

     total cpu time spent up to now is     2116.5 secs

     total energy              =   -1878.25294248 Ry
     Harris-Foulkes estimate   =   -1878.27087181 Ry
     estimated scf accuracy    <       0.15165355 Ry

     total magnetization       =     8.00 Bohr mag/cell
     absolute magnetization    =     8.24 Bohr mag/cell

     iteration #  4     ecut=   100.00 Ry     beta= 0.70
     Davidson diagonalization with overlap
     ethr =  3.39E-05,  avg # of iterations =  1.0

     total cpu time spent up to now is     2177.8 secs

     total energy              =   -1878.25836783 Ry
     Harris-Foulkes estimate   =   -1878.26154954 Ry
     estimated scf accuracy    <       0.03154397 Ry

     total magnetization       =     8.00 Bohr mag/cell
     absolute magnetization    =     8.25 Bohr mag/cell

     iteration #  5     ecut=   100.00 Ry     beta= 0.70
     Davidson diagonalization with overlap
     ethr =  7.04E-06,  avg # of iterations =  4.5

     total cpu time spent up to now is     2241.5 secs

     total energy              =   -1878.25891107 Ry
     Harris-Foulkes estimate   =   -1878.26081514 Ry
     estimated scf accuracy    <       0.01525423 Ry

     total magnetization       =     8.00 Bohr mag/cell
     absolute magnetization    =     8.25 Bohr mag/cell

     iteration #  6     ecut=   100.00 Ry     beta= 0.70
     Davidson diagonalization with overlap
     ethr =  3.40E-06,  avg # of iterations =  6.5

     total cpu time spent up to now is     2311.7 secs

     total energy              =   -1878.25933520 Ry
     Harris-Foulkes estimate   =   -1878.25980841 Ry
     estimated scf accuracy    <       0.00293285 Ry

     total magnetization       =     8.00 Bohr mag/cell
     absolute magnetization    =     8.25 Bohr mag/cell

     iteration #  7     ecut=   100.00 Ry     beta= 0.70
     Davidson diagonalization with overlap
     ethr =  6.55E-07,  avg # of iterations =  3.5

     total cpu time spent up to now is     2375.2 secs

     total energy              =   -1878.25933429 Ry
     Harris-Foulkes estimate   =   -1878.25948036 Ry
     estimated scf accuracy    <       0.00089325 Ry

     total magnetization       =     8.00 Bohr mag/cell
     absolute magnetization    =     8.25 Bohr mag/cell

     iteration #  8     ecut=   100.00 Ry     beta= 0.70
     Davidson diagonalization with overlap
     ethr =  1.99E-07,  avg # of iterations =  4.0

     total cpu time spent up to now is     2442.8 secs

     total energy              =   -1878.25931783 Ry
     Harris-Foulkes estimate   =   -1878.25943405 Ry
     estimated scf accuracy    <       0.00120611 Ry

     total magnetization       =     8.00 Bohr mag/cell
     absolute magnetization    =     8.25 Bohr mag/cell

     iteration #  9     ecut=   100.00 Ry     beta= 0.70
     Davidson diagonalization with overlap
     ethr =  1.99E-07,  avg # of iterations =  1.0

     total cpu time spent up to now is     2503.2 secs

     total energy              =   -1878.25936300 Ry
     Harris-Foulkes estimate   =   -1878.25941889 Ry
     estimated scf accuracy    <       0.00087840 Ry

     total magnetization       =     8.00 Bohr mag/cell
     absolute magnetization    =     8.24 Bohr mag/cell

     iteration # 10     ecut=   100.00 Ry     beta= 0.70
     Davidson diagonalization with overlap
     ethr =  1.96E-07,  avg # of iterations =  1.0

     total cpu time spent up to now is     2563.7 secs

     total energy              =   -1878.25939055 Ry
     Harris-Foulkes estimate   =   -1878.25939502 Ry
     estimated scf accuracy    <       0.00011723 Ry

     total magnetization       =     8.00 Bohr mag/cell
     absolute magnetization    =     8.24 Bohr mag/cell

     iteration # 11     ecut=   100.00 Ry     beta= 0.70
     Davidson diagonalization with overlap
     ethr =  2.62E-08,  avg # of iterations =  4.0

     total cpu time spent up to now is     2628.9 secs

     total energy              =   -1878.25939467 Ry
     Harris-Foulkes estimate   =   -1878.25939596 Ry
     estimated scf accuracy    <       0.00004619 Ry

     total magnetization       =     8.00 Bohr mag/cell
     absolute magnetization    =     8.24 Bohr mag/cell

     iteration # 12     ecut=   100.00 Ry     beta= 0.70
     Davidson diagonalization with overlap
     ethr =  1.03E-08,  avg # of iterations =  3.0

     total cpu time spent up to now is     2693.2 secs

     total energy              =   -1878.25939495 Ry
     Harris-Foulkes estimate   =   -1878.25939790 Ry
     estimated scf accuracy    <       0.00002826 Ry

     total magnetization       =     8.00 Bohr mag/cell
     absolute magnetization    =     8.24 Bohr mag/cell

     iteration # 13     ecut=   100.00 Ry     beta= 0.70
     Davidson diagonalization with overlap
     ethr =  6.31E-09,  avg # of iterations =  2.0

     total cpu time spent up to now is     2755.6 secs

     total energy              =   -1878.25939683 Ry
     Harris-Foulkes estimate   =   -1878.25939965 Ry
     estimated scf accuracy    <       0.00006479 Ry

     total magnetization       =     8.00 Bohr mag/cell
     absolute magnetization    =     8.24 Bohr mag/cell

     iteration # 14     ecut=   100.00 Ry     beta= 0.70
     Davidson diagonalization with overlap
     ethr =  6.31E-09,  avg # of iterations =  2.0

     total cpu time spent up to now is     2817.9 secs

     total energy              =   -1878.25939921 Ry
     Harris-Foulkes estimate   =   -1878.25939860 Ry
     estimated scf accuracy    <       0.00000531 Ry

     total magnetization       =     8.00 Bohr mag/cell
     absolute magnetization    =     8.24 Bohr mag/cell

     iteration # 15     ecut=   100.00 Ry     beta= 0.70
     Davidson diagonalization with overlap
     ethr =  1.18E-09,  avg # of iterations =  3.0

     total cpu time spent up to now is     2881.9 secs

     total energy              =   -1878.25939932 Ry
     Harris-Foulkes estimate   =   -1878.25939945 Ry
     estimated scf accuracy    <       0.00000327 Ry

     total magnetization       =     8.00 Bohr mag/cell
     absolute magnetization    =     8.24 Bohr mag/cell

     iteration # 16     ecut=   100.00 Ry     beta= 0.70
     Davidson diagonalization with overlap
     ethr =  7.30E-10,  avg # of iterations =  3.0

     total cpu time spent up to now is     2945.2 secs

     total energy              =   -1878.25939932 Ry
     Harris-Foulkes estimate   =   -1878.25939970 Ry
     estimated scf accuracy    <       0.00000430 Ry

     total magnetization       =     8.00 Bohr mag/cell
     absolute magnetization    =     8.24 Bohr mag/cell

     iteration # 17     ecut=   100.00 Ry     beta= 0.70
     Davidson diagonalization with overlap
     ethr =  7.30E-10,  avg # of iterations =  2.0

     total cpu time spent up to now is     3007.3 secs

     total energy              =   -1878.25939953 Ry
     Harris-Foulkes estimate   =   -1878.25939962 Ry
     estimated scf accuracy    <       0.00000131 Ry

     total magnetization       =     8.00 Bohr mag/cell
     absolute magnetization    =     8.24 Bohr mag/cell

     iteration # 18     ecut=   100.00 Ry     beta= 0.70
     Davidson diagonalization with overlap
     ethr =  2.92E-10,  avg # of iterations =  3.0
 
     Magnetic moment per site:
     atom:    1    charge:    7.4375    magn:    1.1522    constr:    0.0000
     atom:    2    charge:    7.4845    magn:    1.1476    constr:    0.0000
     atom:    3    charge:    1.9246    magn:    0.0352    constr:    0.0000
     atom:    4    charge:    1.9250    magn:    0.0405    constr:    0.0000
     atom:    5    charge:    1.9261    magn:    0.0410    constr:    0.0000
     atom:    6    charge:    1.9250    magn:    0.0346    constr:    0.0000
     atom:    7    charge:    1.9247    magn:    0.0416    constr:    0.0000
     atom:    8    charge:    1.9283    magn:    0.0401    constr:    0.0000
     atom:    9    charge:    1.9294    magn:    0.0374    constr:    0.0000
     atom:   10    charge:    1.9272    magn:    0.0380    constr:    0.0000
     atom:   11    charge:    2.4539    magn:    0.0123    constr:    0.0000
     atom:   12    charge:    2.4529    magn:    0.0134    constr:    0.0000
     atom:   13    charge:    2.4580    magn:    0.0126    constr:    0.0000
     atom:   14    charge:    2.4530    magn:    0.0128    constr:    0.0000
     atom:   15    charge:    0.8457    magn:    0.0036    constr:    0.0000
     atom:   16    charge:    0.8295    magn:    0.0040    constr:    0.0000
     atom:   17    charge:    0.3790    magn:   -0.0010    constr:    0.0000
     atom:   18    charge:    0.3785    magn:   -0.0010    constr:    0.0000
     atom:   19    charge:    0.8416    magn:    0.0078    constr:    0.0000
     atom:   20    charge:    0.8420    magn:    0.0068    constr:    0.0000
     atom:   21    charge:    0.8250    magn:    0.0034    constr:    0.0000
     atom:   22    charge:    0.8473    magn:    0.0038    constr:    0.0000
     atom:   23    charge:    0.3767    magn:   -0.0010    constr:    0.0000
     atom:   24    charge:    0.8472    magn:    0.0033    constr:    0.0000
     atom:   25    charge:    0.8461    magn:    0.0036    constr:    0.0000
     atom:   26    charge:    0.3778    magn:   -0.0010    constr:    0.0000
     atom:   27    charge:    0.8383    magn:    0.0072    constr:    0.0000
     atom:   28    charge:    0.8367    magn:    0.0071    constr:    0.0000
     atom:   29    charge:    0.3872    magn:   -0.0012    constr:    0.0000
     atom:   30    charge:    0.3849    magn:   -0.0007    constr:    0.0000
     atom:   31    charge:    0.8377    magn:    0.0073    constr:    0.0000
     atom:   32    charge:    0.8476    magn:    0.0078    constr:    0.0000
     atom:   33    charge:    0.3877    magn:   -0.0012    constr:    0.0000
     atom:   34    charge:    0.3867    magn:   -0.0012    constr:    0.0000
     atom:   35    charge:    0.8473    magn:    0.0089    constr:    0.0000
     atom:   36    charge:    0.8388    magn:    0.0071    constr:    0.0000
     atom:   37    charge:    0.3834    magn:   -0.0005    constr:    0.0000
     atom:   38    charge:    0.3850    magn:   -0.0011    constr:    0.0000
     atom:   39    charge:    0.8486    magn:    0.0082    constr:    0.0000
     atom:   40    charge:    0.8470    magn:    0.0083    constr:    0.0000
     atom:   41    charge:    0.3837    magn:   -0.0004    constr:    0.0000
     atom:   42    charge:    0.3824    magn:   -0.0006    constr:    0.0000
     atom:   43    charge:    0.8249    magn:    0.0038    constr:    0.0000
     atom:   44    charge:    0.8249    magn:    0.0038    constr:    0.0000
     atom:   45    charge:    0.3769    magn:   -0.0010    constr:    0.0000
     atom:   46    charge:    0.8444    magn:    0.0070    constr:    0.0000
     atom:   47    charge:    0.8416    magn:    0.0074    constr:    0.0000
     atom:   48    charge:    0.8254    magn:   -0.0022    constr:    0.0000
     atom:   49    charge:    0.8248    magn:   -0.0014    constr:    0.0000
     atom:   50    charge:    0.8251    magn:   -0.0012    constr:    0.0000
     atom:   51    charge:    0.8264    magn:   -0.0020    constr:    0.0000
     atom:   52    charge:    7.4384    magn:    1.1543    constr:    0.0000
     atom:   53    charge:    7.4874    magn:    1.1559    constr:    0.0000
     atom:   54    charge:    1.9278    magn:    0.0392    constr:    0.0000
     atom:   55    charge:    1.9259    magn:    0.0360    constr:    0.0000
     atom:   56    charge:    1.9245    magn:    0.0356    constr:    0.0000
     atom:   57    charge:    1.9225    magn:    0.0348    constr:    0.0000
     atom:   58    charge:    1.9287    magn:    0.0361    constr:    0.0000
     atom:   59    charge:    1.9282    magn:    0.0389    constr:    0.0000
     atom:   60    charge:    1.9271    magn:    0.0417    constr:    0.0000
     atom:   61    charge:    1.9291    magn:    0.0359    constr:    0.0000
     atom:   62    charge:    2.4559    magn:    0.0122    constr:    0.0000
     atom:   63    charge:    2.4529    magn:    0.0127    constr:    0.0000
     atom:   64    charge:    2.4563    magn:    0.0129    constr:    0.0000
     atom:   65    charge:    2.4557    magn:    0.0134    constr:    0.0000
     atom:   66    charge:    0.8458    magn:    0.0033    constr:    0.0000
     atom:   67    charge:    0.8460    magn:    0.0035    constr:    0.0000
     atom:   68    charge:    0.3791    magn:   -0.0010    constr:    0.0000
     atom:   69    charge:    0.8422    magn:    0.0073    constr:    0.0000
     atom:   70    charge:    0.8423    magn:    0.0070    constr:    0.0000
     atom:   71    charge:    0.8246    magn:    0.0035    constr:    0.0000
     atom:   72    charge:    0.8263    magn:    0.0037    constr:    0.0000
     atom:   73    charge:    0.8294    magn:    0.0036    constr:    0.0000
     atom:   74    charge:    0.8288    magn:    0.0039    constr:    0.0000
     atom:   75    charge:    0.3787    magn:   -0.0010    constr:    0.0000
     atom:   76    charge:    0.8472    magn:    0.0083    constr:    0.0000
     atom:   77    charge:    0.8475    magn:    0.0079    constr:    0.0000
     atom:   78    charge:    0.3849    magn:   -0.0007    constr:    0.0000
     atom:   79    charge:    0.3868    magn:   -0.0012    constr:    0.0000
     atom:   80    charge:    0.8383    magn:    0.0074    constr:    0.0000
     atom:   81    charge:    0.8372    magn:    0.0071    constr:    0.0000
     atom:   82    charge:    0.3880    magn:   -0.0012    constr:    0.0000
     atom:   83    charge:    0.3846    magn:   -0.0007    constr:    0.0000
     atom:   84    charge:    0.8482    magn:    0.0087    constr:    0.0000
     atom:   85    charge:    0.8471    magn:    0.0084    constr:    0.0000
     atom:   86    charge:    0.3850    magn:   -0.0003    constr:    0.0000
     atom:   87    charge:    0.3827    magn:   -0.0005    constr:    0.0000
     atom:   88    charge:    0.8389    magn:    0.0072    constr:    0.0000
     atom:   89    charge:    0.8406    magn:    0.0070    constr:    0.0000
     atom:   90    charge:    0.3848    magn:   -0.0011    constr:    0.0000
     atom:   91    charge:    0.3851    magn:   -0.0009    constr:    0.0000
     atom:   92    charge:    0.8465    magn:    0.0035    constr:    0.0000
     atom:   93    charge:    0.8451    magn:    0.0039    constr:    0.0000
     atom:   94    charge:    0.3774    magn:   -0.0010    constr:    0.0000
     atom:   95    charge:    0.8436    magn:    0.0075    constr:    0.0000
     atom:   96    charge:    0.8421    magn:    0.0067    constr:    0.0000
     atom:   97    charge:    0.8243    magn:   -0.0014    constr:    0.0000
     atom:   98    charge:    0.8248    magn:   -0.0012    constr:    0.0000
     atom:   99    charge:    0.8258    magn:   -0.0020    constr:    0.0000
     atom:  100    charge:    0.8254    magn:   -0.0016    constr:    0.0000
     atom:  101    charge:    1.9270    magn:    0.0105    constr:    0.0000
     atom:  102    charge:    0.3416    magn:    0.0000    constr:    0.0000
     atom:  103    charge:    1.9350    magn:    0.0080    constr:    0.0000
     atom:  104    charge:    0.3502    magn:    0.0000    constr:    0.0000
     atom:  105    charge:    1.9258    magn:    0.0094    constr:    0.0000
     atom:  106    charge:    0.3422    magn:    0.0001    constr:    0.0000
     atom:  107    charge:    1.9302    magn:    0.0092    constr:    0.0000
     atom:  108    charge:    0.3470    magn:    0.0000    constr:    0.0000
     atom:  109    charge:    1.9245    magn:    0.0105    constr:    0.0000
     atom:  110    charge:    0.3366    magn:    0.0001    constr:    0.0000
     atom:  111    charge:    1.9282    magn:    0.0096    constr:    0.0000
     atom:  112    charge:    0.3436    magn:   -0.0000    constr:    0.0000
     atom:  113    charge:    1.9349    magn:    0.0088    constr:    0.0000
     atom:  114    charge:    0.3495    magn:    0.0001    constr:    0.0000
     atom:  115    charge:    1.9360    magn:    0.0080    constr:    0.0000
     atom:  116    charge:    0.3495    magn:    0.0000    constr:    0.0000

     total cpu time spent up to now is     3069.9 secs

     End of self-consistent calculation

 ------ SPIN UP ------------


          k = 0.0000 0.0000 0.0000 ( 91663 PWs)   bands (ev):

   -22.4973 -22.4800 -22.3448 -22.1342 -22.1212 -22.1121 -22.0946 -22.0825
   -21.8086 -21.7897 -21.7738 -21.7612 -21.6902 -21.6729 -21.6536 -21.6404
   -18.8378 -18.8295 -18.8199 -18.8155 -18.8038 -18.7840 -18.7727 -18.7649
   -18.7576 -18.7517 -18.7386 -18.7093 -18.6802 -18.6651 -18.6501 -18.6145
   -14.8697 -14.8258 -14.8172 -14.8055 -14.8025 -14.7756 -14.7478 -14.7261
   -13.6858 -13.6250 -13.5554 -13.5434 -13.5086 -13.4918 -13.4630 -13.4334
   -11.4819 -11.3885 -11.3740 -11.3511 -11.3282 -11.2998 -11.2739 -11.2278
   -11.1222 -11.0817 -11.0077 -10.9389 -10.9314 -10.8993 -10.8778 -10.7876
    -9.2246  -9.1238  -9.0871  -9.0491  -9.0036  -8.9227  -8.9172  -8.9168
    -8.8841  -8.8026  -8.7365  -8.6808  -8.6595  -8.6026  -8.5474  -8.4894
    -7.5590  -7.3636  -7.3096  -7.2665  -7.2528  -7.2143  -7.1881  -7.1706
    -7.1212  -7.0474  -7.0051  -6.9877  -6.7788  -6.7660  -6.6313  -6.5907
    -6.3388  -6.2874  -6.2640  -6.2419  -6.2160  -6.2011  -6.1794  -6.1524
    -6.1206  -6.1052  -6.0029  -5.9940  -5.8913  -5.8715  -5.8636  -5.8362
    -5.8213  -5.7741  -5.7629  -5.7358  -5.7076  -5.6992  -5.6577  -5.6159
    -5.6057  -5.4562  -5.4538  -5.4131  -5.3125  -5.3123  -5.2695  -5.2376
    -5.2049  -5.1885  -5.1739  -5.1090  -5.0843  -5.0719  -5.0043  -4.9055
    -4.5729  -4.4754  -4.4509  -4.4356  -4.4039  -4.3501  -4.3236  -4.2784
    -4.2687  -4.2465  -4.2200  -4.2020  -4.1843  -4.1392  -4.1048  -4.1024
    -4.0533  -4.0065  -3.9774  -3.9130  -3.8793  -3.8413  -3.7924  -3.7138
    -3.6532  -3.6073  -3.5183  -3.4516  -3.3793  -3.2397  -3.2169  -3.0449
    -2.8053  -2.7985  -2.7131  -2.6719  -2.6398  -2.5844  -2.5434  -2.5062
    -2.4650  -2.4455  -2.4360  -2.4093  -2.4003  -2.3699  -2.2719  -2.2443
    -2.1759  -2.1294  -2.0857  -1.9689  -1.9189  -1.8879  -1.8530  -1.7763
    -1.7645  -1.7355  -1.6847  -1.6519  -1.6399  -1.6289  -1.5723  -1.5343
    -1.5037  -1.4853  -1.4490  -1.4413  -1.4176  -1.3639  -1.3453  -1.3379
    -1.2919  -1.2384  -1.1887  -1.1774  -0.7476  -0.7043  -0.6564  -0.6347
    -0.6146  -0.5752  -0.4889  -0.3505   0.3953   0.4388   0.4955   0.5542
     0.7163   0.7535   0.7790   0.8256   2.3930   2.4153   2.4330   2.4591
[...]
     Harris-Foulkes estimate   =   -1878.49661867 Ry
     estimated scf accuracy    <          4.6E-09 Ry

     The total energy is the sum of the following terms:

     one-electron contribution =   -2733.45851953 Ry
     hartree contribution      =    1531.66622370 Ry
     xc contribution           =    -549.14575031 Ry
     ewald contribution        =    -129.87857853 Ry
     Dispersion Correction     =      -0.50512403 Ry
     smearing contrib. (-TS)   =       2.82513002 Ry

     total magnetization       =     8.00 Bohr mag/cell
     absolute magnetization    =     8.26 Bohr mag/cell

     convergence has been achieved in  12 iterations

     Forces acting on atoms (cartesian axes, Ry/au):

     atom    1 type  1   force =     0.00091494   -0.00046956   -0.00002851
     atom    2 type  2   force =    -0.00066375    0.00010712    0.00008972
     atom    3 type  3   force =     0.00057285    0.00034245   -0.00035761
     atom    4 type  3   force =     0.00022015    0.00010085   -0.00017204
     atom    5 type  3   force =     0.00023898    0.00055194    0.00005822
     atom    6 type  3   force =    -0.00032489    0.00039386    0.00059064
     atom    7 type  3   force =     0.00028450   -0.00010797    0.00002318
     atom    8 type  3   force =     0.00020628   -0.00044347   -0.00015914
     atom    9 type  3   force =     0.00029413   -0.00033518   -0.00009667
     atom   10 type  3   force =    -0.00006277    0.00046231    0.00018724
     atom   11 type  4   force =     0.00008390    0.00031210    0.00032869
     atom   12 type  4   force =    -0.00007073    0.00020070    0.00056039
     atom   13 type  4   force =    -0.00021401   -0.00043703    0.00021001
     atom   14 type  4   force =     0.00003954    0.00014740    0.00056721
     atom   15 type  5   force =     0.00007148    0.00023340    0.00017330
     atom   16 type  5   force =     0.00023551   -0.00040590   -0.00047974
     atom   17 type  6   force =     0.00017298   -0.00009063    0.00048351
     atom   18 type  6   force =     0.00018879    0.00070730   -0.00062073
     atom   19 type  5   force =    -0.00023775    0.00053676   -0.00016963
     atom   20 type  5   force =    -0.00083242    0.00056788   -0.00010430
     atom   21 type  5   force =    -0.00018379   -0.00017319    0.00053737
     atom   22 type  5   force =    -0.00025957   -0.00008820    0.00029871
     atom   23 type  6   force =    -0.00026529    0.00029325   -0.00020882
     atom   24 type  5   force =    -0.00016716    0.00000506    0.00030914
     atom   25 type  5   force =    -0.00024688   -0.00013982    0.00014191
     atom   26 type  6   force =    -0.00016634    0.00008489   -0.00025164
     atom   27 type  5   force =     0.00001520    0.00025476   -0.00083248
     atom   28 type  5   force =     0.00015864   -0.00015795   -0.00004800
     atom   29 type  6   force =    -0.00019750   -0.00000603   -0.00042157
     atom   30 type  6   force =     0.00013039   -0.00039018    0.00004465
     atom   31 type  5   force =    -0.00022183   -0.00019589    0.00014970
     atom   32 type  5   force =    -0.00005858    0.00011288   -0.00064042
     atom   33 type  6   force =    -0.00020156    0.00003619   -0.00003730
     atom   34 type  6   force =     0.00010774    0.00084532    0.00016498
     atom   35 type  5   force =     0.00028835   -0.00025372   -0.00031937
     atom   36 type  5   force =    -0.00000476   -0.00009424   -0.00046210
     atom   37 type  6   force =     0.00070212    0.00020070    0.00061418
     atom   38 type  6   force =    -0.00012633    0.00007909   -0.00035789
     atom   39 type  5   force =    -0.00025222   -0.00057167    0.00011344
     atom   40 type  5   force =    -0.00036396   -0.00005995    0.00052045
     atom   41 type  6   force =     0.00022177   -0.00041745   -0.00030988
     atom   42 type  6   force =    -0.00058144    0.00013012    0.00046556
     atom   43 type  5   force =    -0.00021206   -0.00024103   -0.00055127
     atom   44 type  5   force =     0.00012694    0.00013420    0.00041289
     atom   45 type  6   force =     0.00040980    0.00040244    0.00017194
     atom   46 type  5   force =     0.00005498   -0.00065735   -0.00059497
     atom   47 type  5   force =     0.00082389    0.00004868   -0.00024839
     atom   48 type  5   force =     0.00017704   -0.00000820   -0.00013434
     atom   49 type  5   force =     0.00037626    0.00052922   -0.00025563
     atom   50 type  5   force =     0.00012472   -0.00072550    0.00016261
     atom   51 type  5   force =    -0.00011398    0.00006794   -0.00013343
     atom   52 type  1   force =    -0.00034221   -0.00038011   -0.00025733
     atom   53 type  2   force =    -0.00013835    0.00031159    0.00020192
     atom   54 type  3   force =    -0.00006058    0.00026039   -0.00032113
     atom   55 type  3   force =     0.00098752   -0.00029730   -0.00041613
     atom   56 type  3   force =     0.00028287    0.00047599   -0.00023664
     atom   57 type  3   force =    -0.00009107   -0.00033028   -0.00010556
     atom   58 type  3   force =    -0.00001457    0.00024014    0.00019472
     atom   59 type  3   force =    -0.00048013   -0.00011308    0.00002908
     atom   60 type  3   force =     0.00048469   -0.00021344   -0.00001834
     atom   61 type  3   force =     0.00013414    0.00055928   -0.00056794
     atom   62 type  4   force =    -0.00032403    0.00063040    0.00024040
     atom   63 type  4   force =    -0.00038770    0.00000473    0.00004373
     atom   64 type  4   force =    -0.00017548    0.00021663    0.00023957
     atom   65 type  4   force =     0.00035939    0.00029770    0.00023623
     atom   66 type  5   force =    -0.00022730    0.00005193    0.00003268
     atom   67 type  5   force =    -0.00005583    0.00009230    0.00015501
     atom   68 type  6   force =     0.00038476   -0.00020496   -0.00015165
     atom   69 type  5   force =    -0.00016509    0.00011940   -0.00018130
     atom   70 type  5   force =    -0.00011370   -0.00061390    0.00016048
     atom   71 type  5   force =     0.00017898   -0.00025999   -0.00070981
     atom   72 type  5   force =    -0.00048262    0.00057925    0.00085538
     atom   73 type  5   force =    -0.00020457    0.00058599    0.00007760
     atom   74 type  5   force =    -0.00038825    0.00024947   -0.00078152
     atom   75 type  6   force =     0.00020145   -0.00009233   -0.00058007
     atom   76 type  5   force =     0.00027009   -0.00002896    0.00051340
     atom   77 type  5   force =    -0.00013964   -0.00052340   -0.00016432
     atom   78 type  6   force =    -0.00026749    0.00001697    0.00015267
     atom   79 type  6   force =     0.00008239   -0.00013743   -0.00031113
     atom   80 type  5   force =     0.00000535   -0.00042625   -0.00037974
     atom   81 type  5   force =     0.00000262   -0.00017312   -0.00050849
     atom   82 type  6   force =    -0.00073054   -0.00004299   -0.00045508
     atom   83 type  6   force =     0.00038317    0.00036764    0.00035006
     atom   84 type  5   force =     0.00039703    0.00012707    0.00084204
     atom   85 type  5   force =    -0.00065552    0.00005866   -0.00007791
     atom   86 type  6   force =     0.00070759   -0.00050748   -0.00008111
     atom   87 type  6   force =    -0.00003518    0.00027631    0.00029392
     atom   88 type  5   force =     0.00003089    0.00000343   -0.00054978
     atom   89 type  5   force =     0.00018467   -0.00040593    0.00001018
     atom   90 type  6   force =     0.00063796   -0.00002638   -0.00000883
     atom   91 type  6   force =    -0.00063692   -0.00023219    0.00013936
     atom   92 type  5   force =     0.00065492    0.00011948    0.00025489
     atom   93 type  5   force =     0.00009059    0.00004296    0.00000801
     atom   94 type  6   force =     0.00050983   -0.00006416    0.00069375
     atom   95 type  5   force =     0.00012134    0.00008440   -0.00064380
     atom   96 type  5   force =    -0.00043616   -0.00061790   -0.00035045
     atom   97 type  5   force =     0.00025431    0.00063521    0.00026452
     atom   98 type  5   force =    -0.00000174    0.00011916    0.00047550
     atom   99 type  5   force =    -0.00031135   -0.00037513    0.00048867
     atom  100 type  5   force =     0.00025982   -0.00047818   -0.00010129
     atom  101 type  3   force =    -0.00029750   -0.00002304   -0.00035211
     atom  102 type  6   force =     0.00000473    0.00008696   -0.00014205
     atom  103 type  3   force =    -0.00063276   -0.00072399   -0.00036018
     atom  104 type  6   force =     0.00020237    0.00019034    0.00052860
     atom  105 type  3   force =     0.00010177   -0.00001875    0.00043841
     atom  106 type  6   force =    -0.00058793    0.00003889    0.00076051
     atom  107 type  3   force =     0.00018690   -0.00031753    0.00025202
     atom  108 type  6   force =    -0.00028540   -0.00010691    0.00007881
     atom  109 type  3   force =    -0.00019012   -0.00034429   -0.00035027
     atom  110 type  6   force =    -0.00053527    0.00003774    0.00021991
     atom  111 type  3   force =    -0.00023627   -0.00010114   -0.00012690
     atom  112 type  6   force =     0.00000550   -0.00047395   -0.00009324
     atom  113 type  3   force =     0.00002895    0.00022653    0.00019954
     atom  114 type  6   force =     0.00005638   -0.00052234    0.00014464
     atom  115 type  3   force =     0.00025387    0.00026552   -0.00003111
     atom  116 type  6   force =    -0.00002788    0.00038565    0.00045526

     Total force =     0.006554     Total SCF correction =     0.000160

     bfgs converged in  76 scf cycles and  75 bfgs steps
     (criteria: energy <  1.0E-04 Ry, force <  1.0E-03 Ry/Bohr)

     End of BFGS Geometry Optimization

     Final energy   =   -1878.4966186736 Ry
Begin final coordinates

ATOMIC_POSITIONS (crystal)
Ni2           0.2506532324        0.7510312923        0.8362368160
Ni1           0.4990224395        0.2467866008        0.3400313265
O             0.1189044800        0.3668047739        0.3631850519
O             0.3702061023        0.6528658051        0.8930490682
O             0.3824084955        0.1442150400        0.3847625087
O             0.1333225759        0.8613266251        0.8614214664
O             0.4648836022        0.3586771078        0.4767496118
O             0.2130019587        0.6342700948        0.9734371932
O             0.0307513126        0.1421765804        0.4775469693
O             0.2779500623        0.8587984684        0.9808992901
N             0.3168190235        0.8454161395        0.7045294868
N             0.0685948819        0.1543211754        0.2013973805
N             0.1908283698        0.6560129791        0.7007703748
N             0.4368199036        0.3450303463        0.2068099052
C             0.3034380849        0.9666239461        0.5233401194
C             0.0369205673        0.0198200216        0.0364452281
H             0.2553368544        0.9970137552        0.4422165942
H             0.4894752447       -0.0072620653        0.9581532584
C             0.4031928294        0.0110446523        0.5528384533
C             0.1468403108        0.9898416408        0.0401630334
C             0.4621374408        0.9668151979        0.6607574781
C             0.2122873136        0.0406601380        0.1326742477
H             0.2950049877        1.0159983148        0.1468036724
C             0.2084752997        0.5288021138        0.5274018457
C             0.4542427743        0.4740559349        0.0350185034
H             0.2610454963        0.4911209351        0.4582331258
C             0.2507894063        0.6084674793        0.6089425159
C             0.4948112030        0.3899134303        0.1111690839
H             0.3332513979        0.6349700419        0.6034387499
H             0.0768287577        0.3637887078        0.1024196675
C             0.2625342394        0.8836000515        0.5986508815
C             0.0037541881        0.1080438232        0.1132220346
H             0.1851903583        0.8478379788        0.5771194238
H             0.4190813170        0.1367751433        0.1003614393
C             0.4133579313        0.8836835288        0.7346480983
C             0.1714357398        0.1205174301        0.2138090287
H             0.4553438158        0.8511728477        0.8197692115
H             0.2203329315        0.1567269397        0.2904342395
C             0.0888105059        0.6279584145        0.7128831210
C             0.3383969753        0.3804229867        0.2282801566
H             0.0422323921        0.6665242862        0.7877805494
H             0.2940259047        0.3441881587        0.3069453693
C             0.0409432049        0.5463041773        0.6350762193
C             0.2911598619        0.4653062333        0.1544167458
H             0.4508717118        0.5068992485        0.6478021729
C             0.1026043610        0.4950273463        0.5381324945
C             0.3515260656        0.5137709066        0.0539665985
C             0.4425083233        0.0998377366        0.4737586870
C             0.1868583158        0.9021976508        0.9597602959
C             0.0621773435        0.4069425072        0.4560664547
C             0.3102744165        0.6020653890        0.9728896471
Ni2           0.7422220431        0.7554865610        0.8351315480
Ni1           0.9997310944        0.2500401568        0.3316256312
O             0.6173337878        0.3475312543        0.3827693121
O             0.8601633675        0.6406672194        0.8533004441
O             0.8835978729        0.1342676644        0.3633173244
O             0.6280429765        0.8662306062        0.8733640930
O             0.9713850513        0.3624481007        0.4698243194
O             0.7197207492        0.6433723681        0.9729859735
O             0.5362510434        0.1400908510        0.4838953304
O             0.7801058745        0.8654581638        0.9791259244
N             0.8088446561        0.8467680456        0.6979725134
N             0.5599370095        0.1508568286        0.2105765177
N             0.6695617745        0.6601437137        0.7009801900
N             0.9310848076        0.3458901598        0.1943427051
C             0.7956715781        0.9722459025        0.5206352446
C             0.5415982618        0.0276433885        0.0326589658
H             0.7442064149        1.0080878138        0.4461971599
C             0.9000491071        0.0085478276        0.5414665519
C             0.6463247492        0.9914083100        0.0506746708
C             0.9602606503        0.9587819598        0.6450496566
C             0.7081157681        0.0381121206        0.1542917039
C             0.7048321424        0.5249158023        0.5388998780
C             0.9606398589        0.4801852776        0.0293564599
H             0.5044896820        0.5089241924        0.9613326185
C             0.7339329006        0.6170061732        0.6134731227
C             0.9954069762        0.3932248609        0.1096083790
H             0.8119126465        0.6533952036        0.6004848647
H             0.5745099895        0.3577282225        0.0982468944
C             0.7520524028        0.8921220949        0.5984072808
C             0.5003703950        0.1073466865        0.1123427957
H             0.6707248931        0.8640989608        0.5834112069
H             0.9228417391        0.1387579068        0.1010168665
C             0.9100886893        0.8759138409        0.7186809436
C             0.6602888808        0.1186117120        0.2318953528
H             0.9548977579        0.8386783936        0.7982631167
H             0.7056832819        0.1544187794        0.3124354500
C             0.5694605761        0.6204842606        0.7136758625
C             0.8276034751        0.3776525516        0.2005909200
H             0.5204260344        0.6551244728        0.7887132585
H             0.7794241286        0.3413085453        0.2749637581
C             0.5315132036        0.5365590754        0.6343629370
C             0.7857660636        0.4573954004        0.1175917738
H             0.7027425295        0.4809787270        0.1271030130
C             0.5975906619        0.4876031056        0.5446525786
C             0.8505582465        0.5095013899        0.0292216745
C             0.9409921252        0.0959910144        0.4607324274
C             0.6871805742        0.9065938157        0.9675261692
C             0.5599322161        0.3963693426        0.4668476779
C             0.8095038802        0.5989131738        0.9498573760
O             0.5573653987        0.0010853953        0.6950451203
H             0.5849431983        0.9534754182        0.7687213864
O             0.9688996929        0.9644618434        0.9650874518
H             0.8945722015       -0.0306336545        0.9960921711
O             0.9403490851        0.5200746417        0.6555929411
H             0.9142008773        0.5624253083        0.7324041320
O             0.1942182176        0.4978251178        0.1822438871
H             0.1666462673        0.4512991131        0.2554286586
O             0.0578885884       -0.0125676796        0.6752549546
H             0.0845131150        0.9415843310        0.7510337773
O             0.8069899990        1.0081104915        0.1805312947
H             0.8361952432        0.0535277270        0.2561146367
O             0.7750661516        0.4743060770        0.4691444775
H             0.8476959201        0.4917525326        0.5029893349
O             0.0262835983        0.5346870544        0.9572843477
H             0.1019305444        0.5325202260        0.9887360953
End final coordinates



     Writing output data file ../structural_relaxation/NiPyC2_relax_meta_functionalized_OH.save/
 
     init_run     :     41.77s CPU     43.59s WALL (       1 calls)
     electrons    :  61244.26s CPU  76077.07s WALL (      76 calls)
     update_pot   :    618.53s CPU    665.89s WALL (      75 calls)
     forces       :   1220.09s CPU   1427.52s WALL (      76 calls)

     Called by init_run:
     wfcinit      :     32.58s CPU     33.77s WALL (       1 calls)
     potinit      :      3.83s CPU      4.20s WALL (       1 calls)
     hinit0       :      3.88s CPU      4.10s WALL (       1 calls)

     Called by electrons:
     c_bands      :  57081.43s CPU  70355.96s WALL (    1050 calls)
     sum_band     :   2606.38s CPU   3570.34s WALL (    1050 calls)
     v_of_rho     :    747.04s CPU    959.55s WALL (    1112 calls)
     mix_rho      :    804.89s CPU   1125.09s WALL (    1050 calls)

     Called by c_bands:
     init_us_2    :     51.71s CPU     56.53s WALL (    2101 calls)
     regterg      :  56790.18s CPU  68943.11s WALL (    1050 calls)

     Called by sum_band:

     Called by *egterg:
     h_psi        :  21034.66s CPU  25905.84s WALL (    3762 calls)
     g_psi        :     12.89s CPU     13.39s WALL (    2711 calls)
     rdiaghg      :   2597.11s CPU   2614.58s WALL (    3672 calls)

     Called by h_psi:
     h_psi:calbec :   5879.13s CPU   7120.36s WALL (    3762 calls)
     vloc_psi     :   9399.73s CPU  13007.02s WALL (    3762 calls)
     add_vuspsi   :   5701.66s CPU   5720.14s WALL (    3762 calls)

     General routines
     calbec       :   6641.28s CPU   8055.22s WALL (    4066 calls)
     fft          :    515.21s CPU    793.64s WALL (   17543 calls)
     ffts         :    544.67s CPU    781.16s WALL (   18420 calls)
     fftw         :  10009.17s CPU  14356.20s WALL (  784970 calls)
 
     Parallel routines
     fft_scatt_xy :   1898.35s CPU   2040.58s WALL (  820933 calls)
     fft_scatt_yz :   3276.49s CPU   7546.66s WALL (  820933 calls)
 
     PWSCF        :     17h32m CPU     21h44m WALL

 
   This run was terminated on:  10:45:39   2Jun2020            

=------------------------------------------------------------------------------=
   JOB DONE.
=------------------------------------------------------------------------------=
QE finished Tue Jun 2 10:45:39 PDT 2020
