/apps/openmpi/3.1_intel-19/bin/mpiexec
starting QE Mon May 18 23:57:22 PDT 2020

     Program PWSCF v.6.5 starts on 18May2020 at 23:57:22 

     This program is part of the open-source Quantum ESPRESSO suite
     for quantum simulation of materials; please cite
         "P. Giannozzi et al., J. Phys.:Condens. Matter 21 395502 (2009);
         "P. Giannozzi et al., J. Phys.:Condens. Matter 29 465901 (2017);
          URL http://www.quantum-espresso.org", 
     in publications or presentations arising from this work. More details at
     http://www.quantum-espresso.org/quote

     Parallel version (MPI), running on     4 processors

     MPI processes distributed on     1 nodes
     K-points division:     npool     =       2
     R & G space division:  proc/nbgrp/npool/nimage =       2
     Reading input from pw.NiPyC2_sc211.relax.in
Warning: card &CELL ignored
Warning: card    CELL_DYNAMICS='BFGS' ignored
Warning: card    CELL_DOFREE='XYZ' ignored
Warning: card / ignored
Warning: card NI1     0.747002        0.751486        0.836326 ignored
Warning: card NI2     0.999972        0.247999        0.339178 ignored
Warning: card O       0.622779        0.347689        0.382873 ignored
Warning: card O       0.871208        0.650977        0.881292 ignored
Warning: card O       0.877630        0.147507        0.377178 ignored
Warning: card O       0.625098        0.852352        0.876261 ignored
Warning: card O       0.973069        0.356160        0.482994 ignored
Warning: card O       0.721137        0.641415        0.979877 ignored
Warning: card O       0.528840        0.135158        0.481078 ignored
Warning: card O       0.776686        0.862758        0.979399 ignored
Warning: card N       0.808437        0.851253        0.704828 ignored
Warning: card N       0.560729        0.148857        0.206052 ignored
Warning: card N       0.686543        0.650310        0.705838 ignored
Warning: card N       0.938810        0.350928        0.208041 ignored
Warning: card C       0.788212        0.970050        0.521984 ignored
Warning: card C       0.538379        0.031106        0.022308 ignored
Warning: card H       0.737124        0.999575        0.443113 ignored
Warning: card H       0.986538        0.002692        0.943499 ignored
Warning: card C       0.890634        0.011770        0.546492 ignored
Warning: card C       0.640244        0.987744        0.046146 ignored
Warning: card C       0.951915        0.970202        0.650371 ignored
Warning: card C       0.702520        0.028353        0.149893 ignored
Warning: card H       0.532062        0.998805        0.673520 ignored
Warning: card H       0.782340        0.998665        0.172602 ignored
Warning: card C       0.708182        0.529704        0.526384 ignored
Warning: card C       0.958546        0.471409        0.027904 ignored
Warning: card H       0.758700        0.500895        0.449282 ignored
Warning: card H       0.508641        0.500397        0.950548 ignored
Warning: card C       0.745137        0.613331        0.606435 ignored
Warning: card C       0.996819        0.388677        0.108617 ignored
Warning: card H       0.822641        0.650506        0.592635 ignored
Warning: card H       0.574968        0.352851        0.095028 ignored
Warning: card C       0.749476        0.889206        0.603203 ignored
Warning: card C       0.501069        0.112232        0.104247 ignored
Warning: card H       0.670154        0.855123        0.588560 ignored
Warning: card H       0.922322        0.147732        0.089886 ignored
Warning: card C       0.907977        0.889383        0.727552 ignored
Warning: card C       0.659934        0.109547        0.227812 ignored
Warning: card H       0.953370        0.855173        0.808761 ignored
Warning: card H       0.706240        0.143103        0.308797 ignored
Warning: card C       0.588862        0.608983        0.727352 ignored
Warning: card C       0.840890        0.391633        0.229394 ignored
Warning: card H       0.543729        0.642944        0.806608 ignored
Warning: card H       0.796378        0.357526        0.309051 ignored
Warning: card C       0.546925        0.525079        0.651312 ignored
Warning: card C       0.797658        0.474711        0.152754 ignored
Warning: card H       0.968672        0.493231        0.673502 ignored
Warning: card H       0.718952        0.505201        0.175264 ignored
Warning: card C       0.608164        0.484270        0.550116 ignored
Warning: card C       0.857832        0.515656        0.050638 ignored
Warning: card C       0.933310        0.099319        0.466621 ignored
Warning: card C       0.681517        0.899720        0.965672 ignored
Warning: card C       0.567377        0.394474        0.470676 ignored
Warning: card C       0.816043        0.604172        0.969107 ignored

     Current dimensions of program PWSCF are:
     Max number of different atomic species (ntypx) = 10
     Max number of k-points (npk) =  40000
     Max angular momentum in pseudopotentials (lmaxx) =  3

     -------------------------------------------------
     Parameters for Dispersion (Grimme-D2) Correction:
     -------------------------------------------------
       atom      VdW radius       C_6     

        Ni1        2.952        374.666
        Ni2        2.952        374.666
        H          1.892          4.857
        O          2.536         24.284
        N          2.640         42.670
        C          2.744         60.710

     gamma-point specific algorithms are used

     Subspace diagonalization in iterative solution of the eigenvalue problem:
     a serial algorithm will be used

 
     Parallelization info
     --------------------
     sticks:   dense  smooth     PW     G-vecs:    dense   smooth      PW
     Min        8913    8913   2227               733493   733493   91669
     Max        8916    8916   2230               733496   733496   91672
     Sum       17829   17829   4457              1466989  1466989  183341
 

     Title: 
     NiPyC2_relax_sc211                                                         


     bravais-lattice index     =            0
     lattice parameter (alat)  =      23.6361  a.u.
     unit-cell volume          =   10858.6450 (a.u.)^3
     number of atoms/cell      =           54
     number of atomic types    =            6
     number of electrons       =       200.00 (up: 102.00, down:  98.00)
     number of Kohn-Sham states=          122
     kinetic-energy cutoff     =     100.0000  Ry
     charge density cutoff     =     400.0000  Ry
     convergence threshold     =      1.0E-06
     mixing beta               =       0.7000
     number of iterations used =            8  local-TF  mixing
     Exchange-correlation= PBESOL
                           (   1   4  10   8   0   0   0)
     nstep                     =          200


     celldm(1)=  23.636072  celldm(2)=   0.000000  celldm(3)=   0.000000
     celldm(4)=   0.000000  celldm(5)=   0.000000  celldm(6)=   0.000000

     crystal axes: (cart. coord. in units of alat)
               a(1) = (   0.999834   0.000000  -0.018196 )  
               a(2) = (   0.000000   1.001258   0.000000 )  
               a(3) = (   0.000000   0.000000   0.821440 )  

     reciprocal axes: (cart. coord. in units 2 pi/alat)
               b(1) = (  1.000166  0.000000  0.000000 )  
               b(2) = ( -0.000000  0.998744  0.000000 )  
               b(3) = (  0.022155 -0.000000  1.217375 )  


     PseudoPot. # 1 for Ni read from file:
     pseudo/Ni.pbesol-n-nc.UPF
     MD5 check sum: 623411631e0c2eb7c0b2b9815547d2d9
     Pseudo is Norm-conserving + core correction, Zval = 10.0
     Generated using "atomic" code by A. Dal Corso v.6.5
     Using radial grid of 1195 points,  2 beta functions with: 
                l(1) =   1
                l(2) =   2

     PseudoPot. # 2 for Ni read from file:
     pseudo/Ni.pbesol-n-nc.UPF
     MD5 check sum: 623411631e0c2eb7c0b2b9815547d2d9
     Pseudo is Norm-conserving + core correction, Zval = 10.0
     Generated using "atomic" code by A. Dal Corso v.6.5
     Using radial grid of 1195 points,  2 beta functions with: 
                l(1) =   1
                l(2) =   2

     PseudoPot. # 3 for H  read from file:
     pseudo/H.pbesol-n-nc.UPF
     MD5 check sum: 7995ef24074557c85b430109caaacc09
     Pseudo is Norm-conserving, Zval =  1.0
     Generated using "atomic" code by A. Dal Corso v.6.5
     Using radial grid of  929 points,  0 beta functions with: 

     PseudoPot. # 4 for O  read from file:
     pseudo/O.pbesol-nc.UPF
     MD5 check sum: 73d10e7e91dbfcbe8a7e362101007f84
     Pseudo is Norm-conserving, Zval =  6.0
     Generated using "atomic" code by A. Dal Corso v.6.5
     Using radial grid of 1095 points,  1 beta functions with: 
                l(1) =   1

     PseudoPot. # 5 for N  read from file:
     pseudo/N.pbesol-nc.UPF
     MD5 check sum: e18cc5e4b8a5600c1a19b30c2cab1ca0
     Pseudo is Norm-conserving, Zval =  5.0
     Generated using "atomic" code by A. Dal Corso v.6.5
     Using radial grid of 1085 points,  1 beta functions with: 
                l(1) =   1

     PseudoPot. # 6 for C  read from file:
     pseudo/C.pbesol-nc.UPF
     MD5 check sum: ce26087537ded160c8d400e183a8bf42
     Pseudo is Norm-conserving, Zval =  4.0
     Generated using "atomic" code by A. Dal Corso v.6.5
     Using radial grid of 1073 points,  1 beta functions with: 
                l(1) =   1

     atomic species   valence    mass     pseudopotential
        Ni1           10.00    58.69000     Ni( 1.00)
        Ni2           10.00    58.69000     Ni( 1.00)
        H              1.00     1.00000     H ( 1.00)
        O              6.00    16.00000     O ( 1.00)
        N              5.00    65.38000     N ( 1.00)
        C              4.00    65.38000     C ( 1.00)

     Starting magnetic structure 
     atomic species   magnetization
        Ni1          0.250
        Ni2          0.250
        H            0.000
        O            0.000
        N            0.000
        C            0.000

     No symmetry found



   Cartesian axes

     site n.     atom                  positions (alat units)
         1           Ni1 tau(   1) = (   0.2469611   0.7524310   0.6824970  )
         2           Ni2 tau(   2) = (   0.4998892   0.2483109   0.2695167  )
         3           O   tau(   3) = (   0.1227577   0.3481262   0.3122730  )
         4           O   tau(   4) = (   0.3711465   0.6517956   0.7171738  )
         5           O   tau(   5) = (   0.3775675   0.1476925   0.3029576  )
         6           O   tau(   6) = (   0.1250773   0.8534239   0.7175194  )
         7           O   tau(   7) = (   0.4729907   0.3566079   0.3881424  )
         8           O   tau(   8) = (   0.2211004   0.6422216   0.8008862  )
         9           O   tau(   9) = (   0.0288352   0.1353280   0.3946519  )
        10           O   tau(  10) = (   0.2766402   0.8638430   0.7994827  )
        11           N   tau(  11) = (   0.3083859   0.8523235   0.5733614  )
        12           N   tau(  12) = (   0.0607189   0.1490442   0.1681543  )
        13           N   tau(  13) = (   0.1865111   0.6511278   0.5764091  )
        14           N   tau(  14) = (   0.4387373   0.3513693   0.1629084  )
        15           C   tau(  15) = (   0.2881643   0.9712699   0.4235341  )
        16           C   tau(  16) = (   0.0383726   0.0311451   0.0176263  )
        17           H   tau(  17) = (   0.2370847   1.0008320   0.3596759  )
        18           H   tau(  18) = (   0.4864574   0.0026954   0.7661745  )
        19           C   tau(  19) = (   0.3905693   0.0117848   0.4418022  )
        20           C   tau(  20) = (   0.1402208   0.9889861   0.0353542  )
        21           C   tau(  21) = (   0.4518402   0.9714221   0.5260175  )
        22           C   tau(  22) = (   0.2024865   0.0283887   0.1194430  )
        23           H   tau(  23) = (   0.0320577   1.0000611   0.5526728  )
        24           H   tau(  24) = (   0.2822933   0.9999209   0.1366446  )
        25           C   tau(  25) = (   0.2081465   0.5303701   0.4286047  )
        26           C   tau(  26) = (   0.4584691   0.4720018   0.0145776  )
        27           H   tau(  27) = (   0.2586572   0.5015249   0.3643508  )
        28           H   tau(  28) = (   0.0086396   0.5010263   0.7806608  )
        29           C   tau(  29) = (   0.2450964   0.6141023   0.4936893  )
        30           C   tau(  30) = (   0.4967367   0.3891658   0.0801820  )
        31           H   tau(  31) = (   0.3225876   0.6513240   0.4809432  )
        32           H   tau(  32) = (   0.0749556   0.3532947   0.0766956  )
        33           C   tau(  33) = (   0.2494347   0.8903242   0.4909555  )
        34           C   tau(  34) = (   0.0010688   0.1123731   0.0856132  )
        35           H   tau(  35) = (   0.1701258   0.8561984   0.4803705  )
        36           H   tau(  36) = (   0.4222521   0.1479178   0.0661512  )
        37           C   tau(  37) = (   0.4079095   0.8905015   0.5902166  )
        38           C   tau(  38) = (   0.1599085   0.1096848   0.1842236  )
        39           H   tau(  39) = (   0.4532949   0.8562484   0.6560989  )
        40           H   tau(  40) = (   0.2062049   0.1432830   0.2499054  )
        41           C   tau(  41) = (   0.0888473   0.6097488   0.5958590  )
        42           C   tau(  42) = (   0.3408336   0.3921255   0.1822304  )
        43           H   tau(  43) = (   0.0437218   0.6437525   0.6617843  )
        44           H   tau(  44) = (   0.2963289   0.3579756   0.2484738  )
        45           C   tau(  45) = (   0.0469172   0.5257393   0.5341598  )
        46           C   tau(  46) = (   0.2976087   0.4753080   0.1200619  )
        47           H   tau(  47) = (   0.4685944   0.4938513   0.5447133  )
        48           H   tau(  48) = (   0.2189157   0.5058363   0.1399847  )
        49           C   tau(  49) = (   0.1081461   0.4848790   0.4499190  )
        50           C   tau(  50) = (   0.3577728   0.5163045   0.0350848  )
        51           C   tau(  51) = (   0.4332383   0.0994439   0.3754164  )
        52           C   tau(  52) = (   0.1814869   0.9008515   0.7899386  )
        53           C   tau(  53) = (   0.0673668   0.3949701   0.3854060  )
        54           C   tau(  54) = (   0.3159907   0.6049318   0.7903123  )

     number of k points=     1  Marzari-Vanderbilt smearing, width (Ry)=  0.2000
                       cart. coord. in units 2pi/alat
        k(    1) = (   0.0000000   0.0000000   0.0000000), wk =   1.0000000

     Dense  grid:   733495 G-vectors     FFT dimensions: ( 160, 160, 125)

     Estimated max dynamical RAM per process >       1.33 GB

     Estimated total dynamical RAM >       5.31 GB
     Generating pointlists ...
     new r_m :   0.0654 (alat units)  1.5469 (a.u.) for type    1
     new r_m :   0.0662 (alat units)  1.5638 (a.u.) for type    2
     new r_m :   0.0358 (alat units)  0.8450 (a.u.) for type    3
     new r_m :   0.0423 (alat units)  0.9994 (a.u.) for type    4
     new r_m :   0.0445 (alat units)  1.0510 (a.u.) for type    5
     new r_m :   0.0358 (alat units)  0.8450 (a.u.) for type    6

     Check: negative core charge=   -0.000096

     Initial potential from superposition of free atoms

     starting charge  199.99835, renormalised to  200.00000
     Starting wfcs are  178 randomized atomic wfcs

     total cpu time spent up to now is       80.5 secs

     Self-consistent Calculation

     iteration #  1     ecut=   100.00 Ry     beta= 0.70
     Davidson diagonalization with overlap
     ethr =  1.00E-02,  avg # of iterations =  2.0

     total cpu time spent up to now is      170.0 secs

     total energy              =    -806.86728361 Ry
     Harris-Foulkes estimate   =    -810.28384045 Ry
     estimated scf accuracy    <       9.80899741 Ry

     total magnetization       =     4.00 Bohr mag/cell
     absolute magnetization    =     4.25 Bohr mag/cell

     iteration #  2     ecut=   100.00 Ry     beta= 0.70
     Davidson diagonalization with overlap
     ethr =  4.90E-03,  avg # of iterations =  2.0

     total cpu time spent up to now is      230.8 secs

     total energy              =    -807.29105277 Ry
     Harris-Foulkes estimate   =    -809.49362169 Ry
     estimated scf accuracy    <      12.60534360 Ry

     total magnetization       =     4.00 Bohr mag/cell
     absolute magnetization    =     4.30 Bohr mag/cell

     iteration #  3     ecut=   100.00 Ry     beta= 0.70
     Davidson diagonalization with overlap
     ethr =  4.90E-03,  avg # of iterations =  2.0

     total cpu time spent up to now is      290.8 secs

     total energy              =    -807.98817739 Ry
     Harris-Foulkes estimate   =    -808.64490120 Ry
     estimated scf accuracy    <       4.59322833 Ry

     total magnetization       =     4.00 Bohr mag/cell
     absolute magnetization    =     4.08 Bohr mag/cell

     iteration #  4     ecut=   100.00 Ry     beta= 0.70
     Davidson diagonalization with overlap
     ethr =  2.30E-03,  avg # of iterations =  2.0

     total cpu time spent up to now is      351.2 secs

     total energy              =    -808.14408741 Ry
     Harris-Foulkes estimate   =    -808.41886154 Ry
     estimated scf accuracy    <       2.59764403 Ry

     total magnetization       =     4.00 Bohr mag/cell
     absolute magnetization    =     4.05 Bohr mag/cell

     iteration #  5     ecut=   100.00 Ry     beta= 0.70
     Davidson diagonalization with overlap
     ethr =  1.30E-03,  avg # of iterations =  1.0

     total cpu time spent up to now is      411.2 secs

     total energy              =    -808.18687520 Ry
     Harris-Foulkes estimate   =    -808.35153797 Ry
     estimated scf accuracy    <       1.23567027 Ry

     total magnetization       =     4.00 Bohr mag/cell
     absolute magnetization    =     4.05 Bohr mag/cell

     iteration #  6     ecut=   100.00 Ry     beta= 0.70
     Davidson diagonalization with overlap
     ethr =  6.18E-04,  avg # of iterations =  3.5

     total cpu time spent up to now is      475.5 secs

     total energy              =    -808.24998302 Ry
     Harris-Foulkes estimate   =    -808.28046979 Ry
     estimated scf accuracy    <       0.35918870 Ry

     total magnetization       =     4.00 Bohr mag/cell
     absolute magnetization    =     4.05 Bohr mag/cell

     iteration #  7     ecut=   100.00 Ry     beta= 0.70
     Davidson diagonalization with overlap
     ethr =  1.80E-04,  avg # of iterations =  2.0

     total cpu time spent up to now is      538.3 secs

     total energy              =    -808.25162569 Ry
     Harris-Foulkes estimate   =    -808.27075472 Ry
     estimated scf accuracy    <       0.17562066 Ry

     total magnetization       =     4.00 Bohr mag/cell
     absolute magnetization    =     4.05 Bohr mag/cell

     iteration #  8     ecut=   100.00 Ry     beta= 0.70
     Davidson diagonalization with overlap
     ethr =  8.78E-05,  avg # of iterations =  2.0

     total cpu time spent up to now is      599.2 secs

     total energy              =    -808.25519561 Ry
     Harris-Foulkes estimate   =    -808.26087150 Ry
     estimated scf accuracy    <       0.05495826 Ry

     total magnetization       =     4.00 Bohr mag/cell
     absolute magnetization    =     4.04 Bohr mag/cell

     iteration #  9     ecut=   100.00 Ry     beta= 0.70
     Davidson diagonalization with overlap
     ethr =  2.75E-05,  avg # of iterations =  6.5

     total cpu time spent up to now is      663.7 secs

     total energy              =    -808.25737083 Ry
     Harris-Foulkes estimate   =    -808.26235209 Ry
     estimated scf accuracy    <       0.09629765 Ry

     total magnetization       =     4.00 Bohr mag/cell
     absolute magnetization    =     4.04 Bohr mag/cell

     iteration # 10     ecut=   100.00 Ry     beta= 0.70
     Davidson diagonalization with overlap
     ethr =  2.75E-05,  avg # of iterations =  1.0

     total cpu time spent up to now is      722.0 secs

     total energy              =    -808.25965620 Ry
     Harris-Foulkes estimate   =    -808.26035744 Ry
     estimated scf accuracy    <       0.02067150 Ry

     total magnetization       =     4.00 Bohr mag/cell
     absolute magnetization    =     4.04 Bohr mag/cell

     iteration # 11     ecut=   100.00 Ry     beta= 0.70
     Davidson diagonalization with overlap
     ethr =  1.03E-05,  avg # of iterations =  9.0

     total cpu time spent up to now is      789.2 secs

     total energy              =    -808.26133525 Ry
     Harris-Foulkes estimate   =    -808.26255250 Ry
     estimated scf accuracy    <       0.01039247 Ry

     total magnetization       =     4.00 Bohr mag/cell
     absolute magnetization    =     4.03 Bohr mag/cell

     iteration # 12     ecut=   100.00 Ry     beta= 0.70
     Davidson diagonalization with overlap
     ethr =  5.20E-06,  avg # of iterations =  5.5

     total cpu time spent up to now is      853.6 secs

     total energy              =    -808.26661074 Ry
     Harris-Foulkes estimate   =    -808.26602654 Ry
     estimated scf accuracy    <       0.00915301 Ry

     total magnetization       =     4.00 Bohr mag/cell
     absolute magnetization    =     4.03 Bohr mag/cell

     iteration # 13     ecut=   100.00 Ry     beta= 0.70
     Davidson diagonalization with overlap
     ethr =  4.58E-06,  avg # of iterations =  2.0

     total cpu time spent up to now is      913.3 secs

     total energy              =    -808.26903584 Ry
     Harris-Foulkes estimate   =    -808.26894876 Ry
     estimated scf accuracy    <       0.00761951 Ry

     total magnetization       =     4.00 Bohr mag/cell
     absolute magnetization    =     4.03 Bohr mag/cell

     iteration # 14     ecut=   100.00 Ry     beta= 0.70
     Davidson diagonalization with overlap
     ethr =  3.81E-06,  avg # of iterations =  2.0

     total cpu time spent up to now is      974.5 secs

     total energy              =    -808.27150619 Ry
     Harris-Foulkes estimate   =    -808.27163390 Ry
     estimated scf accuracy    <       0.00493419 Ry

     total magnetization       =     4.00 Bohr mag/cell
     absolute magnetization    =     4.03 Bohr mag/cell

     iteration # 15     ecut=   100.00 Ry     beta= 0.70
     Davidson diagonalization with overlap
     ethr =  2.47E-06,  avg # of iterations =  3.0

     total cpu time spent up to now is     1036.3 secs

     total energy              =    -808.27350952 Ry
     Harris-Foulkes estimate   =    -808.27356607 Ry
     estimated scf accuracy    <       0.00999816 Ry

     total magnetization       =     4.00 Bohr mag/cell
     absolute magnetization    =     4.03 Bohr mag/cell

     iteration # 16     ecut=   100.00 Ry     beta= 0.70
     Davidson diagonalization with overlap
     ethr =  2.47E-06,  avg # of iterations =  2.0

     total cpu time spent up to now is     1095.9 secs

     total energy              =    -808.27242587 Ry
     Harris-Foulkes estimate   =    -808.27395022 Ry
     estimated scf accuracy    <       0.01120970 Ry

     total magnetization       =     4.00 Bohr mag/cell
     absolute magnetization    =     4.02 Bohr mag/cell

     iteration # 17     ecut=   100.00 Ry     beta= 0.70
     Davidson diagonalization with overlap
     ethr =  2.47E-06,  avg # of iterations =  2.5

     total cpu time spent up to now is     1160.4 secs

     total energy              =    -808.27317864 Ry
     Harris-Foulkes estimate   =    -808.27373595 Ry
     estimated scf accuracy    <       0.00575775 Ry

     total magnetization       =     4.00 Bohr mag/cell
     absolute magnetization    =     4.02 Bohr mag/cell

     iteration # 18     ecut=   100.00 Ry     beta= 0.70
     Davidson diagonalization with overlap
     ethr =  2.47E-06,  avg # of iterations =  3.0

     total cpu time spent up to now is     1221.3 secs

     total energy              =    -808.27316768 Ry
     Harris-Foulkes estimate   =    -808.27358864 Ry
     estimated scf accuracy    <       0.00413994 Ry

     total magnetization       =     4.00 Bohr mag/cell
     absolute magnetization    =     4.01 Bohr mag/cell

     iteration # 19     ecut=   100.00 Ry     beta= 0.70
     Davidson diagonalization with overlap
     ethr =  2.07E-06,  avg # of iterations =  1.0

     total cpu time spent up to now is     1279.6 secs

     total energy              =    -808.27343215 Ry
     Harris-Foulkes estimate   =    -808.27335506 Ry
     estimated scf accuracy    <       0.00045588 Ry

     total magnetization       =     4.00 Bohr mag/cell
     absolute magnetization    =     4.01 Bohr mag/cell

     iteration # 20     ecut=   100.00 Ry     beta= 0.70
     Davidson diagonalization with overlap
     ethr =  2.28E-07,  avg # of iterations =  5.0

     total cpu time spent up to now is     1344.0 secs

     total energy              =    -808.27353859 Ry
     Harris-Foulkes estimate   =    -808.27348133 Ry
     estimated scf accuracy    <       0.00022026 Ry

     total magnetization       =     4.00 Bohr mag/cell
     absolute magnetization    =     4.01 Bohr mag/cell

     iteration # 21     ecut=   100.00 Ry     beta= 0.70
     Davidson diagonalization with overlap
     ethr =  1.10E-07,  avg # of iterations =  2.5

     total cpu time spent up to now is     1407.2 secs

     total energy              =    -808.27359626 Ry
     Harris-Foulkes estimate   =    -808.27359165 Ry
     estimated scf accuracy    <       0.00025865 Ry

     total magnetization       =     4.00 Bohr mag/cell
     absolute magnetization    =     4.01 Bohr mag/cell

     iteration # 22     ecut=   100.00 Ry     beta= 0.70
     Davidson diagonalization with overlap
     ethr =  1.10E-07,  avg # of iterations =  2.0

     total cpu time spent up to now is     1467.6 secs

     total energy              =    -808.27363093 Ry
     Harris-Foulkes estimate   =    -808.27363445 Ry
     estimated scf accuracy    <       0.00018657 Ry

     total magnetization       =     4.00 Bohr mag/cell
     absolute magnetization    =     4.01 Bohr mag/cell

     iteration # 23     ecut=   100.00 Ry     beta= 0.70
     Davidson diagonalization with overlap
     ethr =  9.33E-08,  avg # of iterations =  2.5

     total cpu time spent up to now is     1528.7 secs

     total energy              =    -808.27366805 Ry
     Harris-Foulkes estimate   =    -808.27366874 Ry
     estimated scf accuracy    <       0.00009663 Ry

     total magnetization       =     4.00 Bohr mag/cell
     absolute magnetization    =     4.01 Bohr mag/cell

     iteration # 24     ecut=   100.00 Ry     beta= 0.70
     Davidson diagonalization with overlap
     ethr =  4.83E-08,  avg # of iterations =  3.5

     total cpu time spent up to now is     1594.9 secs

     total energy              =    -808.27369988 Ry
     Harris-Foulkes estimate   =    -808.27369934 Ry
     estimated scf accuracy    <       0.00004080 Ry

     total magnetization       =     4.00 Bohr mag/cell
     absolute magnetization    =     4.01 Bohr mag/cell

     iteration # 25     ecut=   100.00 Ry     beta= 0.70
     Davidson diagonalization with overlap
     ethr =  2.04E-08,  avg # of iterations =  2.5

     total cpu time spent up to now is     1655.6 secs

     total energy              =    -808.27371217 Ry
     Harris-Foulkes estimate   =    -808.27370714 Ry
     estimated scf accuracy    <       0.00001552 Ry

     total magnetization       =     4.00 Bohr mag/cell
     absolute magnetization    =     4.01 Bohr mag/cell

     iteration # 26     ecut=   100.00 Ry     beta= 0.70
     Davidson diagonalization with overlap
     ethr =  7.76E-09,  avg # of iterations =  3.0

     total cpu time spent up to now is     1723.9 secs

     total energy              =    -808.27371893 Ry
     Harris-Foulkes estimate   =    -808.27372118 Ry
     estimated scf accuracy    <       0.00003899 Ry

     total magnetization       =     4.00 Bohr mag/cell
     absolute magnetization    =     4.01 Bohr mag/cell

     iteration # 27     ecut=   100.00 Ry     beta= 0.70
     Davidson diagonalization with overlap
     ethr =  7.76E-09,  avg # of iterations =  2.0

     total cpu time spent up to now is     1784.2 secs

     total energy              =    -808.27372244 Ry
     Harris-Foulkes estimate   =    -808.27372235 Ry
     estimated scf accuracy    <       0.00001064 Ry

     total magnetization       =     4.00 Bohr mag/cell
     absolute magnetization    =     4.01 Bohr mag/cell

     iteration # 28     ecut=   100.00 Ry     beta= 0.70
     Davidson diagonalization with overlap
     ethr =  5.32E-09,  avg # of iterations =  3.0

     total cpu time spent up to now is     1852.5 secs

     total energy              =    -808.27373595 Ry
     Harris-Foulkes estimate   =    -808.27373339 Ry
     estimated scf accuracy    <       0.00000297 Ry

     total magnetization       =     4.00 Bohr mag/cell
     absolute magnetization    =     4.01 Bohr mag/cell

     iteration # 29     ecut=   100.00 Ry     beta= 0.70
     Davidson diagonalization with overlap
     ethr =  1.48E-09,  avg # of iterations =  4.0

     total cpu time spent up to now is     1920.4 secs

     total energy              =    -808.27374040 Ry
     Harris-Foulkes estimate   =    -808.27373836 Ry
     estimated scf accuracy    <       0.00000176 Ry

     total magnetization       =     4.00 Bohr mag/cell
     absolute magnetization    =     4.01 Bohr mag/cell

     iteration # 30     ecut=   100.00 Ry     beta= 0.70
     Davidson diagonalization with overlap
     ethr =  8.82E-10,  avg # of iterations =  4.0

     total cpu time spent up to now is     1992.7 secs

     total energy              =    -808.27374300 Ry
     Harris-Foulkes estimate   =    -808.27374433 Ry
     estimated scf accuracy    <       0.00000164 Ry

     total magnetization       =     4.00 Bohr mag/cell
     absolute magnetization    =     4.01 Bohr mag/cell

     iteration # 31     ecut=   100.00 Ry     beta= 0.70
     Davidson diagonalization with overlap
     ethr =  8.19E-10,  avg # of iterations =  4.0

     total cpu time spent up to now is     2072.5 secs

     total energy              =    -808.27375167 Ry
     Harris-Foulkes estimate   =    -808.27375388 Ry
     estimated scf accuracy    <       0.00000136 Ry

     total magnetization       =     4.00 Bohr mag/cell
     absolute magnetization    =     4.01 Bohr mag/cell

     iteration # 32     ecut=   100.00 Ry     beta= 0.70
     Davidson diagonalization with overlap
     ethr =  6.80E-10,  avg # of iterations =  4.5
 
     Magnetic moment per site:
     atom:    1    charge:    7.4429    magn:    0.1540    constr:    0.0000
     atom:    2    charge:    7.5372    magn:    0.4025    constr:    0.0000
     atom:    3    charge:    3.2055    magn:    0.0047    constr:    0.0000
     atom:    4    charge:    3.2520    magn:    0.0064    constr:    0.0000
     atom:    5    charge:    3.2312    magn:    0.0044    constr:    0.0000
     atom:    6    charge:    3.2480    magn:    0.0060    constr:    0.0000
     atom:    7    charge:    3.0964    magn:    0.1895    constr:    0.0000
     atom:    8    charge:    3.2556    magn:    0.0059    constr:    0.0000
     atom:    9    charge:    3.0828    magn:    1.1572    constr:    0.0000
     atom:   10    charge:    3.2535    magn:    0.0059    constr:    0.0000
     atom:   11    charge:    2.4396    magn:    0.0019    constr:    0.0000
     atom:   12    charge:    2.4007    magn:    0.0066    constr:    0.0000
     atom:   13    charge:    2.4453    magn:    0.0019    constr:    0.0000
     atom:   14    charge:    2.4305    magn:    0.0021    constr:    0.0000
     atom:   15    charge:    0.8397    magn:    0.0011    constr:    0.0000
     atom:   16    charge:    0.7960    magn:    0.0050    constr:    0.0000
     atom:   17    charge:    0.4816    magn:    0.0001    constr:    0.0000
     atom:   18    charge:    0.2502    magn:    0.0293    constr:    0.0000
     atom:   19    charge:    0.8351    magn:    0.0005    constr:    0.0000
     atom:   20    charge:    0.8367    magn:    0.0006    constr:    0.0000
     atom:   21    charge:    0.8022    magn:    0.0061    constr:    0.0000
     atom:   22    charge:    0.8411    magn:    0.0009    constr:    0.0000
     atom:   23    charge:    0.2450    magn:    0.0122    constr:    0.0000
     atom:   24    charge:    0.4801    magn:   -0.0001    constr:    0.0000
     atom:   25    charge:    0.8413    magn:    0.0010    constr:    0.0000
     atom:   26    charge:    0.7981    magn:    0.0050    constr:    0.0000
     atom:   27    charge:    0.4837    magn:   -0.0000    constr:    0.0000
     atom:   28    charge:    0.2502    magn:    0.0269    constr:    0.0000
     atom:   29    charge:    0.8351    magn:    0.0005    constr:    0.0000
     atom:   30    charge:    0.7947    magn:    0.0044    constr:    0.0000
     atom:   31    charge:    0.4868    magn:   -0.0001    constr:    0.0000
     atom:   32    charge:    0.2464    magn:    0.0314    constr:    0.0000
     atom:   33    charge:    0.8338    magn:    0.0004    constr:    0.0000
     atom:   34    charge:    0.7910    magn:    0.0040    constr:    0.0000
     atom:   35    charge:    0.4853    magn:   -0.0001    constr:    0.0000
     atom:   36    charge:    0.2567    magn:    0.0135    constr:    0.0000
     atom:   37    charge:    0.8329    magn:    0.0006    constr:    0.0000
     atom:   38    charge:    0.8297    magn:    0.0012    constr:    0.0000
     atom:   39    charge:    0.4834    magn:    0.0002    constr:    0.0000
     atom:   40    charge:    0.4823    magn:    0.0003    constr:    0.0000
     atom:   41    charge:    0.8333    magn:    0.0006    constr:    0.0000
     atom:   42    charge:    0.8337    magn:    0.0009    constr:    0.0000
     atom:   43    charge:    0.4852    magn:    0.0002    constr:    0.0000
     atom:   44    charge:    0.4854    magn:   -0.0001    constr:    0.0000
     atom:   45    charge:    0.8035    magn:    0.0062    constr:    0.0000
     atom:   46    charge:    0.8414    magn:    0.0007    constr:    0.0000
     atom:   47    charge:    0.2425    magn:    0.0818    constr:    0.0000
     atom:   48    charge:    0.4814    magn:   -0.0001    constr:    0.0000
     atom:   49    charge:    0.8355    magn:    0.0006    constr:    0.0000
     atom:   50    charge:    0.8373    magn:    0.0006    constr:    0.0000
     atom:   51    charge:    0.7766    magn:    0.0023    constr:    0.0000
     atom:   52    charge:    0.8191    magn:   -0.0001    constr:    0.0000
     atom:   53    charge:    0.7747    magn:    0.0021    constr:    0.0000
     atom:   54    charge:    0.8208    magn:   -0.0000    constr:    0.0000

     total cpu time spent up to now is     2157.1 secs

     End of self-consistent calculation

 ------ SPIN UP ------------


          k = 0.0000 0.0000 0.0000 ( 91671 PWs)   bands (ev):

   -25.4684 -25.3379 -24.8017 -23.5697 -22.4088 -22.4023 -22.3899 -22.3650
   -22.2565 -21.9047 -20.8801 -19.5124 -18.6809 -18.6189 -18.5683 -18.4258
   -17.1888 -17.1489 -16.9758 -16.8578 -14.8892 -14.7092 -14.6495 -14.5141
   -13.9201 -13.8953 -13.7921 -13.5039 -12.3088 -12.0927 -11.7579 -11.6413
   -11.0319 -10.6701 -10.6542 -10.5598 -10.4922 -10.4099 -10.2490 -10.1872
    -9.6605  -9.5381  -9.5057  -9.3830  -9.2311  -9.1698  -9.1045  -9.0039
    -8.9345  -8.8656  -8.8012  -8.7261  -8.6400  -8.4309  -8.3120  -8.2470
    -8.2009  -8.1101  -8.0077  -7.9131  -7.5584  -7.4028  -7.0286  -6.9362
    -6.6844  -6.6164  -6.3367  -6.2830  -6.2719  -6.1784  -6.1004  -6.0643
    -6.0238  -5.9524  -5.8217  -5.7617  -5.6110  -5.5112  -5.4358  -5.4056
    -5.3480  -5.1726  -5.1252  -5.0896  -5.0698  -4.9474  -4.9313  -4.9081
    -4.8688  -4.7116  -4.6402  -4.3739  -4.3202  -4.2341  -4.1045  -4.0910
    -3.7139  -3.6690  -3.6121  -3.4642  -3.3427  -3.2533  -2.9483  -2.8436
    -2.8075  -2.7313  -2.5997  -2.5730  -2.4992  -2.2786  -1.7377  -1.4176
    -1.0154  -0.8959  -0.3449   0.0954   0.2755   0.3135   0.4112   0.7751
     1.0295   1.3564

 ------ SPIN DOWN ----------


          k = 0.0000 0.0000 0.0000 ( 91671 PWs)   bands (ev):

   -25.4570 -25.3267 -24.7910 -23.5592 -22.3992 -22.3878 -22.3763 -22.3588
   -22.2508 -21.8892 -18.9767 -18.6712 -18.6097 -18.5561 -18.4181 -17.3561
   -17.1793 -17.1391 -16.9617 -16.8398 -14.8793 -14.7000 -14.6394 -14.5032
   -13.9092 -13.8848 -13.7801 -13.4902 -12.2993 -12.0849 -11.7479 -11.6312
   -11.0211 -10.6577 -10.6443 -10.5511 -10.4804 -10.3973 -10.2368 -10.1744
    -9.6375  -9.5225  -9.4893  -9.3695  -9.2161  -9.1559  -9.0931  -8.9925
    -8.9212  -8.8489  -8.7857  -8.7025  -8.6186  -8.4137  -8.2935  -8.2369
    -8.1875  -8.0871  -7.9880  -7.8943  -7.5330  -7.3505  -6.9897  -6.8901
    -6.6093  -6.5514  -6.2377  -6.1300  -6.0338  -6.0269  -5.9579  -5.7604
    -5.7260  -5.6225  -5.4697  -5.3480  -5.1058  -5.0541  -5.0412  -5.0170
    -4.9085  -4.8881  -4.8746  -4.8364  -4.8012  -4.6715  -4.6113  -4.5350
    -4.0765  -3.9805  -3.8136  -3.7856  -3.7344  -3.6441  -3.5536  -3.5050
    -3.3092  -3.2757  -2.8116  -2.7836  -2.7771  -2.6933  -2.6387  -2.5888
    -2.5281  -2.4412  -2.4153  -2.3293  -2.2213  -2.2044  -1.6980  -1.3819
    -0.9898  -0.8666  -0.2479   0.1196   0.2978   0.3360   0.4399   0.7917
     1.0459   1.3822

     the spin up/dw Fermi energies are    -2.9576   -2.9907 ev

!    total energy              =    -808.27376388 Ry
     Harris-Foulkes estimate   =    -808.27376255 Ry
     estimated scf accuracy    <       0.00000083 Ry

     The total energy is the sum of the following terms:

     one-electron contribution =   -2138.14782695 Ry
     hartree contribution      =    1118.49666856 Ry
     xc contribution           =    -242.40926599 Ry
     ewald contribution        =     453.69257098 Ry
     Dispersion Correction     =      -0.14043587 Ry
     smearing contrib. (-TS)   =       0.23452539 Ry

     total magnetization       =     4.00 Bohr mag/cell
     absolute magnetization    =     4.01 Bohr mag/cell

     convergence has been achieved in  32 iterations

     Forces acting on atoms (cartesian axes, Ry/au):

     atom    1 type  1   force =     0.01032854   -0.00253142    0.01000320
     atom    2 type  2   force =    -0.07085514    0.07803661    0.08391662
     atom    3 type  4   force =    -0.21091072    0.12876689    0.22857654
     atom    4 type  4   force =    -0.00266190    0.00271452    0.00034951
     atom    5 type  4   force =     0.11339274   -0.05976173    0.10101023
     atom    6 type  4   force =     0.00744683    0.00032914    0.00369759
     atom    7 type  4   force =     0.02436455   -0.06381371   -0.06629819
     atom    8 type  4   force =    -0.00012613    0.00141177   -0.00098421
     atom    9 type  4   force =     0.00183644   -0.00755719    0.00620737
     atom   10 type  4   force =    -0.00491377   -0.00174561   -0.00379257
     atom   11 type  5   force =    -0.01621545   -0.00669488   -0.00331859
     atom   12 type  5   force =    -0.06706032   -0.05896554   -0.12512671
     atom   13 type  5   force =     0.01249022    0.00798012   -0.00243113
     atom   14 type  5   force =     0.08085076   -0.01124030   -0.04204593
     atom   15 type  6   force =    -0.02344241   -0.02028573    0.00775437
     atom   16 type  6   force =    -0.01252328    0.07726014    0.08039995
     atom   17 type  3   force =     0.00196378    0.00507629   -0.00392694
     atom   18 type  3   force =    -0.00689007    0.00847119    0.00406123
     atom   19 type  6   force =     0.09164699    0.04341775    0.00964400
     atom   20 type  6   force =    -0.01662091   -0.01859311   -0.03118126
     atom   21 type  6   force =    -0.08148206   -0.03701740   -0.01162744
     atom   22 type  6   force =    -0.01324235    0.01352683    0.00578542
     atom   23 type  3   force =     0.00199692    0.00494559   -0.00605280
     atom   24 type  3   force =     0.00232037   -0.00476377   -0.00599634
     atom   25 type  6   force =     0.02471070    0.02455851    0.00884575
     atom   26 type  6   force =     0.01656888   -0.08455188    0.08195532
     atom   27 type  3   force =    -0.00018658   -0.00652046   -0.00610674
     atom   28 type  3   force =     0.00698025   -0.00910174    0.00464477
     atom   29 type  6   force =    -0.00729738   -0.01194103   -0.00383972
     atom   30 type  6   force =    -0.08342955    0.06767956   -0.01624427
     atom   31 type  3   force =    -0.00057696   -0.00190608    0.00017295
     atom   32 type  3   force =    -0.00379108    0.00734672   -0.00581601
     atom   33 type  6   force =     0.00897920    0.00871568    0.00070119
     atom   34 type  6   force =     0.12162288   -0.03098299    0.04779875
     atom   35 type  3   force =     0.00147776    0.00150328    0.00084483
     atom   36 type  3   force =     0.00770518   -0.00737426   -0.00142585
     atom   37 type  6   force =     0.05705995    0.02201872    0.01158134
     atom   38 type  6   force =    -0.00839017    0.01486606    0.01265446
     atom   39 type  3   force =    -0.00483909   -0.00558765    0.00396322
     atom   40 type  3   force =    -0.00569247    0.00327172   -0.00048626
     atom   41 type  6   force =    -0.05686482   -0.02564333    0.01129164
     atom   42 type  6   force =    -0.03744790    0.02143885    0.00100460
     atom   43 type  3   force =     0.00216788    0.00637034    0.00648881
     atom   44 type  3   force =     0.00290948   -0.00299277    0.00186216
     atom   45 type  6   force =     0.08069151    0.04483193   -0.00897862
     atom   46 type  6   force =     0.01702956   -0.02978914    0.01760816
     atom   47 type  3   force =    -0.00125238   -0.00601771   -0.00688449
     atom   48 type  3   force =    -0.00344411    0.00497292   -0.00593560
     atom   49 type  6   force =    -0.10006450   -0.03913591    0.02185918
     atom   50 type  6   force =     0.01993887    0.02253763   -0.03749807
     atom   51 type  6   force =    -0.13595932    0.04920049   -0.11436748
     atom   52 type  6   force =     0.00222513   -0.01083144   -0.00970553
     atom   53 type  6   force =     0.26235255   -0.11616582   -0.24666810
     atom   54 type  6   force =    -0.00487711    0.01026334   -0.00794432

     Total force =     0.702359     Total SCF correction =     0.001082

     BFGS Geometry Optimization

     number of scf cycles    =   1
     number of bfgs steps    =   0

     energy   new            =    -808.2737638823 Ry

     new trust radius        =       0.3783761466 bohr
     new conv_thr            =       0.0000010000 Ry


ATOMIC_POSITIONS (crystal)
Ni1           0.2474390546        0.7513790348        0.8368508960
Ni2           0.4969737492        0.2512964428        0.3434337037
O             0.1138532667        0.3531300548        0.3944481225
O             0.3710953609        0.6510917023        0.8813075063
O             0.3824282389        0.1449817634        0.3824868156
O             0.1254131144        0.8523659080        0.8764584245
O             0.4740999913        0.3534635468        0.4796021539
O             0.2211316627        0.6414746546        0.9798261902
O             0.0289177095        0.1348386704        0.4813994316
O             0.2764780726        0.8626842391        0.9791990581
N             0.3077508396        0.8509701071        0.7046418767
N             0.0578913279        0.1463654067        0.1995444968
N             0.1870705264        0.6506472006        0.7057244928
N             0.4422312177        0.3504530401        0.2059512127
C             0.2872200291        0.9691928251        0.5223614145
C             0.0378490747        0.0343706331        0.0264372556
H             0.2372070979        0.9997894989        0.4429125841
H             0.4862464451        0.0030499506        0.9437017148
C             0.3945120627        0.0136046202        0.5470746198
C             0.1395406827        0.9869583467        0.0445244311
C             0.4484670688        0.9686378272        0.6496957516
C             0.2019596472        0.0289245773        0.1501785651
H             0.0321475001        0.9990139761        0.6732101228
H             0.2824381869        0.9984637063        0.1722953337
C             0.2092266385        0.5307417218        0.5268627626
C             0.4592461158        0.4678362540        0.0321406349
H             0.2586921046        0.5006194776        0.4489672978
H             0.0089363706        0.5000124053        0.9507937713
C             0.2448282096        0.6128264311        0.6062303953
C             0.4932886601        0.3915368049        0.1077021365
H             0.3226165858        0.6504254584        0.5926433667
H             0.0748075797        0.3531614361        0.0947248932
C             0.2498559567        0.8895742817        0.6032475313
C             0.0062154990        0.1109228115        0.1068228761
H             0.1702165317        0.8551865212        0.5886048981
H             0.4226480465        0.1474204000        0.0898197840
C             0.4103915043        0.8903134027        0.7282019817
C             0.1595799680        0.1101751666        0.2284559028
H             0.4531652329        0.8549368933        0.8089605893
H             0.2059981220        0.1432412467        0.3087666195
C             0.0864557526        0.6078994394        0.7278802726
C             0.3393053841        0.3925389002        0.2294106398
H             0.0438207343        0.6432131794        0.8069442379
H             0.2965011155        0.3573995402        0.3091496376
C             0.0503394787        0.5269733765        0.6509251934
C             0.2983786097        0.4734522578        0.1536768700
H             0.4686190054        0.4929767210        0.6731462411
H             0.2188062618        0.5054111312        0.1749550587
C             0.1039297487        0.4826163094        0.5511480594
C             0.3586757177        0.5166083291        0.0487253538
C             0.4275568514        0.1013979703        0.4606030672
C             0.1816111569        0.8992623165        0.9651742030
C             0.0784795057        0.3895654046        0.4582172924
C             0.3158366241        0.6046056784        0.9686932568



     Writing output data file ./NiPyC2_relax_sc211.save/
     NEW-OLD atomic charge density approx. for the potential

     Check: negative core charge=   -0.000097

     total cpu time spent up to now is     2247.9 secs

     Self-consistent Calculation

     iteration #  1     ecut=   100.00 Ry     beta= 0.70
     Davidson diagonalization with overlap
     c_bands:  1 eigenvalues not converged
     ethr =  1.00E-06,  avg # of iterations = 20.0

     total cpu time spent up to now is     2531.6 secs

     total energy              =    -807.95509422 Ry
     Harris-Foulkes estimate   =    -808.11482786 Ry
     estimated scf accuracy    <       0.50377615 Ry

     total magnetization       =     4.00 Bohr mag/cell
     absolute magnetization    =     4.01 Bohr mag/cell

     iteration #  2     ecut=   100.00 Ry     beta= 0.70
     Davidson diagonalization with overlap
     ethr =  2.52E-04,  avg # of iterations =  2.0

     total cpu time spent up to now is     2592.2 secs

     total energy              =    -807.93562517 Ry
     Harris-Foulkes estimate   =    -808.01223419 Ry
     estimated scf accuracy    <       0.35299362 Ry

     total magnetization       =     4.00 Bohr mag/cell
     absolute magnetization    =     4.01 Bohr mag/cell

     iteration #  3     ecut=   100.00 Ry     beta= 0.70
     Davidson diagonalization with overlap
     ethr =  1.76E-04,  avg # of iterations =  2.0

     total cpu time spent up to now is     2652.3 secs

     total energy              =    -807.94120201 Ry
     Harris-Foulkes estimate   =    -808.02667194 Ry
     estimated scf accuracy    <       1.01205090 Ry

     total magnetization       =     4.00 Bohr mag/cell
     absolute magnetization    =     4.01 Bohr mag/cell

     iteration #  4     ecut=   100.00 Ry     beta= 0.70
     Davidson diagonalization with overlap
     ethr =  1.76E-04,  avg # of iterations =  1.0

     total cpu time spent up to now is     2709.9 secs

     total energy              =    -807.95948873 Ry
     Harris-Foulkes estimate   =    -807.99675475 Ry
     estimated scf accuracy    <       0.42362995 Ry

     total magnetization       =     4.00 Bohr mag/cell
     absolute magnetization    =     4.01 Bohr mag/cell

     iteration #  5     ecut=   100.00 Ry     beta= 0.70
     Davidson diagonalization with overlap
     ethr =  1.76E-04,  avg # of iterations =  1.0

     total cpu time spent up to now is     2767.8 secs

     total energy              =    -807.97312645 Ry
     Harris-Foulkes estimate   =    -807.97932038 Ry
     estimated scf accuracy    <       0.04824670 Ry

     total magnetization       =     4.00 Bohr mag/cell
     absolute magnetization    =     4.01 Bohr mag/cell

     iteration #  6     ecut=   100.00 Ry     beta= 0.70
     Davidson diagonalization with overlap
     ethr =  2.41E-05,  avg # of iterations = 12.5

     total cpu time spent up to now is     2833.6 secs

     total energy              =    -807.97271297 Ry
     Harris-Foulkes estimate   =    -807.97565726 Ry
     estimated scf accuracy    <       0.02424761 Ry

     total magnetization       =     4.00 Bohr mag/cell
     absolute magnetization    =     4.01 Bohr mag/cell

     iteration #  7     ecut=   100.00 Ry     beta= 0.70
     Davidson diagonalization with overlap
     ethr =  1.21E-05,  avg # of iterations =  2.5

     total cpu time spent up to now is     2892.8 secs

     total energy              =    -807.97253215 Ry
     Harris-Foulkes estimate   =    -807.97464627 Ry
     estimated scf accuracy    <       0.01574070 Ry

     total magnetization       =     4.00 Bohr mag/cell
     absolute magnetization    =     4.02 Bohr mag/cell

     iteration #  8     ecut=   100.00 Ry     beta= 0.70
     Davidson diagonalization with overlap
     ethr =  7.87E-06,  avg # of iterations =  1.0

     total cpu time spent up to now is     2951.2 secs

     total energy              =    -807.97298454 Ry
     Harris-Foulkes estimate   =    -807.97455601 Ry
     estimated scf accuracy    <       0.01784968 Ry

     total magnetization       =     4.00 Bohr mag/cell
     absolute magnetization    =     4.01 Bohr mag/cell

     iteration #  9     ecut=   100.00 Ry     beta= 0.70
     Davidson diagonalization with overlap
     ethr =  7.87E-06,  avg # of iterations =  1.0

     total cpu time spent up to now is     3009.8 secs

     total energy              =    -807.97380456 Ry
     Harris-Foulkes estimate   =    -807.97382487 Ry
     estimated scf accuracy    <       0.00115874 Ry

     total magnetization       =     4.00 Bohr mag/cell
     absolute magnetization    =     4.01 Bohr mag/cell

     iteration # 10     ecut=   100.00 Ry     beta= 0.70
     Davidson diagonalization with overlap
     ethr =  5.79E-07,  avg # of iterations = 11.5

     total cpu time spent up to now is     3081.5 secs

     total energy              =    -807.97398588 Ry
     Harris-Foulkes estimate   =    -807.97390927 Ry
     estimated scf accuracy    <       0.00035853 Ry

     total magnetization       =     4.00 Bohr mag/cell
     absolute magnetization    =     4.02 Bohr mag/cell

     iteration # 11     ecut=   100.00 Ry     beta= 0.70
     Davidson diagonalization with overlap
     ethr =  1.79E-07,  avg # of iterations =  2.0

     total cpu time spent up to now is     3141.4 secs

     total energy              =    -807.97403614 Ry
     Harris-Foulkes estimate   =    -807.97401044 Ry
     estimated scf accuracy    <       0.00021066 Ry

     total magnetization       =     4.00 Bohr mag/cell
     absolute magnetization    =     4.02 Bohr mag/cell

     iteration # 12     ecut=   100.00 Ry     beta= 0.70
     Davidson diagonalization with overlap
     ethr =  1.05E-07,  avg # of iterations =  3.0

     total cpu time spent up to now is     3201.9 secs

     total energy              =    -807.97404929 Ry
     Harris-Foulkes estimate   =    -807.97405131 Ry
     estimated scf accuracy    <       0.00012084 Ry

     total magnetization       =     4.00 Bohr mag/cell
     absolute magnetization    =     4.02 Bohr mag/cell

     iteration # 13     ecut=   100.00 Ry     beta= 0.70
     Davidson diagonalization with overlap
     ethr =  6.04E-08,  avg # of iterations =  3.5

     total cpu time spent up to now is     3265.4 secs

     total energy              =    -807.97406091 Ry
     Harris-Foulkes estimate   =    -807.97406209 Ry
     estimated scf accuracy    <       0.00003826 Ry

     total magnetization       =     4.00 Bohr mag/cell
     absolute magnetization    =     4.02 Bohr mag/cell

     iteration # 14     ecut=   100.00 Ry     beta= 0.70
     Davidson diagonalization with overlap
     ethr =  1.91E-08,  avg # of iterations =  2.5

     total cpu time spent up to now is     3328.0 secs

     total energy              =    -807.97406433 Ry
     Harris-Foulkes estimate   =    -807.97406654 Ry
     estimated scf accuracy    <       0.00004679 Ry

     total magnetization       =     4.00 Bohr mag/cell
     absolute magnetization    =     4.02 Bohr mag/cell

     iteration # 15     ecut=   100.00 Ry     beta= 0.70
     Davidson diagonalization with overlap
     ethr =  1.91E-08,  avg # of iterations =  2.0

     total cpu time spent up to now is     3387.3 secs

     total energy              =    -807.97406426 Ry
     Harris-Foulkes estimate   =    -807.97406822 Ry
     estimated scf accuracy    <       0.00002451 Ry

     total magnetization       =     4.00 Bohr mag/cell
     absolute magnetization    =     4.02 Bohr mag/cell

     iteration # 16     ecut=   100.00 Ry     beta= 0.70
     Davidson diagonalization with overlap
     ethr =  1.23E-08,  avg # of iterations =  2.5

     total cpu time spent up to now is     3451.2 secs

     total energy              =    -807.97406924 Ry
     Harris-Foulkes estimate   =    -807.97406969 Ry
     estimated scf accuracy    <       0.00001515 Ry

     total magnetization       =     4.00 Bohr mag/cell
     absolute magnetization    =     4.01 Bohr mag/cell

     iteration # 17     ecut=   100.00 Ry     beta= 0.70
     Davidson diagonalization with overlap
     ethr =  7.58E-09,  avg # of iterations =  2.0

     total cpu time spent up to now is     3511.6 secs

     total energy              =    -807.97407166 Ry
     Harris-Foulkes estimate   =    -807.97407154 Ry
     estimated scf accuracy    <       0.00000695 Ry

     total magnetization       =     4.00 Bohr mag/cell
     absolute magnetization    =     4.01 Bohr mag/cell

     iteration # 18     ecut=   100.00 Ry     beta= 0.70
     Davidson diagonalization with overlap
     ethr =  3.48E-09,  avg # of iterations =  3.0

     total cpu time spent up to now is     3576.1 secs

     total energy              =    -807.97407362 Ry
     Harris-Foulkes estimate   =    -807.97407339 Ry
     estimated scf accuracy    <       0.00000466 Ry

     total magnetization       =     4.00 Bohr mag/cell
     absolute magnetization    =     4.01 Bohr mag/cell

     iteration # 19     ecut=   100.00 Ry     beta= 0.70
     Davidson diagonalization with overlap
     ethr =  2.33E-09,  avg # of iterations =  2.5

     total cpu time spent up to now is     3636.8 secs

     total energy              =    -807.97407484 Ry
     Harris-Foulkes estimate   =    -807.97407469 Ry
     estimated scf accuracy    <       0.00000333 Ry

     total magnetization       =     4.00 Bohr mag/cell
     absolute magnetization    =     4.01 Bohr mag/cell

     iteration # 20     ecut=   100.00 Ry     beta= 0.70
     Davidson diagonalization with overlap
     ethr =  1.67E-09,  avg # of iterations =  2.5

     total cpu time spent up to now is     3700.0 secs

     total energy              =    -807.97407580 Ry
     Harris-Foulkes estimate   =    -807.97407586 Ry
     estimated scf accuracy    <       0.00000111 Ry

     total magnetization       =     4.00 Bohr mag/cell
     absolute magnetization    =     4.01 Bohr mag/cell

     iteration # 21     ecut=   100.00 Ry     beta= 0.70
     Davidson diagonalization with overlap
     ethr =  5.53E-10,  avg # of iterations =  3.5
 
     Magnetic moment per site:
     atom:    1    charge:    7.4426    magn:    0.2302    constr:    0.0000
     atom:    2    charge:    7.5348    magn:    0.3843    constr:    0.0000
     atom:    3    charge:    3.1745    magn:    0.0018    constr:    0.0000
     atom:    4    charge:    3.2560    magn:    0.0094    constr:    0.0000
     atom:    5    charge:    3.2533    magn:    0.0054    constr:    0.0000
     atom:    6    charge:    3.2527    magn:    0.0090    constr:    0.0000
     atom:    7    charge:    3.0900    magn:    0.1136    constr:    0.0000
     atom:    8    charge:    3.2590    magn:    0.0088    constr:    0.0000
     atom:    9    charge:    3.0907    magn:    1.0713    constr:    0.0000
     atom:   10    charge:    3.2568    magn:    0.0087    constr:    0.0000
     atom:   11    charge:    2.4238    magn:    0.0031    constr:    0.0000
     atom:   12    charge:    2.4129    magn:    0.0074    constr:    0.0000
     atom:   13    charge:    2.4278    magn:    0.0029    constr:    0.0000
     atom:   14    charge:    2.4099    magn:    0.0031    constr:    0.0000
     atom:   15    charge:    0.8284    magn:    0.0017    constr:    0.0000
     atom:   16    charge:    0.7998    magn:    0.0074    constr:    0.0000
     atom:   17    charge:    0.4815    magn:    0.0000    constr:    0.0000
     atom:   18    charge:    0.2526    magn:    0.0378    constr:    0.0000
     atom:   19    charge:    0.8294    magn:    0.0007    constr:    0.0000
     atom:   20    charge:    0.8304    magn:    0.0007    constr:    0.0000
     atom:   21    charge:    0.8091    magn:    0.0080    constr:    0.0000
     atom:   22    charge:    0.8339    magn:    0.0011    constr:    0.0000
     atom:   23    charge:    0.2464    magn:    0.0162    constr:    0.0000
     atom:   24    charge:    0.4748    magn:   -0.0002    constr:    0.0000
     atom:   25    charge:    0.8291    magn:    0.0014    constr:    0.0000
     atom:   26    charge:    0.8086    magn:    0.0055    constr:    0.0000
     atom:   27    charge:    0.4827    magn:    0.0000    constr:    0.0000
     atom:   28    charge:    0.2533    magn:    0.0356    constr:    0.0000
     atom:   29    charge:    0.8394    magn:    0.0005    constr:    0.0000
     atom:   30    charge:    0.8166    magn:    0.0045    constr:    0.0000
     atom:   31    charge:    0.4814    magn:   -0.0001    constr:    0.0000
     atom:   32    charge:    0.2578    magn:    0.0301    constr:    0.0000
     atom:   33    charge:    0.8386    magn:    0.0004    constr:    0.0000
     atom:   34    charge:    0.8244    magn:    0.0031    constr:    0.0000
     atom:   35    charge:    0.4804    magn:   -0.0002    constr:    0.0000
     atom:   36    charge:    0.2601    magn:    0.0200    constr:    0.0000
     atom:   37    charge:    0.8320    magn:    0.0007    constr:    0.0000
     atom:   38    charge:    0.8243    magn:    0.0016    constr:    0.0000
     atom:   39    charge:    0.4903    magn:    0.0003    constr:    0.0000
     atom:   40    charge:    0.4882    magn:    0.0001    constr:    0.0000
     atom:   41    charge:    0.8327    magn:    0.0007    constr:    0.0000
     atom:   42    charge:    0.8252    magn:    0.0013    constr:    0.0000
     atom:   43    charge:    0.4912    magn:    0.0003    constr:    0.0000
     atom:   44    charge:    0.4919    magn:   -0.0002    constr:    0.0000
     atom:   45    charge:    0.8124    magn:    0.0075    constr:    0.0000
     atom:   46    charge:    0.8386    magn:    0.0008    constr:    0.0000
     atom:   47    charge:    0.2460    magn:    0.1012    constr:    0.0000
     atom:   48    charge:    0.4745    magn:   -0.0002    constr:    0.0000
     atom:   49    charge:    0.8237    magn:    0.0009    constr:    0.0000
     atom:   50    charge:    0.8274    magn:    0.0009    constr:    0.0000
     atom:   51    charge:    0.8106    magn:    0.0031    constr:    0.0000
     atom:   52    charge:    0.8231    magn:   -0.0001    constr:    0.0000
     atom:   53    charge:    0.8194    magn:    0.0018    constr:    0.0000
     atom:   54    charge:    0.8236    magn:   -0.0001    constr:    0.0000

     total cpu time spent up to now is     3766.8 secs

     End of self-consistent calculation

 ------ SPIN UP ------------


          k = 0.0000 0.0000 0.0000 ( 91671 PWs)   bands (ev):

   -31.6842 -28.1581 -25.3213 -25.1954 -22.6392 -22.2510 -22.2394 -22.2251
   -22.0483 -21.9268 -20.4826 -19.3426 -18.7863 -18.6166 -18.3477 -18.3124
   -17.2161 -17.1140 -17.0506 -17.0174 -15.2573 -15.0877 -14.8155 -14.6569
   -14.0932 -13.7951 -13.5902 -13.4862 -13.4490 -12.9856 -12.6645 -12.6032
   -11.8356 -11.8175 -11.7220 -11.5418 -11.2189 -10.7166 -10.5434 -10.5088
   -10.3694 -10.3181 -10.1484 -10.0614  -9.9939  -9.7174  -9.4894  -9.3800
    -9.3164  -9.1720  -9.0396  -8.9682  -8.9507  -8.9037  -8.5945  -8.4821
    -8.3479  -8.1618  -8.0911  -8.0575  -7.8666  -7.8071  -7.5952  -7.1556
    -6.9892  -6.6429  -6.5537  -6.3360  -6.1999  -6.1544  -5.9714  -5.8575
    -5.8122  -5.7588  -5.7223  -5.6602  -5.5263  -5.4712  -5.3787  -5.3469
    -5.1989  -5.0748  -5.0581  -4.9837  -4.9604  -4.9085  -4.8898  -4.8025
    -4.7314  -4.5426  -4.4614  -4.2626  -4.0846  -3.9972  -3.9391  -3.8290
    -3.5926  -3.4460  -3.3380  -3.3169  -3.1134  -3.0381  -2.7464  -2.6792
    -2.5739  -2.3318  -2.1401  -1.8736  -1.8574  -1.5787  -1.3040  -1.1929
    -1.0618  -0.7898  -0.1359   0.3458   0.5079   0.5861   0.7646   1.0049
     1.3273   1.7455

 ------ SPIN DOWN ----------


          k = 0.0000 0.0000 0.0000 ( 91671 PWs)   bands (ev):

   -31.6800 -28.1453 -25.3045 -25.1788 -22.6245 -22.2389 -22.2180 -22.2036
   -22.0402 -21.9184 -19.0189 -18.7745 -18.6031 -18.3354 -18.3004 -17.2586
   -17.2042 -17.0988 -17.0341 -16.9884 -15.2469 -15.0736 -14.8026 -14.6420
   -14.0827 -13.7821 -13.5764 -13.4769 -13.4397 -12.9762 -12.6546 -12.5877
   -11.8219 -11.8065 -11.7095 -11.5288 -11.1935 -10.6983 -10.5298 -10.4967
   -10.3550 -10.3069 -10.1335 -10.0451  -9.9743  -9.6998  -9.4657  -9.3583
    -9.2983  -9.1561  -9.0187  -8.9534  -8.9308  -8.8908  -8.5712  -8.4612
    -8.3309  -8.1449  -8.0755  -8.0414  -7.8545  -7.7935  -7.5514  -7.1305
    -6.9066  -6.5953  -6.4764  -6.1636  -6.1041  -6.0496  -5.9020  -5.7476
    -5.5839  -5.5032  -5.3176  -5.2133  -5.1389  -5.1113  -5.0108  -4.9324
    -4.8973  -4.8830  -4.7965  -4.7581  -4.5849  -4.4644  -4.3714  -4.2945
    -4.0424  -3.7683  -3.6747  -3.5967  -3.5594  -3.4099  -3.3146  -3.2223
    -3.1613  -2.9848  -2.6812  -2.6654  -2.5322  -2.3816  -2.3052  -2.2394
    -2.1844  -2.1571  -2.0300  -1.7783  -1.7497  -1.5265  -1.2571  -1.1542
    -1.0265  -0.7572  -0.0421   0.3721   0.5365   0.6099   0.7881   1.0256
     1.3542   1.7661

     the spin up/dw Fermi energies are    -2.7047   -2.7551 ev

!    total energy              =    -807.97407704 Ry
     Harris-Foulkes estimate   =    -807.97407713 Ry
     estimated scf accuracy    <       0.00000077 Ry

     The total energy is the sum of the following terms:

     one-electron contribution =   -2165.36751062 Ry
     hartree contribution      =    1131.00663715 Ry
     xc contribution           =    -243.65369554 Ry
     ewald contribution        =     470.03784550 Ry
     Dispersion Correction     =      -0.14055343 Ry
     smearing contrib. (-TS)   =       0.14319990 Ry

     total magnetization       =     4.00 Bohr mag/cell
     absolute magnetization    =     4.01 Bohr mag/cell

     convergence has been achieved in  21 iterations

     Forces acting on atoms (cartesian axes, Ry/au):

     atom    1 type  1   force =     0.00794597   -0.00272822   -0.01447537
     atom    2 type  2   force =    -0.02897950    0.10889188    0.03824677
     atom    3 type  4   force =     1.08916747   -1.20119000   -1.70709484
     atom    4 type  4   force =     0.00374087    0.01073268   -0.00847024
     atom    5 type  4   force =    -0.21373518    0.19838718   -0.30007685
     atom    6 type  4   force =    -0.00394906   -0.00999174   -0.00940163
     atom    7 type  4   force =     0.02170988   -0.07504380   -0.07265014
     atom    8 type  4   force =    -0.01014874    0.00366255    0.00325154
     atom    9 type  4   force =     0.00360556   -0.00454556    0.00763276
     atom   10 type  4   force =     0.00947298   -0.00465432    0.00159845
     atom   11 type  5   force =     0.02286218    0.00087756    0.01402813
     atom   12 type  5   force =     0.05787733    0.03610275    0.06787204
     atom   13 type  5   force =    -0.02158137   -0.00195952    0.01191720
     atom   14 type  5   force =    -0.01322035   -0.01738618    0.02528819
     atom   15 type  6   force =     0.04628214    0.02608692    0.00123812
     atom   16 type  6   force =     0.02566790   -0.02341723   -0.00724419
     atom   17 type  3   force =    -0.00086205    0.00286863   -0.00242941
     atom   18 type  3   force =    -0.00684340    0.00895627    0.00584893
     atom   19 type  6   force =    -0.03070373    0.00758485   -0.02541624
     atom   20 type  6   force =    -0.01620711    0.01537090    0.00675575
     atom   21 type  6   force =    -0.00507708    0.00103409   -0.00565897
     atom   22 type  6   force =    -0.01569896    0.00923263    0.00161576
     atom   23 type  3   force =     0.00184372    0.00555967   -0.00571114
     atom   24 type  3   force =    -0.00951000    0.00075270   -0.00651727
     atom   25 type  6   force =    -0.05991400   -0.04290152   -0.00426659
     atom   26 type  6   force =    -0.04092782    0.03280801   -0.00745410
     atom   27 type  3   force =     0.00515198   -0.00224213   -0.00442761
     atom   28 type  3   force =     0.00675177   -0.00932306    0.00647818
     atom   29 type  6   force =     0.00220548    0.01258111    0.01605667
     atom   30 type  6   force =    -0.01464666   -0.01075200    0.02469881
     atom   31 type  3   force =    -0.00499303   -0.00566293    0.00065793
     atom   32 type  3   force =    -0.00361815    0.00939763   -0.00633998
     atom   33 type  6   force =    -0.00386704   -0.00830260    0.01161684
     atom   34 type  6   force =    -0.02102250   -0.03856682   -0.05453575
     atom   35 type  3   force =     0.00584941    0.00456290    0.00193764
     atom   36 type  3   force =     0.00743813   -0.00733152   -0.00022254
     atom   37 type  6   force =    -0.03023258   -0.01239552   -0.00185984
     atom   38 type  6   force =    -0.00400465   -0.01344968   -0.01664249
     atom   39 type  3   force =     0.01055061   -0.00828734    0.01695939
     atom   40 type  3   force =    -0.01031326    0.01043034    0.00702933
     atom   41 type  6   force =     0.03418279    0.02050968    0.00053617
     atom   42 type  6   force =     0.04471273   -0.01821349   -0.01070780
     atom   43 type  3   force =    -0.01173273    0.00714495    0.01707929
     atom   44 type  3   force =     0.00369154   -0.00674980    0.00746319
     atom   45 type  6   force =    -0.00980251   -0.01851117   -0.01464882
     atom   46 type  6   force =    -0.00280112    0.02162167   -0.02277706
     atom   47 type  3   force =    -0.00127371   -0.00466533   -0.00462376
     atom   48 type  3   force =     0.01142863   -0.00113285   -0.00878912
     atom   49 type  6   force =     0.04012179    0.01137363   -0.01743352
     atom   50 type  6   force =     0.01323084   -0.01123849    0.00345434
     atom   51 type  6   force =     0.18159943   -0.24011741    0.31903237
     atom   52 type  6   force =    -0.00833738    0.00161248   -0.00327476
     atom   53 type  6   force =    -1.05997159    1.23314892    1.72808600
     atom   54 type  6   force =     0.00688415   -0.00053235   -0.00322976

     Total force =     3.407821     Total SCF correction =     0.001192

     number of scf cycles    =   2
     number of bfgs steps    =   1

     energy   old            =    -808.2737638823 Ry
     energy   new            =    -807.9740770406 Ry

     CASE: energy  _new > energy  _old

     new trust radius        =       0.1176905156 bohr
     new conv_thr            =       0.0000010000 Ry


ATOMIC_POSITIONS (crystal)
Ni1           0.2471379419        0.7514527294        0.8364892642
Ni2           0.4990394209        0.2490246401        0.3405016986
O             0.1200020415        0.3493813914        0.3864733383
O             0.3711729646        0.6510126771        0.8812968231
O             0.3791224493        0.1467215478        0.3788292596
O             0.1251960135        0.8523563259        0.8763224071
O             0.4733896806        0.3553212924        0.4819389966
O             0.2211353399        0.6414335550        0.9798611961
O             0.0288641708        0.1350586754        0.4811779784
O             0.2766213261        0.8627350573        0.9793368099
N             0.3082235759        0.8511650087        0.7047701080
N             0.0598463675        0.1480820122        0.2040278993
N             0.1867063934        0.6504148832        0.7058026946
N             0.4398741392        0.3507802680        0.2073909904
C             0.2879034563        0.9697833834        0.5221013914
C             0.0382141715        0.0321214349        0.0235923680
H             0.2371498469        0.9996417180        0.4430506624
H             0.4864473145        0.0028033373        0.9435620526
C             0.3918402367        0.0123406422        0.5466732187
C             0.1400252394        0.9874996296        0.0456416255
C             0.4508425519        0.9697154780        0.6501609700
C             0.2023457073        0.0285307840        0.1499818225
H             0.0320892830        0.9988700002        0.6734236155
H             0.2823705402        0.9986023894        0.1725066142
C             0.2085062365        0.5300267741        0.5265329148
C             0.4587630758        0.4702977293        0.0292217674
H             0.2586975442        0.5008093012        0.4491841147
H             0.0087328724        0.5002773753        0.9506244450
C             0.2450409535        0.6131740583        0.6063713596
C             0.4957209194        0.3895665167        0.1083324399
H             0.3226334062        0.6504809483        0.5926376024
H             0.0749181027        0.3529475584        0.0949337214
C             0.2495941821        0.8893205507        0.6032168511
C             0.0026697725        0.1118247886        0.1050482032
H             0.1701734499        0.8551427577        0.5885739652
H             0.4224234139        0.1476350796        0.0898654041
C             0.4087280100        0.8896723934        0.7277541710
C             0.1598245705        0.1097423856        0.2280122802
H             0.4533063090        0.8550995611        0.8088230805
H             0.2061640770        0.1431460004        0.3087875504
C             0.0881135583        0.6086459682        0.7275163145
C             0.3403971194        0.3919147721        0.2293991757
H             0.0437575331        0.6430277258        0.8067125838
H             0.2964162940        0.3574866658        0.3090816803
C             0.0479870431        0.5256682289        0.6511916873
C             0.2978821392        0.4743194795        0.1530410505
H             0.4686555165        0.4931519088        0.6733913444
H             0.2189066694        0.5052663594        0.1751679066
C             0.1068469740        0.4837556343        0.5504370128
C             0.3580944309        0.5159522134        0.0500430885
C             0.4315205346        0.0999656451        0.4647491758
C             0.1815462867        0.8995776416        0.9655171647
C             0.0708310241        0.3929472253        0.4668008305
C             0.3159788086        0.6043068918        0.9689783089



     Writing output data file ./NiPyC2_relax_sc211.save/
     NEW-OLD atomic charge density approx. for the potential

     Check: negative core charge=   -0.000096

     total cpu time spent up to now is     3855.0 secs

     Self-consistent Calculation

     iteration #  1     ecut=   100.00 Ry     beta= 0.70
     Davidson diagonalization with overlap
     ethr =  1.00E-06,  avg # of iterations = 12.5

     total cpu time spent up to now is     4133.2 secs

     total energy              =    -808.36702326 Ry
     Harris-Foulkes estimate   =    -808.47233986 Ry
     estimated scf accuracy    <       0.34231587 Ry

     total magnetization       =     4.00 Bohr mag/cell
     absolute magnetization    =     4.02 Bohr mag/cell

     iteration #  2     ecut=   100.00 Ry     beta= 0.70
     Davidson diagonalization with overlap
     ethr =  1.71E-04,  avg # of iterations =  2.0

     total cpu time spent up to now is     4192.6 secs

     total energy              =    -808.34858268 Ry
     Harris-Foulkes estimate   =    -808.41154673 Ry
     estimated scf accuracy    <       0.29018985 Ry

     total magnetization       =     4.00 Bohr mag/cell
     absolute magnetization    =     4.02 Bohr mag/cell

     iteration #  3     ecut=   100.00 Ry     beta= 0.70
     Davidson diagonalization with overlap
     ethr =  1.45E-04,  avg # of iterations =  2.0

     total cpu time spent up to now is     4251.9 secs

     total energy              =    -808.35607879 Ry
     Harris-Foulkes estimate   =    -808.42306646 Ry
     estimated scf accuracy    <       0.90549211 Ry

     total magnetization       =     4.00 Bohr mag/cell
     absolute magnetization    =     4.01 Bohr mag/cell

     iteration #  4     ecut=   100.00 Ry     beta= 0.70
     Davidson diagonalization with overlap
     ethr =  1.45E-04,  avg # of iterations =  1.0

     total cpu time spent up to now is     4309.5 secs

     total energy              =    -808.37522177 Ry
     Harris-Foulkes estimate   =    -808.39674888 Ry
     estimated scf accuracy    <       0.24191490 Ry

     total magnetization       =     4.00 Bohr mag/cell
     absolute magnetization    =     4.02 Bohr mag/cell

     iteration #  5     ecut=   100.00 Ry     beta= 0.70
     Davidson diagonalization with overlap
     ethr =  1.21E-04,  avg # of iterations =  1.0

     total cpu time spent up to now is     4367.1 secs

     total energy              =    -808.38490968 Ry
     Harris-Foulkes estimate   =    -808.38726213 Ry
     estimated scf accuracy    <       0.02562395 Ry

     total magnetization       =     4.00 Bohr mag/cell
     absolute magnetization    =     4.01 Bohr mag/cell

     iteration #  6     ecut=   100.00 Ry     beta= 0.70
     Davidson diagonalization with overlap
     ethr =  1.28E-05,  avg # of iterations =  4.5

     total cpu time spent up to now is     4427.6 secs

     total energy              =    -808.38514227 Ry
     Harris-Foulkes estimate   =    -808.38605552 Ry
     estimated scf accuracy    <       0.01279449 Ry

     total magnetization       =     4.00 Bohr mag/cell
     absolute magnetization    =     4.01 Bohr mag/cell

     iteration #  7     ecut=   100.00 Ry     beta= 0.70
     Davidson diagonalization with overlap
     ethr =  6.40E-06,  avg # of iterations =  4.0

     total cpu time spent up to now is     4487.1 secs

     total energy              =    -808.38490209 Ry
     Harris-Foulkes estimate   =    -808.38567191 Ry
     estimated scf accuracy    <       0.00774257 Ry

     total magnetization       =     4.00 Bohr mag/cell
     absolute magnetization    =     4.01 Bohr mag/cell

     iteration #  8     ecut=   100.00 Ry     beta= 0.70
     Davidson diagonalization with overlap
     ethr =  3.87E-06,  avg # of iterations =  3.0

     total cpu time spent up to now is     4545.7 secs

     total energy              =    -808.38471535 Ry
     Harris-Foulkes estimate   =    -808.38573280 Ry
     estimated scf accuracy    <       0.01158676 Ry

     total magnetization       =     4.00 Bohr mag/cell
     absolute magnetization    =     4.01 Bohr mag/cell

     iteration #  9     ecut=   100.00 Ry     beta= 0.70
     Davidson diagonalization with overlap
     ethr =  3.87E-06,  avg # of iterations =  1.0

     total cpu time spent up to now is     4603.6 secs

     total energy              =    -808.38518460 Ry
     Harris-Foulkes estimate   =    -808.38522796 Ry
     estimated scf accuracy    <       0.00061514 Ry

     total magnetization       =     4.00 Bohr mag/cell
     absolute magnetization    =     4.01 Bohr mag/cell

     iteration # 10     ecut=   100.00 Ry     beta= 0.70
     Davidson diagonalization with overlap
     ethr =  3.08E-07,  avg # of iterations =  6.0

     total cpu time spent up to now is     4670.4 secs

     total energy              =    -808.38524952 Ry
     Harris-Foulkes estimate   =    -808.38523599 Ry
     estimated scf accuracy    <       0.00017236 Ry

     total magnetization       =     4.00 Bohr mag/cell
     absolute magnetization    =     4.01 Bohr mag/cell

     iteration # 11     ecut=   100.00 Ry     beta= 0.70
     Davidson diagonalization with overlap
     ethr =  8.62E-08,  avg # of iterations =  2.0

     total cpu time spent up to now is     4729.3 secs

     total energy              =    -808.38527296 Ry
     Harris-Foulkes estimate   =    -808.38526102 Ry
     estimated scf accuracy    <       0.00009322 Ry

     total magnetization       =     4.00 Bohr mag/cell
     absolute magnetization    =     4.01 Bohr mag/cell

     iteration # 12     ecut=   100.00 Ry     beta= 0.70
     Davidson diagonalization with overlap
     ethr =  4.66E-08,  avg # of iterations =  2.0

     total cpu time spent up to now is     4788.7 secs

     total energy              =    -808.38527819 Ry
     Harris-Foulkes estimate   =    -808.38527873 Ry
     estimated scf accuracy    <       0.00005545 Ry

     total magnetization       =     4.00 Bohr mag/cell
     absolute magnetization    =     4.01 Bohr mag/cell

     iteration # 13     ecut=   100.00 Ry     beta= 0.70
     Davidson diagonalization with overlap
     ethr =  2.77E-08,  avg # of iterations =  4.0

     total cpu time spent up to now is     4851.5 secs

     total energy              =    -808.38528094 Ry
     Harris-Foulkes estimate   =    -808.38528530 Ry
     estimated scf accuracy    <       0.00006684 Ry

     total magnetization       =     4.00 Bohr mag/cell
     absolute magnetization    =     4.01 Bohr mag/cell

     iteration # 14     ecut=   100.00 Ry     beta= 0.70
     Davidson diagonalization with overlap
     ethr =  2.77E-08,  avg # of iterations =  1.5

     total cpu time spent up to now is     4909.9 secs

     total energy              =    -808.38528377 Ry
     Harris-Foulkes estimate   =    -808.38528478 Ry
     estimated scf accuracy    <       0.00001701 Ry

     total magnetization       =     4.00 Bohr mag/cell
     absolute magnetization    =     4.01 Bohr mag/cell

     iteration # 15     ecut=   100.00 Ry     beta= 0.70
     Davidson diagonalization with overlap
     ethr =  8.51E-09,  avg # of iterations =  2.0

     total cpu time spent up to now is     4970.1 secs

     total energy              =    -808.38528430 Ry
     Harris-Foulkes estimate   =    -808.38528536 Ry
     estimated scf accuracy    <       0.00001458 Ry

     total magnetization       =     4.00 Bohr mag/cell
     absolute magnetization    =     4.01 Bohr mag/cell

     iteration # 16     ecut=   100.00 Ry     beta= 0.70
     Davidson diagonalization with overlap
     ethr =  7.29E-09,  avg # of iterations =  2.0

     total cpu time spent up to now is     5032.0 secs

     total energy              =    -808.38528609 Ry
     Harris-Foulkes estimate   =    -808.38528645 Ry
     estimated scf accuracy    <       0.00000796 Ry

     total magnetization       =     4.00 Bohr mag/cell
[...]

     total cpu time spent up to now is    42515.5 secs

     total energy              =    -809.51185946 Ry
     Harris-Foulkes estimate   =    -809.51186104 Ry
     estimated scf accuracy    <       0.00001043 Ry

     total magnetization       =     4.00 Bohr mag/cell
     absolute magnetization    =     4.07 Bohr mag/cell

     iteration # 10     ecut=   100.00 Ry     beta= 0.70
     Davidson diagonalization with overlap
     ethr =  5.21E-09,  avg # of iterations =  3.5

     total cpu time spent up to now is    42576.4 secs

     total energy              =    -809.51185961 Ry
     Harris-Foulkes estimate   =    -809.51186012 Ry
     estimated scf accuracy    <       0.00000533 Ry

     total magnetization       =     4.00 Bohr mag/cell
     absolute magnetization    =     4.07 Bohr mag/cell

     iteration # 11     ecut=   100.00 Ry     beta= 0.70
     Davidson diagonalization with overlap
     ethr =  2.66E-09,  avg # of iterations =  3.5

     total cpu time spent up to now is    42637.9 secs

     total energy              =    -809.51185981 Ry
     Harris-Foulkes estimate   =    -809.51186001 Ry
     estimated scf accuracy    <       0.00000288 Ry

     total magnetization       =     4.00 Bohr mag/cell
     absolute magnetization    =     4.07 Bohr mag/cell

     iteration # 12     ecut=   100.00 Ry     beta= 0.70
     Davidson diagonalization with overlap
     ethr =  1.44E-09,  avg # of iterations =  3.0

     total cpu time spent up to now is    42698.8 secs

     total energy              =    -809.51185974 Ry
     Harris-Foulkes estimate   =    -809.51186006 Ry
     estimated scf accuracy    <       0.00000220 Ry

     total magnetization       =     4.00 Bohr mag/cell
     absolute magnetization    =     4.07 Bohr mag/cell

     iteration # 13     ecut=   100.00 Ry     beta= 0.70
     Davidson diagonalization with overlap
     ethr =  1.10E-09,  avg # of iterations =  3.0

     total cpu time spent up to now is    42759.8 secs

     total energy              =    -809.51185972 Ry
     Harris-Foulkes estimate   =    -809.51185988 Ry
     estimated scf accuracy    <       0.00000081 Ry

     total magnetization       =     4.00 Bohr mag/cell
     absolute magnetization    =     4.07 Bohr mag/cell

     iteration # 14     ecut=   100.00 Ry     beta= 0.70
     Davidson diagonalization with overlap
     ethr =  4.05E-10,  avg # of iterations =  3.5

     total cpu time spent up to now is    42821.5 secs

     total energy              =    -809.51185977 Ry
     Harris-Foulkes estimate   =    -809.51185978 Ry
     estimated scf accuracy    <       0.00000037 Ry

     total magnetization       =     4.00 Bohr mag/cell
     absolute magnetization    =     4.07 Bohr mag/cell

     iteration # 15     ecut=   100.00 Ry     beta= 0.70
     Davidson diagonalization with overlap
     ethr =  1.83E-10,  avg # of iterations =  3.0

     total cpu time spent up to now is    42882.8 secs

     total energy              =    -809.51185982 Ry
     Harris-Foulkes estimate   =    -809.51185980 Ry
     estimated scf accuracy    <       0.00000015 Ry

     total magnetization       =     4.00 Bohr mag/cell
     absolute magnetization    =     4.07 Bohr mag/cell

     iteration # 16     ecut=   100.00 Ry     beta= 0.70
     Davidson diagonalization with overlap
     ethr =  7.54E-11,  avg # of iterations =  3.0

     total cpu time spent up to now is    42942.6 secs

     total energy              =    -809.51185982 Ry
     Harris-Foulkes estimate   =    -809.51185983 Ry
     estimated scf accuracy    <       0.00000011 Ry

     total magnetization       =     4.00 Bohr mag/cell
     absolute magnetization    =     4.07 Bohr mag/cell

     iteration # 17     ecut=   100.00 Ry     beta= 0.70
     Davidson diagonalization with overlap
     ethr =  5.46E-11,  avg # of iterations =  3.0
 
     Magnetic moment per site:
     atom:    1    charge:    7.4751    magn:    0.5159    constr:    0.0000
     atom:    2    charge:    5.6193    magn:    0.4666    constr:    0.0000
     atom:    3    charge:    1.5068    magn:    0.0016    constr:    0.0000
     atom:    4    charge:    3.1862    magn:    0.0297    constr:    0.0000
     atom:    5    charge:    2.3978    magn:    0.0095    constr:    0.0000
     atom:    6    charge:    3.2225    magn:    0.0320    constr:    0.0000
     atom:    7    charge:    1.7791    magn:    0.0491    constr:    0.0000
     atom:    8    charge:    3.2191    magn:    0.0304    constr:    0.0000
     atom:    9    charge:    0.4428    magn:    0.0194    constr:    0.0000
     atom:   10    charge:    3.2566    magn:    0.0329    constr:    0.0000
     atom:   11    charge:    2.4213    magn:    0.0120    constr:    0.0000
     atom:   12    charge:    2.2641    magn:    0.0214    constr:    0.0000
     atom:   13    charge:    2.4347    magn:    0.0126    constr:    0.0000
     atom:   14    charge:    2.3577    magn:    0.0083    constr:    0.0000
     atom:   15    charge:    0.8056    magn:    0.0068    constr:    0.0000
     atom:   16    charge:    0.8298    magn:    0.0240    constr:    0.0000
     atom:   17    charge:    0.4334    magn:    0.0000    constr:    0.0000
     atom:   18    charge:    0.0258    magn:    0.0001    constr:    0.0000
     atom:   19    charge:    0.8327    magn:    0.0008    constr:    0.0000
     atom:   20    charge:    0.8337    magn:    0.0026    constr:    0.0000
     atom:   21    charge:    0.7697    magn:    0.0387    constr:    0.0000
     atom:   22    charge:    0.8374    magn:    0.0046    constr:    0.0000
     atom:   23    charge:    0.0419    magn:   -0.0018    constr:    0.0000
     atom:   24    charge:    0.4657    magn:   -0.0008    constr:    0.0000
     atom:   25    charge:    0.8003    magn:    0.0059    constr:    0.0000
     atom:   26    charge:    0.8231    magn:    0.0215    constr:    0.0000
     atom:   27    charge:    0.4495    magn:   -0.0001    constr:    0.0000
     atom:   28    charge:    0.0315    magn:    0.0001    constr:    0.0000
     atom:   29    charge:    0.8307    magn:    0.0017    constr:    0.0000
     atom:   30    charge:    0.7396    magn:    0.0218    constr:    0.0000
     atom:   31    charge:    0.5000    magn:   -0.0007    constr:    0.0000
     atom:   32    charge:    0.0412    magn:    0.0001    constr:    0.0000
     atom:   33    charge:    0.8274    magn:    0.0018    constr:    0.0000
     atom:   34    charge:    0.7785    magn:    0.0125    constr:    0.0000
     atom:   35    charge:    0.4703    magn:   -0.0009    constr:    0.0000
     atom:   36    charge:    0.0485    magn:    0.0001    constr:    0.0000
     atom:   37    charge:    0.8331    magn:    0.0020    constr:    0.0000
     atom:   38    charge:    0.8182    magn:    0.0043    constr:    0.0000
     atom:   39    charge:    0.5382    magn:    0.0004    constr:    0.0000
     atom:   40    charge:    0.4362    magn:   -0.0005    constr:    0.0000
     atom:   41    charge:    0.8346    magn:    0.0019    constr:    0.0000
     atom:   42    charge:    0.7709    magn:    0.0052    constr:    0.0000
     atom:   43    charge:    0.5096    magn:    0.0004    constr:    0.0000
     atom:   44    charge:    0.4021    magn:   -0.0006    constr:    0.0000
     atom:   45    charge:    0.7553    magn:    0.0403    constr:    0.0000
     atom:   46    charge:    0.8225    magn:    0.0029    constr:    0.0000
     atom:   47    charge:    0.1983    magn:    0.1245    constr:    0.0000
     atom:   48    charge:    0.4570    magn:   -0.0008    constr:    0.0000
     atom:   49    charge:    0.8204    magn:    0.0005    constr:    0.0000
     atom:   50    charge:    0.8261    magn:    0.0030    constr:    0.0000
     atom:   51    charge:    0.7349    magn:    0.0182    constr:    0.0000
     atom:   52    charge:    0.8113    magn:   -0.0003    constr:    0.0000
     atom:   53    charge:    0.7543    magn:    0.0069    constr:    0.0000
     atom:   54    charge:    0.8034    magn:    0.0002    constr:    0.0000

     total cpu time spent up to now is    42998.5 secs

     End of self-consistent calculation

 ------ SPIN UP ------------


          k = 0.0000 0.0000 0.0000 ( 91671 PWs)   bands (ev):

   -26.8800 -26.6003 -25.5071 -25.3156 -22.6208 -22.5678 -22.4751 -22.4276
   -22.3668 -22.2425 -21.2134 -20.2529 -19.3200 -19.1560 -18.6370 -18.4762
   -17.4015 -17.3192 -17.1221 -17.0374 -15.7299 -15.5942 -14.9827 -14.7417
   -14.0687 -14.0107 -13.7471 -13.6483 -12.7226 -12.5091 -11.9445 -11.7824
   -11.6824 -11.1913 -11.0209 -10.9530 -10.7321 -10.6212 -10.6011 -10.3537
   -10.2363 -10.0055  -9.9652  -9.9280  -9.8469  -9.6640  -9.5640  -9.5492
    -9.4105  -9.3781  -9.2706  -9.1148  -9.0954  -9.0898  -8.8232  -8.6329
    -8.4937  -8.2793  -8.2001  -8.1049  -8.0135  -7.9921  -7.9437  -7.5518
    -7.4665  -7.3257  -7.2829  -6.8913  -6.7236  -6.5661  -6.5548  -6.4431
    -6.3824  -6.3607  -6.3089  -6.2116  -6.0210  -5.9086  -5.6741  -5.5646
    -5.3539  -5.2890  -5.2687  -5.2511  -5.1710  -5.1240  -5.0331  -5.0187
    -4.9810  -4.9238  -4.8465  -4.7294  -4.6809  -4.4523  -4.2951  -3.6593
    -3.6296  -3.5163  -3.4746  -3.3626  -3.1704  -2.5608  -2.2391  -2.0941
    -2.0597  -2.0144  -1.9796  -1.8786  -1.1572  -1.0344  -0.8484   0.1063
     0.3367   0.4412   0.6216   0.7068   0.9057   1.0646   1.2293   1.5261
     1.6890   1.7782

 ------ SPIN DOWN ----------


          k = 0.0000 0.0000 0.0000 ( 91671 PWs)   bands (ev):

   -26.8669 -26.5611 -25.4479 -25.2559 -22.5802 -22.5220 -22.4013 -22.3521
   -22.3302 -22.2072 -20.1197 -20.0148 -19.2782 -19.1050 -18.5940 -18.4262
   -17.3510 -17.2672 -17.0612 -16.9798 -15.6806 -15.5295 -14.9357 -14.6904
   -14.0152 -13.9578 -13.7021 -13.6044 -12.6685 -12.4736 -11.8977 -11.7415
   -11.6375 -11.1708 -10.9828 -10.8964 -10.6864 -10.5680 -10.5525 -10.3057
   -10.1810  -9.9381  -9.9134  -9.8825  -9.7740  -9.5891  -9.5213  -9.4823
    -9.3794  -9.3390  -9.2023  -9.0598  -9.0547  -9.0333  -8.7555  -8.5743
    -8.4358  -8.2265  -8.1364  -8.0598  -7.9677  -7.9492  -7.8185  -7.2310
    -7.1543  -7.1400  -7.0999  -6.6959  -6.4881  -6.3985  -6.3304  -6.3130
    -6.2816  -6.2585  -6.1711  -6.0308  -5.8127  -5.7556  -5.5558  -5.4483
    -5.2435  -5.1114  -5.1064  -5.0164  -4.9341  -4.8363  -4.6792  -4.5680
    -4.4957  -4.3623  -4.3126  -4.1159  -3.5610  -3.5332  -3.4993  -3.3800
    -3.1933  -3.1529  -3.0877  -2.7992  -2.2294  -2.0286  -1.9824  -1.9016
    -1.8377  -1.7966  -1.6840  -1.6575  -1.0621  -0.9670  -0.7720   0.1902
     0.4224   0.5195   0.7023   0.8044   0.9798   1.1345   1.2914   1.5685
     1.7505   1.8173

     the spin up/dw Fermi energies are    -2.7042   -2.9042 ev

!    total energy              =    -809.51185981 Ry
     Harris-Foulkes estimate   =    -809.51185983 Ry
     estimated scf accuracy    <       0.00000005 Ry

     The total energy is the sum of the following terms:

     one-electron contribution =   -2196.31643044 Ry
     hartree contribution      =    1146.13001704 Ry
     xc contribution           =    -244.57453844 Ry
     ewald contribution        =     484.69496379 Ry
     Dispersion Correction     =      -0.13402371 Ry
     smearing contrib. (-TS)   =       0.68815195 Ry

     total magnetization       =     4.00 Bohr mag/cell
     absolute magnetization    =     4.07 Bohr mag/cell

     convergence has been achieved in  17 iterations

     Forces acting on atoms (cartesian axes, Ry/au):

     atom    1 type  1   force =     0.00592756    0.00834409    0.00204083
     atom    2 type  2   force =     0.00163565    0.00206335    0.00388167
     atom    3 type  4   force =    -0.00500156   -0.00091708   -0.00064094
     atom    4 type  4   force =     0.00155058   -0.00414176    0.00182178
     atom    5 type  4   force =     0.00628097   -0.00229165    0.00372717
     atom    6 type  4   force =    -0.00226690    0.00157796    0.00126529
     atom    7 type  4   force =    -0.00054053    0.00658049    0.00674668
     atom    8 type  4   force =     0.00312067   -0.00440382    0.00069740
     atom    9 type  4   force =     0.00515546   -0.00701741    0.00510869
     atom   10 type  4   force =    -0.00017100   -0.00210455   -0.00184930
     atom   11 type  5   force =    -0.00071126   -0.00114228    0.00053318
     atom   12 type  5   force =    -0.00125904    0.00137774    0.00102531
     atom   13 type  5   force =     0.00059635    0.00341734    0.00210645
     atom   14 type  5   force =    -0.00282788    0.00368513    0.00056978
     atom   15 type  6   force =    -0.00085596   -0.00154026    0.00126879
     atom   16 type  6   force =    -0.00192691    0.00126741   -0.00004541
     atom   17 type  3   force =    -0.00198912    0.00174227   -0.00075566
     atom   18 type  3   force =    -0.00106945    0.00149600    0.00281417
     atom   19 type  6   force =     0.00145420   -0.00090723    0.00050380
     atom   20 type  6   force =    -0.00251031    0.00189535    0.00068441
     atom   21 type  6   force =     0.00567259   -0.00261485    0.00221399
     atom   22 type  6   force =     0.00204416    0.00024839    0.00093612
     atom   23 type  3   force =     0.00014003    0.00607904   -0.00614646
     atom   24 type  3   force =     0.00184472   -0.00287207   -0.00186236
     atom   25 type  6   force =     0.00108053   -0.00272960   -0.00342064
     atom   26 type  6   force =    -0.00244784    0.00109969    0.00465889
     atom   27 type  3   force =    -0.00106622   -0.00086670    0.00127103
     atom   28 type  3   force =     0.00212417   -0.00307936    0.00371841
     atom   29 type  6   force =    -0.00251717   -0.00009886    0.00115561
     atom   30 type  6   force =    -0.00262175    0.00236187   -0.00048701
     atom   31 type  3   force =    -0.00474703   -0.00320645    0.00072281
     atom   32 type  3   force =    -0.00091518    0.00332018   -0.00282792
     atom   33 type  6   force =     0.00024005   -0.00006167    0.00077012
     atom   34 type  6   force =     0.00153453   -0.00291744   -0.00116299
     atom   35 type  3   force =    -0.00055904    0.00179877    0.00036410
     atom   36 type  3   force =    -0.00004141   -0.00052007   -0.00068866
     atom   37 type  6   force =    -0.00432271    0.00143013   -0.00576710
     atom   38 type  6   force =    -0.00192975    0.00034069   -0.00194277
     atom   39 type  3   force =    -0.00374869    0.00232134   -0.00309163
     atom   40 type  3   force =    -0.00056214    0.00163402    0.00152784
     atom   41 type  6   force =     0.00682575   -0.00282331   -0.00864270
     atom   42 type  6   force =    -0.00369530    0.00411534   -0.00470003
     atom   43 type  3   force =     0.00909679   -0.00104974   -0.00587683
     atom   44 type  3   force =     0.00072719    0.00034197   -0.00089658
     atom   45 type  6   force =    -0.00677772   -0.00637642   -0.00376934
     atom   46 type  6   force =     0.00034603   -0.00444870   -0.00091070
     atom   47 type  3   force =     0.00133005   -0.00827551   -0.00807035
     atom   48 type  3   force =     0.00315910   -0.00097263   -0.00282778
     atom   49 type  6   force =    -0.00794052    0.00360685    0.00736293
     atom   50 type  6   force =    -0.00479461   -0.00070792    0.00241759
     atom   51 type  6   force =    -0.00551394    0.00102032   -0.00190353
     atom   52 type  6   force =    -0.00215245    0.00289970    0.00142593
     atom   53 type  6   force =     0.01248673    0.00570064    0.00284118
     atom   54 type  6   force =     0.00310950   -0.00367871    0.00210478

     Total force =     0.044516     Total SCF correction =     0.000309

     number of scf cycles    =  32
     number of bfgs steps    =  27

     energy   old            =    -809.5094625310 Ry
     energy   new            =    -809.5118598111 Ry

     CASE: energy  _new < energy  _old

     new trust radius        =       0.0740778808 bohr
     new conv_thr            =       0.0000001249 Ry


ATOMIC_POSITIONS (crystal)
Ni1           0.2472318434        0.7514502993        0.8369941506
Ni2           0.4837574030        0.2856675788        0.3564967879
O             0.0789095202        0.3332639641        0.3957306578
O             0.3714560485        0.6600734089        0.8744049540
O             0.4071204409        0.1409119799        0.3709873898
O             0.1273642247        0.8460655412        0.8740782439
O             0.5090056600        0.3440604655        0.4965160058
O             0.2214068994        0.6469493152        0.9757691768
O             0.0513579241        0.0820392582        0.5406943464
O             0.2784531610        0.8588029751        0.9799628584
N             0.3083007330        0.8481264218        0.7138294931
N             0.0584793856        0.1468721082        0.1893874420
N             0.1871349148        0.6539063129        0.7111644939
N             0.4292868960        0.3551920274        0.2054404067
C             0.2796761444        0.9653343688        0.5301665508
C             0.0392063229        0.0254417710        0.0184801078
H             0.2260328799        0.9954123232        0.4534028866
H             0.4548120511        0.0573917513        0.9983779423
C             0.3861643929        0.0060362198        0.5481257186
C             0.1398975613        0.9812055260        0.0415322890
C             0.4436795144        0.9624821963        0.6520330613
C             0.2001312927        0.0265939020        0.1463022401
H             0.0355287229        1.0413564085        0.6195339576
H             0.2801883525        0.9976448128        0.1684558644
C             0.2208452259        0.5360336739        0.5304606029
C             0.4551932496        0.4716545483        0.0292013050
H             0.2744108957        0.5095735333        0.4542929222
H             0.0424764534        0.4481351402        0.9991965752
C             0.2503314732        0.6181354411        0.6149132265
C             0.4846468822        0.3965804500        0.1102522687
H             0.3277205248        0.6571854645        0.6071578922
H             0.0544168252        0.4036012263        0.0458937172
C             0.2464541822        0.8865431511        0.6153376886
C             0.0095245657        0.1038739882        0.0957422299
H             0.1671376124        0.8515735868        0.6059952270
H             0.4498021364        0.0983205151        0.0506479087
C             0.4099286859        0.8861816962        0.7359588416
C             0.1580573722        0.1097480611        0.2207456826
H             0.4554999050        0.8524222842        0.8179908952
H             0.2007739420        0.1467732960        0.3022740519
C             0.0879103941        0.6106224014        0.7317426338
C             0.3273094603        0.3976563863        0.2178241216
H             0.0399649183        0.6421310786        0.8117164642
H             0.2787764318        0.3612662023        0.2931151439
C             0.0584749856        0.5301001154        0.6490591043
C             0.2917871589        0.4804729121        0.1393811921
H             0.4647269165        0.4735992055        0.6497581075
H             0.2120335430        0.5134856784        0.1515014888
C             0.1184186707        0.4877289872        0.5488133775
C             0.3574655227        0.5227796492        0.0402796770
C             0.4232344638        0.0830528974        0.4628778661
C             0.1831025788        0.8936142601        0.9640262915
C             0.0863238321        0.4032051801        0.4692704017
C             0.3170599020        0.6116670536        0.9615670687



     Writing output data file ./NiPyC2_relax_sc211.save/
     NEW-OLD atomic charge density approx. for the potential

     Check: negative core charge=   -0.000096

     total cpu time spent up to now is    43087.6 secs

     Self-consistent Calculation

     iteration #  1     ecut=   100.00 Ry     beta= 0.70
     Davidson diagonalization with overlap
