/apps/openmpi/3.1_intel-19/bin/mpiexec
starting QE Mon Jun 8 19:26:35 PDT 2020

     Program PWSCF v.6.5 starts on  8Jun2020 at 19:26:36 

     This program is part of the open-source Quantum ESPRESSO suite
     for quantum simulation of materials; please cite
         "P. Giannozzi et al., J. Phys.:Condens. Matter 21 395502 (2009);
         "P. Giannozzi et al., J. Phys.:Condens. Matter 29 465901 (2017);
          URL http://www.quantum-espresso.org", 
     in publications or presentations arising from this work. More details at
     http://www.quantum-espresso.org/quote

     Parallel version (MPI), running on    16 processors

     MPI processes distributed on     1 nodes
     K-points division:     npool     =       2
     R & G space division:  proc/nbgrp/npool/nimage =       8
     Reading input from QE_input_scripts/pw.NiPyC2_pbesol-angle-vc-relax.in

     Current dimensions of program PWSCF are:
     Max number of different atomic species (ntypx) = 10
     Max number of k-points (npk) =  40000
     Max angular momentum in pseudopotentials (lmaxx) =  3

     -------------------------------------------------
     Parameters for Dispersion (Grimme-D2) Correction:
     -------------------------------------------------
       atom      VdW radius       C_6     

        C          2.744         60.710
        H          1.892          4.857
        N          2.640         42.670
        Ni         2.952        374.666
        O          2.536         24.284

     gamma-point specific algorithms are used

     Subspace diagonalization in iterative solution of the eigenvalue problem:
     a serial algorithm will be used

     Message from routine setup:
     using ibrav=0 with symmetry is DISCOURAGED, use correct ibrav instead
 
     Parallelization info
     --------------------
     sticks:   dense  smooth     PW     G-vecs:    dense   smooth      PW
     Min        1113    1113    276                91690    91690   11450
     Max        1116    1116    278                91692    91692   11458
     Sum        8917    8917   2219               733525   733525   91637
 


     bravais-lattice index     =            0
     lattice parameter (alat)  =      11.8161  a.u.
     unit-cell volume          =    5429.3114 (a.u.)^3
     number of atoms/cell      =           54
     number of atomic types    =            5
     number of electrons       =       200.00 (up: 102.00, down:  98.00)
     number of Kohn-Sham states=          122
     kinetic-energy cutoff     =     100.0000  Ry
     charge density cutoff     =     400.0000  Ry
     convergence threshold     =      1.0E-06
     mixing beta               =       0.7000
     number of iterations used =            8  local-TF  mixing
     Exchange-correlation= PBESOL
                           (   1   4  10   8   0   0   0)
     nstep                     =          200


     celldm(1)=  11.816080  celldm(2)=   0.000000  celldm(3)=   0.000000
     celldm(4)=   0.000000  celldm(5)=   0.000000  celldm(6)=   0.000000

     crystal axes: (cart. coord. in units of alat)
               a(1) = (   1.000000   0.000000   0.000000 )  
               a(2) = (   0.000000   2.002847   0.000000 )  
               a(3) = (  -0.036399   0.000000   1.643149 )  

     reciprocal axes: (cart. coord. in units 2 pi/alat)
               b(1) = (  1.000000  0.000000  0.022152 )  
               b(2) = (  0.000000  0.499289  0.000000 )  
               b(3) = (  0.000000  0.000000  0.608588 )  


     PseudoPot. # 1 for C  read from file:
     ./pseudo/C.pbesol-nc.UPF
     MD5 check sum: ce26087537ded160c8d400e183a8bf42
     Pseudo is Norm-conserving, Zval =  4.0
     Generated using "atomic" code by A. Dal Corso v.6.5
     Using radial grid of 1073 points,  1 beta functions with: 
                l(1) =   1

     PseudoPot. # 2 for H  read from file:
     ./pseudo/H.pbesol-n-nc.UPF
     MD5 check sum: 7995ef24074557c85b430109caaacc09
     Pseudo is Norm-conserving, Zval =  1.0
     Generated using "atomic" code by A. Dal Corso v.6.5
     Using radial grid of  929 points,  0 beta functions with: 

     PseudoPot. # 3 for N  read from file:
     ./pseudo/N.pbesol-nc.UPF
     MD5 check sum: e18cc5e4b8a5600c1a19b30c2cab1ca0
     Pseudo is Norm-conserving, Zval =  5.0
     Generated using "atomic" code by A. Dal Corso v.6.5
     Using radial grid of 1085 points,  1 beta functions with: 
                l(1) =   1

     PseudoPot. # 4 for Ni read from file:
     ./pseudo/Ni.pbesol-n-nc.UPF
     MD5 check sum: 623411631e0c2eb7c0b2b9815547d2d9
     Pseudo is Norm-conserving + core correction, Zval = 10.0
     Generated using "atomic" code by A. Dal Corso v.6.5
     Using radial grid of 1195 points,  2 beta functions with: 
                l(1) =   1
                l(2) =   2

     PseudoPot. # 5 for O  read from file:
     ./pseudo/O.pbesol-nc.UPF
     MD5 check sum: 73d10e7e91dbfcbe8a7e362101007f84
     Pseudo is Norm-conserving, Zval =  6.0
     Generated using "atomic" code by A. Dal Corso v.6.5
     Using radial grid of 1095 points,  1 beta functions with: 
                l(1) =   1

     atomic species   valence    mass     pseudopotential
        C              4.00    12.01070     C ( 1.00)
        H              1.00     1.00794     H ( 1.00)
        N              5.00    14.00670     N ( 1.00)
        Ni            10.00    58.69340     Ni( 1.00)
        O              6.00    15.99940     O ( 1.00)

     Starting magnetic structure 
     atomic species   magnetization
        C            0.000
        H            0.000
        N            0.000
        Ni           0.250
        O            0.000

      2 Sym. Ops. (no inversion) found ( 1 have fractional translation)



   Cartesian axes

     site n.     atom                  positions (alat units)
         1           C   tau(   1) = (   0.5691129   1.9213309   0.8435924  )
         2           C   tau(   2) = (   0.7737740   1.9988410   0.8769484  )
         3           C   tau(   3) = (   0.8939722   1.9119175   1.0440566  )
         4           C   tau(   4) = (   0.3878954   1.0396777   0.8940371  )
         5           C   tau(   5) = (   0.4576709   1.2081171   1.0215454  )
         6           C   tau(   6) = (   0.4898428   1.7643077   0.9776734  )
         7           C   tau(   7) = (   0.8025222   1.7578986   1.1727151  )
         8           C   tau(   8) = (   0.1377615   1.2107208   1.2070569  )
         9           C   tau(   9) = (   0.0584822   1.0420812   1.0887502  )
        10           C   tau(  10) = (   0.1873493   0.9553579   0.9277216  )
        11           C   tau(  11) = (   0.8614386   0.1788542   0.7476326  )
        12           C   tau(  12) = (   0.1044740   0.7734994   0.7911760  )
        13           C   tau(  13) = (   0.0873123   0.0815159   0.0220182  )
        14           C   tau(  14) = (   0.2919734   0.0040057   0.0553741  )
        15           C   tau(  15) = (   0.4121716   0.0909292   0.2224823  )
        16           C   tau(  16) = (   0.9060948   0.9631690   0.0724628  )
        17           C   tau(  17) = (   0.9758703   0.7947296   0.1999712  )
        18           C   tau(  18) = (   0.0080421   0.2385390   0.1560991  )
        19           C   tau(  19) = (   0.3207216   0.2449482   0.3511408  )
        20           C   tau(  20) = (   0.6559609   0.7921259   0.3854826  )
        21           C   tau(  21) = (   0.5766816   0.9607656   0.2671759  )
        22           C   tau(  22) = (   0.7055486   1.0474888   0.1061474  )
        23           C   tau(  23) = (   0.3432392   1.8239925   1.5692068  )
        24           C   tau(  24) = (   0.5862746   1.2293473   1.6127503  )
        25           H   tau(  25) = (   0.4840353   1.9752074   0.7297223  )
        26           H   tau(  26) = (   0.0365226   1.9583835   1.0688681  )
        27           H   tau(  27) = (   0.4777087   0.9833977   0.7850964  )
        28           H   tau(  28) = (   0.5969732   1.2643971   0.9988700  )
        29           H   tau(  29) = (   0.3510215   1.7084283   0.9515473  )
        30           H   tau(  30) = (   0.8848144   1.6990149   1.2859280  )
        31           H   tau(  31) = (   0.0501555   1.2710065   1.3156690  )
        32           H   tau(  32) = (   0.9198816   0.9864020   1.1158622  )
        33           H   tau(  33) = (  -0.0341640   0.0276393   1.5512965  )
        34           H   tau(  34) = (   0.5547220   0.0444632   0.2472939  )
        35           H   tau(  35) = (   0.9595093   1.0194490   1.6066706  )
        36           H   tau(  36) = (   0.1151726   0.7384496   0.1772957  )
        37           H   tau(  37) = (   0.8692209   0.2944185   0.1299730  )
        38           H   tau(  38) = (   0.4030137   0.3038318   0.4643538  )
        39           H   tau(  39) = (   0.5683549   0.7318402   0.4940948  )
        40           H   tau(  40) = (   0.4380810   1.0164447   0.2942879  )
        41           N   tau(  41) = (   0.6025592   1.6881995   1.1439600  )
        42           N   tau(  42) = (   0.3350713   1.2940393   1.1750155  )
        43           N   tau(  43) = (   0.1207586   0.3146472   0.3223857  )
        44           N   tau(  44) = (   0.8532706   0.7088075   0.3534412  )
        45           Ni  tau(  45) = (   0.4642458   1.5100663   1.3793082  )
        46           Ni  tau(  46) = (   0.9824452   0.4927804   0.5577339  )
        47           O   tau(  47) = (   0.2269989   0.7002353   0.6455930  )
        48           O   tau(  48) = (   0.7414252   0.2665388   0.6082936  )
        49           O   tau(  49) = (   0.9187989   0.7054627   0.8171378  )
        50           O   tau(  50) = (   0.0492397   0.2399410   0.7791810  )
        51           O   tau(  51) = (   0.7087996   1.3026115   1.4671673  )
        52           O   tau(  52) = (   0.2232258   1.7363079   1.4298678  )
        53           O   tau(  53) = (   0.4005995   1.2973840   1.6387120  )
        54           O   tau(  54) = (   0.5310404   1.7629057   1.6007553  )

     number of k points=     1  Marzari-Vanderbilt smearing, width (Ry)=  0.2000
                       cart. coord. in units 2pi/alat
        k(    1) = (   0.0000000   0.0000000   0.0000000), wk =   1.0000000

     Dense  grid:   366763 G-vectors     FFT dimensions: (  80, 160, 128)

     Estimated max dynamical RAM per process >     177.24 MB

     Estimated total dynamical RAM >       2.77 GB
     Generating pointlists ...
     new r_m :   0.0626 (alat units)  0.7399 (a.u.) for type    1
     new r_m :   0.0626 (alat units)  0.7399 (a.u.) for type    2
     new r_m :   0.0882 (alat units)  1.0416 (a.u.) for type    3
     new r_m :   0.1337 (alat units)  1.5801 (a.u.) for type    4
     new r_m :   0.0823 (alat units)  0.9721 (a.u.) for type    5

     Check: negative core charge=   -0.000145

     Initial potential from superposition of free atoms

     starting charge  199.99835, renormalised to  200.00000
     Starting wfcs are  178 randomized atomic wfcs

     total cpu time spent up to now is       14.4 secs

     Self-consistent Calculation

     iteration #  1     ecut=   100.00 Ry     beta= 0.70
     Davidson diagonalization with overlap
     ethr =  1.00E-02,  avg # of iterations =  4.0

     total cpu time spent up to now is       35.1 secs

     total energy              =    -808.50725247 Ry
     Harris-Foulkes estimate   =    -813.53932633 Ry
     estimated scf accuracy    <      13.16674673 Ry

     total magnetization       =     4.00 Bohr mag/cell
     absolute magnetization    =     4.57 Bohr mag/cell

     iteration #  2     ecut=   100.00 Ry     beta= 0.70
     Davidson diagonalization with overlap
     ethr =  6.58E-03,  avg # of iterations =  2.0

     total cpu time spent up to now is       48.6 secs

     total energy              =    -810.77779697 Ry
     Harris-Foulkes estimate   =    -813.09967892 Ry
     estimated scf accuracy    <      10.77611234 Ry

     total magnetization       =     4.00 Bohr mag/cell
     absolute magnetization    =     4.10 Bohr mag/cell

     iteration #  3     ecut=   100.00 Ry     beta= 0.70
     Davidson diagonalization with overlap
     ethr =  5.39E-03,  avg # of iterations =  1.0

     total cpu time spent up to now is       62.0 secs

     total energy              =    -810.33136594 Ry
     Harris-Foulkes estimate   =    -811.13808831 Ry
     estimated scf accuracy    <       2.70852781 Ry

     total magnetization       =     4.00 Bohr mag/cell
     absolute magnetization    =     4.09 Bohr mag/cell

     iteration #  4     ecut=   100.00 Ry     beta= 0.70
     Davidson diagonalization with overlap
     ethr =  1.35E-03,  avg # of iterations =  5.0

     total cpu time spent up to now is       77.2 secs

     total energy              =    -810.36344041 Ry
     Harris-Foulkes estimate   =    -811.20874772 Ry
     estimated scf accuracy    <       7.22466560 Ry

     total magnetization       =     4.00 Bohr mag/cell
     absolute magnetization    =     4.12 Bohr mag/cell

     iteration #  5     ecut=   100.00 Ry     beta= 0.70
     Davidson diagonalization with overlap
     ethr =  1.35E-03,  avg # of iterations =  3.0

     total cpu time spent up to now is       91.2 secs

     total energy              =    -810.68070914 Ry
     Harris-Foulkes estimate   =    -810.72553251 Ry
     estimated scf accuracy    <       0.13145996 Ry

     total magnetization       =     4.00 Bohr mag/cell
     absolute magnetization    =     4.13 Bohr mag/cell

     iteration #  6     ecut=   100.00 Ry     beta= 0.70
     Davidson diagonalization with overlap
     ethr =  6.57E-05,  avg # of iterations =  7.0

     total cpu time spent up to now is      109.4 secs

     total energy              =    -810.62339611 Ry
     Harris-Foulkes estimate   =    -810.73009154 Ry
     estimated scf accuracy    <       0.73093796 Ry

     total magnetization       =     4.00 Bohr mag/cell
     absolute magnetization    =     4.12 Bohr mag/cell

     iteration #  7     ecut=   100.00 Ry     beta= 0.70
     Davidson diagonalization with overlap
     ethr =  6.57E-05,  avg # of iterations =  2.0

     total cpu time spent up to now is      123.8 secs

     total energy              =    -810.67718318 Ry
     Harris-Foulkes estimate   =    -810.68422118 Ry
     estimated scf accuracy    <       0.08311419 Ry

     total magnetization       =     4.00 Bohr mag/cell
     absolute magnetization    =     4.13 Bohr mag/cell

     iteration #  8     ecut=   100.00 Ry     beta= 0.70
     Davidson diagonalization with overlap
     ethr =  4.16E-05,  avg # of iterations =  2.0

     total cpu time spent up to now is      137.8 secs

     total energy              =    -810.67971788 Ry
     Harris-Foulkes estimate   =    -810.68110833 Ry
     estimated scf accuracy    <       0.02217613 Ry

     total magnetization       =     4.00 Bohr mag/cell
     absolute magnetization    =     4.12 Bohr mag/cell

     iteration #  9     ecut=   100.00 Ry     beta= 0.70
     Davidson diagonalization with overlap
     ethr =  1.11E-05,  avg # of iterations =  2.0

     total cpu time spent up to now is      151.9 secs

     total energy              =    -810.68251946 Ry
     Harris-Foulkes estimate   =    -810.68274877 Ry
     estimated scf accuracy    <       0.04134192 Ry

     total magnetization       =     4.00 Bohr mag/cell
     absolute magnetization    =     4.11 Bohr mag/cell

     iteration # 10     ecut=   100.00 Ry     beta= 0.70
     Davidson diagonalization with overlap
     ethr =  1.11E-05,  avg # of iterations =  1.5

     total cpu time spent up to now is      165.3 secs

     total energy              =    -810.68200558 Ry
     Harris-Foulkes estimate   =    -810.68458954 Ry
     estimated scf accuracy    <       0.03729910 Ry

     total magnetization       =     4.00 Bohr mag/cell
     absolute magnetization    =     4.11 Bohr mag/cell

     iteration # 11     ecut=   100.00 Ry     beta= 0.70
     Davidson diagonalization with overlap
     ethr =  1.11E-05,  avg # of iterations =  2.0

     total cpu time spent up to now is      178.2 secs

     total energy              =    -810.68446899 Ry
     Harris-Foulkes estimate   =    -810.68396848 Ry
     estimated scf accuracy    <       0.00136072 Ry

     total magnetization       =     4.00 Bohr mag/cell
     absolute magnetization    =     4.10 Bohr mag/cell

     iteration # 12     ecut=   100.00 Ry     beta= 0.70
     Davidson diagonalization with overlap
     ethr =  6.80E-07,  avg # of iterations =  3.5

     total cpu time spent up to now is      192.7 secs

     total energy              =    -810.68495459 Ry
     Harris-Foulkes estimate   =    -810.68455724 Ry
     estimated scf accuracy    <       0.00037625 Ry

     total magnetization       =     4.00 Bohr mag/cell
     absolute magnetization    =     4.10 Bohr mag/cell

     iteration # 13     ecut=   100.00 Ry     beta= 0.70
     Davidson diagonalization with overlap
     ethr =  1.88E-07,  avg # of iterations =  3.5

     total cpu time spent up to now is      206.9 secs

     total energy              =    -810.68505279 Ry
     Harris-Foulkes estimate   =    -810.68498569 Ry
     estimated scf accuracy    <       0.00010317 Ry

     total magnetization       =     4.00 Bohr mag/cell
     absolute magnetization    =     4.10 Bohr mag/cell

     iteration # 14     ecut=   100.00 Ry     beta= 0.70
     Davidson diagonalization with overlap
     ethr =  5.16E-08,  avg # of iterations =  3.0

     total cpu time spent up to now is      220.9 secs

     total energy              =    -810.68507490 Ry
     Harris-Foulkes estimate   =    -810.68506127 Ry
     estimated scf accuracy    <       0.00003107 Ry

     total magnetization       =     4.00 Bohr mag/cell
     absolute magnetization    =     4.10 Bohr mag/cell

     iteration # 15     ecut=   100.00 Ry     beta= 0.70
     Davidson diagonalization with overlap
     ethr =  1.55E-08,  avg # of iterations =  2.5

     total cpu time spent up to now is      234.7 secs

     total energy              =    -810.68508186 Ry
     Harris-Foulkes estimate   =    -810.68507693 Ry
     estimated scf accuracy    <       0.00001038 Ry

     total magnetization       =     4.00 Bohr mag/cell
     absolute magnetization    =     4.10 Bohr mag/cell

     iteration # 16     ecut=   100.00 Ry     beta= 0.70
     Davidson diagonalization with overlap
     ethr =  5.19E-09,  avg # of iterations =  3.0

     total cpu time spent up to now is      249.0 secs

     total energy              =    -810.68508371 Ry
     Harris-Foulkes estimate   =    -810.68508309 Ry
     estimated scf accuracy    <       0.00000362 Ry

     total magnetization       =     4.00 Bohr mag/cell
     absolute magnetization    =     4.10 Bohr mag/cell

     iteration # 17     ecut=   100.00 Ry     beta= 0.70
     Davidson diagonalization with overlap
     ethr =  1.81E-09,  avg # of iterations =  2.5

     total cpu time spent up to now is      262.8 secs

     total energy              =    -810.68508450 Ry
     Harris-Foulkes estimate   =    -810.68508403 Ry
     estimated scf accuracy    <       0.00000163 Ry

     total magnetization       =     4.00 Bohr mag/cell
     absolute magnetization    =     4.10 Bohr mag/cell

     iteration # 18     ecut=   100.00 Ry     beta= 0.70
     Davidson diagonalization with overlap
     ethr =  8.16E-10,  avg # of iterations =  3.0
 
     Magnetic moment per site:
     atom:    1    charge:    0.5996    magn:    0.0036    constr:    0.0000
     atom:    2    charge:    0.5739    magn:    0.0039    constr:    0.0000
     atom:    3    charge:    0.5986    magn:    0.0038    constr:    0.0000
     atom:    4    charge:    0.5997    magn:    0.0036    constr:    0.0000
     atom:    5    charge:    0.5922    magn:    0.0032    constr:    0.0000
     atom:    6    charge:    0.5928    magn:    0.0033    constr:    0.0000
     atom:    7    charge:    0.5943    magn:    0.0032    constr:    0.0000
     atom:    8    charge:    0.5913    magn:    0.0033    constr:    0.0000
     atom:    9    charge:    0.5983    magn:    0.0036    constr:    0.0000
     atom:   10    charge:    0.5741    magn:    0.0038    constr:    0.0000
     atom:   11    charge:    0.5593    magn:   -0.0013    constr:    0.0000
     atom:   12    charge:    0.5593    magn:   -0.0012    constr:    0.0000
     atom:   13    charge:    0.5996    magn:    0.0036    constr:    0.0000
     atom:   14    charge:    0.5739    magn:    0.0039    constr:    0.0000
     atom:   15    charge:    0.5986    magn:    0.0038    constr:    0.0000
     atom:   16    charge:    0.5997    magn:    0.0036    constr:    0.0000
     atom:   17    charge:    0.5922    magn:    0.0032    constr:    0.0000
     atom:   18    charge:    0.5928    magn:    0.0033    constr:    0.0000
     atom:   19    charge:    0.5943    magn:    0.0032    constr:    0.0000
     atom:   20    charge:    0.5913    magn:    0.0033    constr:    0.0000
     atom:   21    charge:    0.5983    magn:    0.0036    constr:    0.0000
     atom:   22    charge:    0.5741    magn:    0.0038    constr:    0.0000
     atom:   23    charge:    0.5593    magn:   -0.0013    constr:    0.0000
     atom:   24    charge:    0.5593    magn:   -0.0012    constr:    0.0000
     atom:   25    charge:    0.4556    magn:   -0.0007    constr:    0.0000
     atom:   26    charge:    0.4558    magn:   -0.0008    constr:    0.0000
     atom:   27    charge:    0.4560    magn:   -0.0007    constr:    0.0000
     atom:   28    charge:    0.4596    magn:   -0.0005    constr:    0.0000
     atom:   29    charge:    0.4599    magn:   -0.0006    constr:    0.0000
     atom:   30    charge:    0.4581    magn:   -0.0004    constr:    0.0000
     atom:   31    charge:    0.4575    magn:   -0.0004    constr:    0.0000
     atom:   32    charge:    0.4564    magn:   -0.0008    constr:    0.0000
     atom:   33    charge:    0.4556    magn:   -0.0007    constr:    0.0000
     atom:   34    charge:    0.4558    magn:   -0.0008    constr:    0.0000
     atom:   35    charge:    0.4560    magn:   -0.0007    constr:    0.0000
     atom:   36    charge:    0.4596    magn:   -0.0005    constr:    0.0000
     atom:   37    charge:    0.4599    magn:   -0.0006    constr:    0.0000
     atom:   38    charge:    0.4581    magn:   -0.0004    constr:    0.0000
     atom:   39    charge:    0.4575    magn:   -0.0004    constr:    0.0000
     atom:   40    charge:    0.4564    magn:   -0.0008    constr:    0.0000
     atom:   41    charge:    2.4101    magn:    0.0143    constr:    0.0000
     atom:   42    charge:    2.4045    magn:    0.0134    constr:    0.0000
     atom:   43    charge:    2.4101    magn:    0.0143    constr:    0.0000
     atom:   44    charge:    2.4045    magn:    0.0134    constr:    0.0000
     atom:   45    charge:    7.5196    magn:    1.2592    constr:    0.0000
     atom:   46    charge:    7.5197    magn:    1.2592    constr:    0.0000
     atom:   47    charge:    3.1202    magn:    0.0530    constr:    0.0000
     atom:   48    charge:    3.1191    magn:    0.0537    constr:    0.0000
     atom:   49    charge:    3.1289    magn:    0.0507    constr:    0.0000
     atom:   50    charge:    3.1269    magn:    0.0529    constr:    0.0000
     atom:   51    charge:    3.1202    magn:    0.0530    constr:    0.0000
     atom:   52    charge:    3.1192    magn:    0.0537    constr:    0.0000
     atom:   53    charge:    3.1289    magn:    0.0507    constr:    0.0000
     atom:   54    charge:    3.1269    magn:    0.0529    constr:    0.0000

     total cpu time spent up to now is      276.3 secs

     End of self-consistent calculation

 ------ SPIN UP ------------


          k = 0.0000 0.0000 0.0000 ( 45819 PWs)   bands (ev):

   -22.6626 -22.6602 -22.5621 -22.5601 -19.9634 -19.9632 -19.9426 -19.9415
   -19.4057 -19.3919 -19.2806 -19.2731 -15.5799 -15.5127 -15.5076 -15.4802
   -14.6077 -14.5712 -14.5675 -14.5233 -11.7736 -11.7226 -11.7004 -11.6696
   -11.4720 -11.4414 -11.4111 -11.3511  -9.9230  -9.6613  -9.6378  -9.5635
    -8.2611  -7.9885  -7.9538  -7.9427  -7.6995  -7.6732  -7.6188  -7.5382
    -7.2952  -7.1784  -7.0216  -6.9629  -6.9116  -6.7460  -6.7175  -6.6700
    -6.6459  -6.6008  -6.4457  -6.4198  -6.3922  -6.3558  -6.2638  -6.1170
    -6.1111  -6.0396  -5.9788  -5.9312  -5.7186  -5.5560  -5.3639  -5.1753
    -4.5706  -4.5031  -4.3575  -4.2964  -4.2698  -4.2683  -4.0708  -4.0586
    -3.7554  -3.4915  -3.3580  -3.2642  -3.2476  -3.2079  -3.1878  -3.1479
    -3.0602  -2.7330  -2.6332  -2.6135  -2.5106  -2.4869  -2.4703  -2.4117
    -2.3795  -2.3318  -2.3047  -2.2857  -2.2262  -2.1471  -2.1080  -2.0670
    -2.0170  -1.9174  -0.5977  -0.5761  -0.3400  -0.3186   2.0439   2.0600
     2.0985   2.1388   3.0297   3.1420   3.3181   3.4718   3.4789   4.2657
     4.5052   4.5691   4.7428   4.7770   4.9909   5.3650   5.7319   5.7848
     5.8128   6.1255

 ------ SPIN DOWN ----------


          k = 0.0000 0.0000 0.0000 ( 45819 PWs)   bands (ev):

   -22.5614 -22.5589 -22.4607 -22.4586 -19.8354 -19.8353 -19.8115 -19.8104
   -19.3723 -19.3581 -19.2483 -19.2406 -15.5409 -15.4742 -15.4692 -15.4407
   -14.5736 -14.5368 -14.5333 -14.4891 -11.7281 -11.6807 -11.6593 -11.6297
   -11.4452 -11.4139 -11.3839 -11.3243  -9.8930  -9.6335  -9.6092  -9.5310
    -8.1956  -7.9352  -7.8970  -7.8799  -7.6602  -7.6262  -7.5772  -7.5052
    -7.2673  -7.1435  -6.9836  -6.9249  -6.8035  -6.6506  -6.5969  -6.5473
    -6.5302  -6.5207  -6.3401  -6.2956  -6.2670  -6.2419  -6.1976  -6.0811
    -6.0305  -6.0120  -5.9406  -5.9095  -5.6503  -5.4792  -5.2883  -5.0985
    -4.4320  -4.3074  -4.2773  -4.2393  -4.2317  -3.9085  -3.6082  -3.5906
    -3.2464  -3.1437  -3.0651  -3.0201  -2.7984  -2.7454  -2.6787  -2.6592
    -2.6094  -2.4724  -2.4718  -2.3585  -2.3143  -2.2955  -2.2147  -2.1617
    -2.1480  -2.0099  -1.9811  -1.8290  -1.6058  -1.3711  -1.3588  -1.3315
    -1.3125  -1.2015   0.2521   0.2585   0.4493   0.4681   2.1330   2.1629
     2.2152   2.2285   3.1060   3.2192   3.3969   3.5128   3.5531   4.3118
     4.5517   4.6266   4.8011   4.8488   5.0410   5.4109   5.7748   5.8167
     5.8597   6.2011

     the spin up/dw Fermi energies are     0.0860   -0.2221 ev

!    total energy              =    -810.68508474 Ry
     Harris-Foulkes estimate   =    -810.68508463 Ry
     estimated scf accuracy    <       0.00000040 Ry

     The total energy is the sum of the following terms:

     one-electron contribution =   -1216.55166863 Ry
     hartree contribution      =     678.55145433 Ry
     xc contribution           =    -248.39580487 Ry
     ewald contribution        =     -25.36061178 Ry
     Dispersion Correction     =      -0.20316514 Ry
     smearing contrib. (-TS)   =       1.27471136 Ry

     total magnetization       =     4.00 Bohr mag/cell
     absolute magnetization    =     4.10 Bohr mag/cell

     convergence has been achieved in  18 iterations

     Forces acting on atoms (cartesian axes, Ry/au):

     atom    1 type  1   force =     0.15796099   -0.07213193    0.17035246
     atom    2 type  1   force =     0.01391558    0.01125353    0.01196400
     atom    3 type  1   force =    -0.23408253   -0.04747730   -0.07997766
     atom    4 type  1   force =    -0.15337547    0.08563727    0.17212984
     atom    5 type  1   force =    -0.22791582   -0.09350166    0.03091257
     atom    6 type  1   force =     0.22243719    0.08446999    0.04666350
     atom    7 type  1   force =    -0.13055384    0.08629640   -0.17394086
     atom    8 type  1   force =     0.15582490   -0.07922369   -0.16637434
     atom    9 type  1   force =     0.24668958    0.06767129   -0.07942944
     atom   10 type  1   force =    -0.03532856   -0.01946965    0.00227902
     atom   11 type  1   force =    -0.05027381   -0.07834252    0.03176788
     atom   12 type  1   force =     0.05973547    0.08214308    0.03957486
     atom   13 type  1   force =     0.15796099    0.07213193    0.17035246
     atom   14 type  1   force =     0.01391558   -0.01125353    0.01196400
     atom   15 type  1   force =    -0.23408253    0.04747730   -0.07997766
     atom   16 type  1   force =    -0.15337547   -0.08563727    0.17212984
     atom   17 type  1   force =    -0.22791582    0.09350166    0.03091257
     atom   18 type  1   force =     0.22243719   -0.08446999    0.04666350
     atom   19 type  1   force =    -0.13055384   -0.08629640   -0.17394086
     atom   20 type  1   force =     0.15582490    0.07922369   -0.16637434
     atom   21 type  1   force =     0.24668958   -0.06767129   -0.07942944
     atom   22 type  1   force =    -0.03532856    0.01946965    0.00227902
     atom   23 type  1   force =    -0.05027381    0.07834252    0.03176788
     atom   24 type  1   force =     0.05973547   -0.08214308    0.03957486
     atom   25 type  2   force =    -0.16203174    0.09373398   -0.20258596
     atom   26 type  2   force =     0.25824503    0.08084841    0.05552841
     atom   27 type  2   force =     0.17051869   -0.09723434   -0.19363735
     atom   28 type  2   force =     0.25376191    0.11236079   -0.03346562
     atom   29 type  2   force =    -0.25715477   -0.10842058   -0.03605798
     atom   30 type  2   force =     0.14209411   -0.11256900    0.21337450
     atom   31 type  2   force =    -0.15071478    0.11831310    0.20180946
     atom   32 type  2   force =    -0.25602033   -0.09668898    0.05748685
     atom   33 type  2   force =    -0.16203174   -0.09373398   -0.20258596
     atom   34 type  2   force =     0.25824503   -0.08084841    0.05552841
     atom   35 type  2   force =     0.17051869    0.09723434   -0.19363735
     atom   36 type  2   force =     0.25376191   -0.11236079   -0.03346562
     atom   37 type  2   force =    -0.25715477    0.10842058   -0.03605798
     atom   38 type  2   force =     0.14209411    0.11256900    0.21337450
     atom   39 type  2   force =    -0.15071478   -0.11831310    0.20180946
     atom   40 type  2   force =    -0.25602033    0.09668898    0.05748685
     atom   41 type  3   force =    -0.02023829   -0.01655831    0.01630032
     atom   42 type  3   force =    -0.00189011    0.00391141    0.01725516
     atom   43 type  3   force =    -0.02023829    0.01655831    0.01630032
     atom   44 type  3   force =    -0.00189011   -0.00391141    0.01725516
     atom   45 type  4   force =     0.00168072   -0.00832595   -0.02475134
     atom   46 type  4   force =     0.00168072    0.00832595   -0.02475134
     atom   47 type  5   force =    -0.01504445   -0.03655225   -0.02527380
     atom   48 type  5   force =     0.01628476    0.03974124   -0.02006214
     atom   49 type  5   force =    -0.04231045   -0.04443196   -0.01694587
     atom   50 type  5   force =     0.03778604    0.04781880   -0.01489645
     atom   51 type  5   force =    -0.01504445    0.03655225   -0.02527380
     atom   52 type  5   force =     0.01628476   -0.03974124   -0.02006214
     atom   53 type  5   force =    -0.04231045    0.04443196   -0.01694587
     atom   54 type  5   force =     0.03778604   -0.04781880   -0.01489645

     Total force =     1.513990     Total SCF correction =     0.001155


     Computing stress (Cartesian axis) and pressure

          total   stress  (Ry/bohr**3)                   (kbar)     P=       93.61
   0.00109750   0.00000000  -0.00000118          161.45        0.00       -0.17
   0.00000000   0.00027964   0.00000000            0.00       41.14        0.00
  -0.00000118   0.00000000   0.00053182           -0.17        0.00       78.23


     BFGS Geometry Optimization

     number of scf cycles    =   1
     number of bfgs steps    =   0

     enthalpy new            =    -810.6850847358 Ry

     new trust radius        =       0.4043398996 bohr
     new conv_thr            =       0.0000010000 Ry

     new unit-cell volume =   5691.95954 a.u.^3 (   843.46137 Ang^3 )
     density =      1.19264 g/cm^3

CELL_PARAMETERS (angstrom)
   6.424360981   0.000000000  -0.000184008
   0.000000000  12.610950368   0.000000000
  -0.234140956   0.000000000  10.410886825

ATOMIC_POSITIONS (crystal)
C             0.6014876707        0.9562520597        0.5221740112
C             0.7944001105        0.9984755187        0.5343162061
C             0.8971395571        0.9525938431        0.6312807472
C             0.3950424617        0.5227186093        0.5529655551
C             0.4610693366        0.5992490805        0.6232921532
C             0.5304124382        0.8844692856        0.5974034059
C             0.8171250812        0.8813464609        0.7047411679
C             0.1773756245        0.6011523969        0.7260308820
C             0.1033285392        0.5231594553        0.6585089829
C             0.2049144007        0.4761773086        0.5647173812
C             0.8738048612        0.0859896311        0.4566362062
C             0.1271296304        0.3896709619        0.4835383050
C             0.1014876707        0.0437479403        0.0221740112
C             0.2944001105        0.0015244813        0.0343162061
C             0.3971395571        0.0474061569        0.1312807472
C             0.8950424617        0.4772813907        0.0529655551
C             0.9610693366        0.4007509195        0.1232921532
C             0.0304124382        0.1155307144        0.0974034059
C             0.3171250812        0.1186535391        0.2047411679
C             0.6773756245        0.3988476031        0.2260308820
C             0.6033285392        0.4768405447        0.1585089829
C             0.7049144007        0.5238226914        0.0647173812
C             0.3738048612        0.9140103689        0.9566362062
C             0.6271296304        0.6103290381        0.9835383050
H             0.4861073913        0.9901607365        0.4336658007
H             0.0821594908        0.9812162556        0.6533599932
H             0.5091680557        0.4868913558        0.4678266993
H             0.6405132435        0.6360478134        0.6061763519
H             0.3502692802        0.8484186800        0.5772428321
H             0.9257255037        0.8435433883        0.7935898632
H             0.0669232781        0.6395993290        0.8110942056
H             0.9230406591        0.4884143999        0.6820608626
H            -0.0138926087        0.0098392635        0.9336658007
H             0.5821594908        0.0187837444        0.1533599932
H             1.0091680557        0.5131086442        0.9678266993
H             0.1405132435        0.3639521866        0.1061763519
H             0.8502692802        0.1515813200        0.0772428321
H             0.4257255037        0.1564566117        0.2935898632
H             0.5669232781        0.3604006710        0.3110942056
H             0.4230406591        0.5115856001        0.1820608626
N             0.6262177827        0.8422003275        0.6970395486
N             0.3609723874        0.6462652768        0.7159887277
N             0.1262177827        0.1577996725        0.1970395486
N             0.8609723874        0.3537347232        0.2159887277
Ni            0.4948958382        0.7536081865        0.8381551811
Ni            0.9948958382        0.2463918135        0.3381551811
O             0.2399794000        0.3480754819        0.3915982720
O             0.7562405759        0.1347592691        0.3691666985
O             0.9332874792        0.3503525244        0.4964272021
O             0.0696699222        0.1218205871        0.4734327574
O             0.7399794000        0.6519245181        0.8915982720
O             0.2562405759        0.8652407309        0.8691666985
O             0.4332874792        0.6496474756        0.9964272021
O             0.5696699222        0.8781794129        0.9734327574



     Writing output data file ./QE_relaxation_results/PBESOL_angle-vc-relax/NiPyC2_pbesol_angle-vc-relax.save/
     NEW-OLD atomic charge density approx. for the potential
     NEW k-points:
   0.0000000   0.0000000   0.0000000   1.0000000
   0.0000000   0.0000000   0.0000000   1.0000000

     Check: negative core charge=   -0.000171
     extrapolated charge  209.22867, renormalised to  200.00000

     total cpu time spent up to now is      301.4 secs

     Self-consistent Calculation

     iteration #  1     ecut=   100.00 Ry     beta= 0.70
     Davidson diagonalization with overlap
     ethr =  1.00E-06,  avg # of iterations = 19.0

     total cpu time spent up to now is      376.1 secs

     total energy              =    -778.04636630 Ry
     Harris-Foulkes estimate   =    -764.26201536 Ry
     estimated scf accuracy    <      83.50273816 Ry

     total magnetization       =     4.00 Bohr mag/cell
     absolute magnetization    =     4.09 Bohr mag/cell

     iteration #  2     ecut=   100.00 Ry     beta= 0.70
     Davidson diagonalization with overlap
     ethr =  1.00E-02,  avg # of iterations =  5.5

     total cpu time spent up to now is      408.8 secs

     total energy              =    -814.58236105 Ry
     Harris-Foulkes estimate   =    -822.74619204 Ry
     estimated scf accuracy    <      35.43557704 Ry

     total magnetization       =     4.00 Bohr mag/cell
     absolute magnetization    =     4.11 Bohr mag/cell

     iteration #  3     ecut=   100.00 Ry     beta= 0.70
     Davidson diagonalization with overlap
     ethr =  1.00E-02,  avg # of iterations =  2.0

     total cpu time spent up to now is      422.9 secs

     total energy              =    -812.60552807 Ry
     Harris-Foulkes estimate   =    -815.39340296 Ry
     estimated scf accuracy    <      16.26947501 Ry

     total magnetization       =     4.00 Bohr mag/cell
     absolute magnetization    =     4.10 Bohr mag/cell

     iteration #  4     ecut=   100.00 Ry     beta= 0.70
     Davidson diagonalization with overlap
     ethr =  8.13E-03,  avg # of iterations =  1.0

     total cpu time spent up to now is      437.0 secs

     total energy              =    -809.16636580 Ry
     Harris-Foulkes estimate   =    -812.80646790 Ry
     estimated scf accuracy    <      10.80386147 Ry

     total magnetization       =     4.00 Bohr mag/cell
     absolute magnetization    =     4.13 Bohr mag/cell

     iteration #  5     ecut=   100.00 Ry     beta= 0.70
     Davidson diagonalization with overlap
     ethr =  5.40E-03,  avg # of iterations =  4.5

     total cpu time spent up to now is      451.8 secs

     total energy              =    -809.27569165 Ry
     Harris-Foulkes estimate   =    -811.00964195 Ry
     estimated scf accuracy    <      10.38052651 Ry

     total magnetization       =     4.00 Bohr mag/cell
     absolute magnetization    =     4.16 Bohr mag/cell

     iteration #  6     ecut=   100.00 Ry     beta= 0.70
     Davidson diagonalization with overlap
     ethr =  5.19E-03,  avg # of iterations =  1.0

     total cpu time spent up to now is      465.3 secs

     total energy              =    -810.48454216 Ry
     Harris-Foulkes estimate   =    -810.71406146 Ry
     estimated scf accuracy    <       4.24413742 Ry

     total magnetization       =     4.00 Bohr mag/cell
     absolute magnetization    =     4.14 Bohr mag/cell

     iteration #  7     ecut=   100.00 Ry     beta= 0.70
     Davidson diagonalization with overlap
     ethr =  2.12E-03,  avg # of iterations =  1.0

     total cpu time spent up to now is      479.1 secs

     total energy              =    -810.25290899 Ry
     Harris-Foulkes estimate   =    -810.52239888 Ry
     estimated scf accuracy    <       1.92412688 Ry

     total magnetization       =     4.00 Bohr mag/cell
     absolute magnetization    =     4.14 Bohr mag/cell

     iteration #  8     ecut=   100.00 Ry     beta= 0.70
     Davidson diagonalization with overlap
     ethr =  9.62E-04,  avg # of iterations =  3.0

     total cpu time spent up to now is      492.9 secs

     total energy              =    -810.40679107 Ry
     Harris-Foulkes estimate   =    -810.43219468 Ry
     estimated scf accuracy    <       0.52701958 Ry

     total magnetization       =     4.00 Bohr mag/cell
     absolute magnetization    =     4.14 Bohr mag/cell

     iteration #  9     ecut=   100.00 Ry     beta= 0.70
     Davidson diagonalization with overlap
     ethr =  2.64E-04,  avg # of iterations =  1.0

     total cpu time spent up to now is      506.2 secs

     total energy              =    -810.41217355 Ry
     Harris-Foulkes estimate   =    -810.41189322 Ry
     estimated scf accuracy    <       0.22421095 Ry

     total magnetization       =     4.00 Bohr mag/cell
     absolute magnetization    =     4.15 Bohr mag/cell

     iteration # 10     ecut=   100.00 Ry     beta= 0.70
     Davidson diagonalization with overlap
     ethr =  1.12E-04,  avg # of iterations =  1.0

     total cpu time spent up to now is      519.9 secs

     total energy              =    -810.27988240 Ry
     Harris-Foulkes estimate   =    -810.41619092 Ry
     estimated scf accuracy    <       0.39786991 Ry

     total magnetization       =     4.00 Bohr mag/cell
     absolute magnetization    =     4.14 Bohr mag/cell

     iteration # 11     ecut=   100.00 Ry     beta= 0.70
     Davidson diagonalization with overlap
     ethr =  1.12E-04,  avg # of iterations =  2.0

     total cpu time spent up to now is      535.2 secs

     total energy              =    -810.45947316 Ry
     Harris-Foulkes estimate   =    -810.51029855 Ry
     estimated scf accuracy    <       1.89272938 Ry

     total magnetization       =     4.00 Bohr mag/cell
     absolute magnetization    =     4.10 Bohr mag/cell

     iteration # 12     ecut=   100.00 Ry     beta= 0.70
     Davidson diagonalization with overlap
     ethr =  1.12E-04,  avg # of iterations =  1.0

     total cpu time spent up to now is      548.8 secs

     total energy              =    -810.34744985 Ry
     Harris-Foulkes estimate   =    -810.46451524 Ry
     estimated scf accuracy    <       1.22680512 Ry

     total magnetization       =     4.00 Bohr mag/cell
     absolute magnetization    =     4.10 Bohr mag/cell

     iteration # 13     ecut=   100.00 Ry     beta= 0.70
     Davidson diagonalization with overlap
     ethr =  1.12E-04,  avg # of iterations =  2.0

     total cpu time spent up to now is      562.5 secs

     total energy              =    -810.39385420 Ry
     Harris-Foulkes estimate   =    -810.39550307 Ry
     estimated scf accuracy    <       0.02411136 Ry

     total magnetization       =     4.00 Bohr mag/cell
     absolute magnetization    =     4.09 Bohr mag/cell

     iteration # 14     ecut=   100.00 Ry     beta= 0.70
     Davidson diagonalization with overlap
     ethr =  1.21E-05,  avg # of iterations =  5.0

     total cpu time spent up to now is      577.1 secs

     total energy              =    -810.39509403 Ry
     Harris-Foulkes estimate   =    -810.39514105 Ry
     estimated scf accuracy    <       0.00260584 Ry

     total magnetization       =     4.00 Bohr mag/cell
     absolute magnetization    =     4.07 Bohr mag/cell

     iteration # 15     ecut=   100.00 Ry     beta= 0.70
     Davidson diagonalization with overlap
     ethr =  1.30E-06,  avg # of iterations =  9.0

     total cpu time spent up to now is      593.7 secs

     total energy              =    -810.39515225 Ry
     Harris-Foulkes estimate   =    -810.39537076 Ry
     estimated scf accuracy    <       0.00347174 Ry

     total magnetization       =     4.00 Bohr mag/cell
     absolute magnetization    =     4.07 Bohr mag/cell

     iteration # 16     ecut=   100.00 Ry     beta= 0.70
     Davidson diagonalization with overlap
     ethr =  1.30E-06,  avg # of iterations =  1.5

     total cpu time spent up to now is      606.4 secs

     total energy              =    -810.39527401 Ry
     Harris-Foulkes estimate   =    -810.39526841 Ry
     estimated scf accuracy    <       0.00026673 Ry

     total magnetization       =     4.00 Bohr mag/cell
     absolute magnetization    =     4.07 Bohr mag/cell

     iteration # 17     ecut=   100.00 Ry     beta= 0.70
     Davidson diagonalization with overlap
     ethr =  1.33E-07,  avg # of iterations =  1.5

     total cpu time spent up to now is      619.2 secs

     total energy              =    -810.39530725 Ry
     Harris-Foulkes estimate   =    -810.39528949 Ry
     estimated scf accuracy    <       0.00004095 Ry

     total magnetization       =     4.00 Bohr mag/cell
     absolute magnetization    =     4.07 Bohr mag/cell

     iteration # 18     ecut=   100.00 Ry     beta= 0.70
     Davidson diagonalization with overlap
     ethr =  2.05E-08,  avg # of iterations =  3.0

     total cpu time spent up to now is      633.1 secs

     total energy              =    -810.39531913 Ry
     Harris-Foulkes estimate   =    -810.39531548 Ry
     estimated scf accuracy    <       0.00002543 Ry

     total magnetization       =     4.00 Bohr mag/cell
     absolute magnetization    =     4.07 Bohr mag/cell

     iteration # 19     ecut=   100.00 Ry     beta= 0.70
     Davidson diagonalization with overlap
     ethr =  1.27E-08,  avg # of iterations =  2.0

     total cpu time spent up to now is      646.5 secs

     total energy              =    -810.39532313 Ry
     Harris-Foulkes estimate   =    -810.39532204 Ry
     estimated scf accuracy    <       0.00000451 Ry

     total magnetization       =     4.00 Bohr mag/cell
     absolute magnetization    =     4.07 Bohr mag/cell

     iteration # 20     ecut=   100.00 Ry     beta= 0.70
     Davidson diagonalization with overlap
     ethr =  2.25E-09,  avg # of iterations =  3.0

     total cpu time spent up to now is      661.3 secs

     total energy              =    -810.39532510 Ry
     Harris-Foulkes estimate   =    -810.39532502 Ry
     estimated scf accuracy    <       0.00000344 Ry

     total magnetization       =     4.00 Bohr mag/cell
     absolute magnetization    =     4.07 Bohr mag/cell

     iteration # 21     ecut=   100.00 Ry     beta= 0.70
     Davidson diagonalization with overlap
     ethr =  1.72E-09,  avg # of iterations =  1.5
 
     Magnetic moment per site:
     atom:    1    charge:    0.5842    magn:    0.0039    constr:    0.0000
     atom:    2    charge:    0.6238    magn:    0.0036    constr:    0.0000
     atom:    3    charge:    0.5840    magn:    0.0036    constr:    0.0000
     atom:    4    charge:    0.5833    magn:    0.0039    constr:    0.0000
     atom:    5    charge:    0.5782    magn:    0.0029    constr:    0.0000
     atom:    6    charge:    0.5784    magn:    0.0030    constr:    0.0000
     atom:    7    charge:    0.5800    magn:    0.0038    constr:    0.0000
     atom:    8    charge:    0.5800    magn:    0.0035    constr:    0.0000
     atom:    9    charge:    0.5793    magn:    0.0035    constr:    0.0000
     atom:   10    charge:    0.6235    magn:    0.0037    constr:    0.0000
     atom:   11    charge:    0.5614    magn:   -0.0019    constr:    0.0000
     atom:   12    charge:    0.5609    magn:   -0.0018    constr:    0.0000
     atom:   13    charge:    0.5842    magn:    0.0039    constr:    0.0000
     atom:   14    charge:    0.6238    magn:    0.0036    constr:    0.0000
     atom:   15    charge:    0.5840    magn:    0.0036    constr:    0.0000
     atom:   16    charge:    0.5833    magn:    0.0039    constr:    0.0000
     atom:   17    charge:    0.5782    magn:    0.0029    constr:    0.0000
     atom:   18    charge:    0.5784    magn:    0.0030    constr:    0.0000
     atom:   19    charge:    0.5800    magn:    0.0038    constr:    0.0000
     atom:   20    charge:    0.5800    magn:    0.0035    constr:    0.0000
     atom:   21    charge:    0.5793    magn:    0.0035    constr:    0.0000
     atom:   22    charge:    0.6235    magn:    0.0037    constr:    0.0000
     atom:   23    charge:    0.5614    magn:   -0.0019    constr:    0.0000
     atom:   24    charge:    0.5608    magn:   -0.0018    constr:    0.0000
     atom:   25    charge:    0.3557    magn:    0.0013    constr:    0.0000
     atom:   26    charge:    0.3504    magn:    0.0016    constr:    0.0000
     atom:   27    charge:    0.3545    magn:    0.0014    constr:    0.0000
     atom:   28    charge:    0.3567    magn:    0.0017    constr:    0.0000
     atom:   29    charge:    0.3588    magn:    0.0016    constr:    0.0000
     atom:   30    charge:    0.3593    magn:    0.0020    constr:    0.0000
     atom:   31    charge:    0.3570    magn:    0.0019    constr:    0.0000
     atom:   32    charge:    0.3470    magn:    0.0016    constr:    0.0000
     atom:   33    charge:    0.3557    magn:    0.0013    constr:    0.0000
     atom:   34    charge:    0.3504    magn:    0.0016    constr:    0.0000
     atom:   35    charge:    0.3545    magn:    0.0014    constr:    0.0000
     atom:   36    charge:    0.3567    magn:    0.0017    constr:    0.0000
     atom:   37    charge:    0.3588    magn:    0.0016    constr:    0.0000
     atom:   38    charge:    0.3593    magn:    0.0020    constr:    0.0000
     atom:   39    charge:    0.3570    magn:    0.0019    constr:    0.0000
     atom:   40    charge:    0.3470    magn:    0.0016    constr:    0.0000
     atom:   41    charge:    2.5185    magn:    0.0147    constr:    0.0000
     atom:   42    charge:    2.5179    magn:    0.0144    constr:    0.0000
     atom:   43    charge:    2.5185    magn:    0.0147    constr:    0.0000
     atom:   44    charge:    2.5179    magn:    0.0144    constr:    0.0000
     atom:   45    charge:    7.5641    magn:    1.2451    constr:    0.0000
     atom:   46    charge:    7.5646    magn:    1.2453    constr:    0.0000
     atom:   47    charge:    3.1663    magn:    0.0491    constr:    0.0000
     atom:   48    charge:    3.1643    magn:    0.0506    constr:    0.0000
     atom:   49    charge:    3.1495    magn:    0.0601    constr:    0.0000
     atom:   50    charge:    3.1508    magn:    0.0605    constr:    0.0000
     atom:   51    charge:    3.1663    magn:    0.0491    constr:    0.0000
     atom:   52    charge:    3.1644    magn:    0.0506    constr:    0.0000
     atom:   53    charge:    3.1495    magn:    0.0601    constr:    0.0000
     atom:   54    charge:    3.1509    magn:    0.0605    constr:    0.0000

     total cpu time spent up to now is      674.5 secs

     End of self-consistent calculation

 ------ SPIN UP ------------


          k = 0.0000 0.0000 0.0000 ( 45819 PWs)   bands (ev):

   -22.1511 -22.1443 -22.0545 -22.0499 -20.4669 -20.4490 -20.3923 -20.3817
   -19.5923 -19.5911 -19.5693 -19.5683 -16.5939 -16.5352 -16.5350 -16.5110
   -14.5711 -14.5433 -14.5086 -14.4837 -12.6247 -12.5206 -12.4729 -12.4549
   -11.0076 -10.9885 -10.9584 -10.8981  -9.7543  -9.6349  -9.6116  -9.5140
    -8.6084  -8.3377  -8.2973  -8.2640  -8.2078  -8.1709  -7.9428  -7.8442
    -7.2495  -7.1933  -7.1265  -6.9838  -6.9330  -6.7413  -6.6922  -6.5210
    -6.4820  -6.4464  -6.4308  -6.3384  -6.2894  -6.0091  -5.7701  -5.5357
    -5.2853  -5.1307  -5.1231  -5.1220  -4.9956  -4.9187  -4.8588  -4.8048
    -4.7651  -4.6836  -4.5468  -4.4648  -4.0565  -4.0530  -4.0374  -3.8954
    -3.7727  -3.6462  -3.6335  -3.5848  -3.5512  -3.2605  -3.2167  -3.1111
    -3.0643  -3.0059  -2.9851  -2.9362  -2.8832  -2.8822  -2.8519  -2.7943
    -2.7016  -2.6588  -2.6007  -2.5604  -2.5430  -2.5275  -2.5095  -2.4576
    -2.4050  -2.3503  -1.0450  -0.9997  -0.8806  -0.8742   1.3124   1.3644
     1.3861   1.4587   2.9568   3.4896   3.6033   3.6992   3.7174   3.9043
     3.9362   4.0390   4.1145   4.2712   4.3569   4.6154   4.7193   4.9221
     5.0277   5.0720

 ------ SPIN DOWN ----------


          k = 0.0000 0.0000 0.0000 ( 45819 PWs)   bands (ev):

   -22.0474 -22.0401 -21.9521 -21.9471 -20.4342 -20.4156 -20.3593 -20.3481
   -19.4521 -19.4509 -19.4307 -19.4297 -16.5568 -16.4983 -16.4981 -16.4733
   -14.5326 -14.5048 -14.4690 -14.4441 -12.5850 -12.4820 -12.4354 -12.4149
   -10.9722 -10.9530 -10.9237 -10.8638  -9.7145  -9.5949  -9.5713  -9.4757
    -8.5520  -8.3015  -8.2568  -8.2238  -8.1661  -8.1064  -7.8702  -7.7641
    -7.1645  -7.0778  -6.9998  -6.8969  -6.8343  -6.6588  -6.6151  -6.4547
    -6.3512  -6.3374  -6.2871  -6.2549  -6.1603  -5.9080  -5.6759  -5.4485
    -5.2455  -5.0937  -5.0752  -5.0232  -4.9353  -4.8203  -4.7438  -4.7275
    -4.6935  -4.3388  -4.1237  -4.0602  -3.9291  -3.7057  -3.6893  -3.4905
    -3.3658  -3.3249  -3.2868  -3.0953  -3.0597  -3.0388  -2.9932  -2.9619
    -2.8743  -2.7990  -2.7616  -2.6597  -2.6403  -2.5809  -2.5530  -2.4621
    -2.4234  -2.3753  -2.3578  -2.2745  -2.0396  -1.7737  -1.7641  -1.7637
    -1.7526  -1.6427  -0.2284  -0.2109  -0.1044  -0.0671   1.4141   1.4492
     1.5000   1.5457   2.9871   3.5495   3.6584   3.7426   3.7753   3.9390
     4.0011   4.0916   4.1776   4.3159   4.4145   4.6559   4.7763   4.9548
     5.0735   5.0984

     the spin up/dw Fermi energies are    -0.4066   -0.6633 ev

!    total energy              =    -810.39532557 Ry
     Harris-Foulkes estimate   =    -810.39532554 Ry
     estimated scf accuracy    <       0.00000041 Ry

     The total energy is the sum of the following terms:

     one-electron contribution =   -1226.55527679 Ry
     hartree contribution      =     681.23575665 Ry
     xc contribution           =    -246.02510163 Ry
     ewald contribution        =     -20.33885767 Ry
     Dispersion Correction     =      -0.19105174 Ry
     smearing contrib. (-TS)   =       1.47920560 Ry

     total magnetization       =     4.00 Bohr mag/cell
     absolute magnetization    =     4.07 Bohr mag/cell

     convergence has been achieved in  21 iterations

     Forces acting on atoms (cartesian axes, Ry/au):

     atom    1 type  1   force =    -0.11152844    0.18903286   -0.29113044
     atom    2 type  1   force =     0.00023497    0.07099881   -0.06953158
     atom    3 type  1   force =     0.33454050    0.14476417    0.01918419
     atom    4 type  1   force =     0.10264521   -0.22500693   -0.28789546
     atom    5 type  1   force =     0.31930057    0.23219442    0.04687087
     atom    6 type  1   force =    -0.32616039   -0.20709080    0.03406186
     atom    7 type  1   force =     0.08484445   -0.20408816    0.28917634
     atom    8 type  1   force =    -0.11272560    0.21344908    0.27689338
     atom    9 type  1   force =    -0.32710750   -0.17346681    0.02294632
     atom   10 type  1   force =     0.02173034   -0.05769871   -0.06972581
     atom   11 type  1   force =     0.05222893    0.05949559   -0.03309500
     atom   12 type  1   force =    -0.05741363   -0.06190084   -0.04028783
     atom   13 type  1   force =    -0.11152844   -0.18903286   -0.29113044
     atom   14 type  1   force =     0.00023497   -0.07099881   -0.06953158
     atom   15 type  1   force =     0.33454050   -0.14476417    0.01918419
     atom   16 type  1   force =     0.10264521    0.22500693   -0.28789546
     atom   17 type  1   force =     0.31930057   -0.23219442    0.04687087
     atom   18 type  1   force =    -0.32616039    0.20709080    0.03406186
     atom   19 type  1   force =     0.08484445    0.20408816    0.28917634
     atom   20 type  1   force =    -0.11272560   -0.21344908    0.27689338
     atom   21 type  1   force =    -0.32710750    0.17346681    0.02294632
     atom   22 type  1   force =     0.02173034    0.05769871   -0.06972581
     atom   23 type  1   force =     0.05222893   -0.05949559   -0.03309500
     atom   24 type  1   force =    -0.05741363    0.06190084   -0.04028783
     atom   25 type  2   force =     0.07546161   -0.04614140    0.09947922
     atom   26 type  2   force =    -0.13007533   -0.04256070   -0.02097078
     atom   27 type  2   force =    -0.07784824    0.04956889    0.09536255
     atom   28 type  2   force =    -0.12492855   -0.05283303    0.01794015
     atom   29 type  2   force =     0.12175865    0.05388154    0.02207885
     atom   30 type  2   force =    -0.06660160    0.05163597   -0.09267873
     atom   31 type  2   force =     0.07251862   -0.04983221   -0.08826149
     atom   32 type  2   force =     0.12878424    0.05367495   -0.02346369
     atom   33 type  2   force =     0.07546161    0.04614140    0.09947922
     atom   34 type  2   force =    -0.13007533    0.04256070   -0.02097078
     atom   35 type  2   force =    -0.07784824   -0.04956889    0.09536255
     atom   36 type  2   force =    -0.12492855    0.05283303    0.01794015
     atom   37 type  2   force =     0.12175865   -0.05388154    0.02207885
     atom   38 type  2   force =    -0.06660160   -0.05163597   -0.09267873
     atom   39 type  2   force =     0.07251862    0.04983221   -0.08826149
     atom   40 type  2   force =     0.12878424   -0.05367495   -0.02346369
     atom   41 type  3   force =     0.00745988   -0.01496427    0.03370319
     atom   42 type  3   force =     0.00858394    0.02311391    0.02487995
     atom   43 type  3   force =     0.00745988    0.01496427    0.03370319
     atom   44 type  3   force =     0.00858394   -0.02311391    0.02487995
     atom   45 type  4   force =     0.00132096   -0.00891634   -0.00831815
     atom   46 type  4   force =     0.00132096    0.00891634   -0.00831815
     atom   47 type  5   force =    -0.07863429    0.01554925    0.06001925
     atom   48 type  5   force =     0.07905670   -0.01943714    0.05918506
     atom   49 type  5   force =     0.12807093    0.02453102   -0.03854776
     atom   50 type  5   force =    -0.12551695   -0.01475180   -0.03787445
     atom   51 type  5   force =    -0.07863429   -0.01554925    0.06001925
     atom   52 type  5   force =     0.07905670    0.01943714    0.05918506
     atom   53 type  5   force =     0.12807093   -0.02453102   -0.03854776
     atom   54 type  5   force =    -0.12551695    0.01475180   -0.03787445

     Total force =     1.649192     Total SCF correction =     0.001046


     Computing stress (Cartesian axis) and pressure

          total   stress  (Ry/bohr**3)                   (kbar)     P=       19.32
  -0.00007735   0.00000000  -0.00000372          -11.38        0.00       -0.55
   0.00000000   0.00025071   0.00000000            0.00       36.88        0.00
  -0.00000372   0.00000000   0.00022070           -0.55        0.00       32.47


     number of scf cycles    =   2
     number of bfgs steps    =   1

     enthalpy old            =    -810.6850847358 Ry
     enthalpy new            =    -810.3953255705 Ry

     CASE: enthalpy_new > enthalpy_old

     new trust radius        =       0.1805830234 bohr
     new conv_thr            =       0.0000010000 Ry

     new unit-cell volume =   5546.14106 a.u.^3 (   821.85330 Ang^3 )
     density =      1.22399 g/cm^3

CELL_PARAMETERS (angstrom)
   6.329685728   0.000000000  -0.000082464
   0.000000000  12.562636042   0.000000000
  -0.230528044   0.000000000  10.335500334

ATOMIC_POSITIONS (crystal)
C             0.5939341835        0.9579340536        0.5173321076
C             0.7937378343        0.9982131056        0.5339761552
C             0.9081546490        0.9537009329        0.6335539407
C             0.4020274744        0.5207216940        0.5480731334
C             0.4716817026        0.6014293799        0.6224135297
C             0.5199756836        0.8824995894        0.5960770958
C             0.8234022854        0.8793341758        0.7096850642
C             0.1702702618        0.6029997585        0.7307597161
C             0.0918895764        0.5215814761        0.6607665946
C             0.2065619919        0.4766313076        0.5646526048
C             0.8761199320        0.0878164451        0.4557332722
C             0.1242988641        0.3877555252        0.4824134744
C             0.0939341835        0.0420659464        0.0173321076
C             0.2937378343        0.0017868944        0.0339761552
C             0.4081546490        0.0462990671        0.1335539407
C             0.9020274744        0.4792783060        0.0480731334
C             0.9716817026        0.3985706201        0.1224135297
C             0.0199756836        0.1175004106        0.0960770958
C             0.3234022854        0.1206658242        0.2096850642
C             0.6702702618        0.3970002415        0.2307597161
C             0.5918895764        0.4784185239        0.1607665946
C             0.7065619919        0.5233686924        0.0646526048
C             0.3761199320        0.9121835549        0.9557332722
C             0.6242988641        0.6122444748        0.9824134744
H             0.4938843420        0.9879750196        0.4394238725
H             0.0700412322        0.9793310084        0.6517817172
H             0.5014046545        0.4891586949        0.4733304261
H             0.6286964293        0.6334277513        0.6071275403
H             0.3623164771        0.8509468634        0.5782677029
H             0.9188685384        0.8461683058        0.7875251504
H             0.0737533234        0.6368404690        0.8053582041
H             0.9349380966        0.4906690223        0.6804269222
H            -0.0061156580        0.0120249804        0.9394238725
H             0.5700412322        0.0206689916        0.1517817172
H             1.0014046545        0.5108413051        0.9733304261
H             0.1286964293        0.3665722487        0.1071275403
H             0.8623164771        0.1490531366        0.0782677029
H             0.4188685384        0.1538316942        0.2875251504
H             0.5737533234        0.3631595310        0.3053582041
H             0.4349380966        0.5093309777        0.1804269222
N             0.6271461077        0.8425864390        0.6965762470
N             0.3610428099        0.6461740695        0.7154982868
N             0.1271461077        0.1574135610        0.1965762470
N             0.8610428099        0.3538259305        0.2154982868
Ni            0.4948429503        0.7538023334        0.8388586849
Ni            0.9948429503        0.2461976666        0.3388586849
O             0.2407081679        0.3489278181        0.3923166255
O             0.7555007844        0.1338325711        0.3697369219
O             0.9352810346        0.3513886019        0.4969088522
O             0.0679206131        0.1207055341        0.4738561572
O             0.7407081679        0.6510721819        0.8923166255
O             0.2555007844        0.8661674289        0.8697369219
O             0.4352810346        0.6486113981        0.9969088522
O             0.5679206131        0.8792944659        0.9738561572



     Writing output data file ./QE_relaxation_results/PBESOL_angle-vc-relax/NiPyC2_pbesol_angle-vc-relax.save/
     NEW-OLD atomic charge density approx. for the potential
     NEW k-points:
   0.0000000   0.0000000   0.0000000   1.0000000
   0.0000000   0.0000000   0.0000000   1.0000000

     Check: negative core charge=   -0.000157
     extrapolated charge  194.74167, renormalised to  200.00000

     total cpu time spent up to now is      699.5 secs

     Self-consistent Calculation

     iteration #  1     ecut=   100.00 Ry     beta= 0.70
     Davidson diagonalization with overlap
     c_bands:  2 eigenvalues not converged
     ethr =  1.00E-06,  avg # of iterations = 20.0

     total cpu time spent up to now is      760.6 secs

     total energy              =    -807.92731611 Ry
     Harris-Foulkes estimate   =    -840.67755566 Ry
     estimated scf accuracy    <       7.86436749 Ry

     total magnetization       =     4.00 Bohr mag/cell
     absolute magnetization    =     4.18 Bohr mag/cell

     iteration #  2     ecut=   100.00 Ry     beta= 0.70
     Davidson diagonalization with overlap
     ethr =  3.93E-03,  avg # of iterations =  3.5

     total cpu time spent up to now is      776.9 secs

     total energy              =    -808.67311972 Ry
     Harris-Foulkes estimate   =    -814.94015807 Ry
     estimated scf accuracy    <      61.86567118 Ry

     total magnetization       =     4.00 Bohr mag/cell
     absolute magnetization    =     4.23 Bohr mag/cell

     iteration #  3     ecut=   100.00 Ry     beta= 0.70
     Davidson diagonalization with overlap
     ethr =  3.93E-03,  avg # of iterations =  2.5

     total cpu time spent up to now is      791.5 secs

     total energy              =    -811.14173438 Ry
     Harris-Foulkes estimate   =    -811.32952765 Ry
     estimated scf accuracy    <       1.32516555 Ry

     total magnetization       =     4.00 Bohr mag/cell
     absolute magnetization    =     4.17 Bohr mag/cell

     iteration #  4     ecut=   100.00 Ry     beta= 0.70
     Davidson diagonalization with overlap
     ethr =  6.63E-04,  avg # of iterations =  1.0

     total cpu time spent up to now is      804.9 secs

     total energy              =    -811.11090856 Ry
     Harris-Foulkes estimate   =    -811.20537089 Ry
     estimated scf accuracy    <       1.26872102 Ry

     total magnetization       =     4.00 Bohr mag/cell
     absolute magnetization    =     4.16 Bohr mag/cell

     iteration #  5     ecut=   100.00 Ry     beta= 0.70
     Davidson diagonalization with overlap
     ethr =  6.34E-04,  avg # of iterations =  1.0

     total cpu time spent up to now is      818.1 secs

     total energy              =    -811.10849613 Ry
     Harris-Foulkes estimate   =    -811.13684307 Ry
     estimated scf accuracy    <       0.29741301 Ry

     total magnetization       =     4.00 Bohr mag/cell
     absolute magnetization    =     4.15 Bohr mag/cell

     iteration #  6     ecut=   100.00 Ry     beta= 0.70
     Davidson diagonalization with overlap
     ethr =  1.49E-04,  avg # of iterations =  1.0

     total cpu time spent up to now is      831.1 secs

     total energy              =    -811.11171105 Ry
     Harris-Foulkes estimate   =    -811.11767163 Ry
     estimated scf accuracy    <       0.10272068 Ry

     total magnetization       =     4.00 Bohr mag/cell
     absolute magnetization    =     4.14 Bohr mag/cell

     iteration #  7     ecut=   100.00 Ry     beta= 0.70
     Davidson diagonalization with overlap
     ethr =  5.14E-05,  avg # of iterations =  3.5

     total cpu time spent up to now is      844.8 secs

     total energy              =    -811.11118060 Ry
     Harris-Foulkes estimate   =    -811.11545027 Ry
     estimated scf accuracy    <       0.07057027 Ry

     total magnetization       =     4.00 Bohr mag/cell
     absolute magnetization    =     4.13 Bohr mag/cell

     iteration #  8     ecut=   100.00 Ry     beta= 0.70
     Davidson diagonalization with overlap
     ethr =  3.53E-05,  avg # of iterations =  2.0

     total cpu time spent up to now is      857.7 secs

     total energy              =    -811.11233364 Ry
     Harris-Foulkes estimate   =    -811.11324602 Ry
     estimated scf accuracy    <       0.01368125 Ry

     total magnetization       =     4.00 Bohr mag/cell
     absolute magnetization    =     4.12 Bohr mag/cell

     iteration #  9     ecut=   100.00 Ry     beta= 0.70
     Davidson diagonalization with overlap
     ethr =  6.84E-06,  avg # of iterations =  3.5

     total cpu time spent up to now is      871.7 secs

     total energy              =    -811.11255608 Ry
     Harris-Foulkes estimate   =    -811.11287785 Ry
     estimated scf accuracy    <       0.00407262 Ry

     total magnetization       =     4.00 Bohr mag/cell
     absolute magnetization    =     4.10 Bohr mag/cell

     iteration # 10     ecut=   100.00 Ry     beta= 0.70
     Davidson diagonalization with overlap
     ethr =  2.04E-06,  avg # of iterations =  3.0

     total cpu time spent up to now is      884.7 secs

     total energy              =    -811.11264523 Ry
     Harris-Foulkes estimate   =    -811.11276392 Ry
     estimated scf accuracy    <       0.00084367 Ry

     total magnetization       =     4.00 Bohr mag/cell
     absolute magnetization    =     4.10 Bohr mag/cell

     iteration # 11     ecut=   100.00 Ry     beta= 0.70
     Davidson diagonalization with overlap
     ethr =  4.22E-07,  avg # of iterations =  3.0

     total cpu time spent up to now is      899.2 secs

     total energy              =    -811.11275745 Ry
     Harris-Foulkes estimate   =    -811.11275686 Ry
     estimated scf accuracy    <       0.00002596 Ry

     total magnetization       =     4.00 Bohr mag/cell
     absolute magnetization    =     4.09 Bohr mag/cell

     iteration # 12     ecut=   100.00 Ry     beta= 0.70
     Davidson diagonalization with overlap
     ethr =  1.30E-08,  avg # of iterations =  4.0

     total cpu time spent up to now is      919.7 secs

     total energy              =    -811.11276856 Ry
     Harris-Foulkes estimate   =    -811.11276791 Ry
     estimated scf accuracy    <       0.00001432 Ry

     total magnetization       =     4.00 Bohr mag/cell
     absolute magnetization    =     4.08 Bohr mag/cell

     iteration # 13     ecut=   100.00 Ry     beta= 0.70
     Davidson diagonalization with overlap
     ethr =  7.16E-09,  avg # of iterations =  1.5

     total cpu time spent up to now is      932.7 secs

     total energy              =    -811.11276889 Ry
     Harris-Foulkes estimate   =    -811.11276933 Ry
     estimated scf accuracy    <       0.00000722 Ry

     total magnetization       =     4.00 Bohr mag/cell
     absolute magnetization    =     4.08 Bohr mag/cell

     iteration # 14     ecut=   100.00 Ry     beta= 0.70
     Davidson diagonalization with overlap
     ethr =  3.61E-09,  avg # of iterations =  1.5

     total cpu time spent up to now is      945.9 secs

     total energy              =    -811.11276908 Ry
     Harris-Foulkes estimate   =    -811.11276935 Ry
     estimated scf accuracy    <       0.00000323 Ry

     total magnetization       =     4.00 Bohr mag/cell
     absolute magnetization    =     4.08 Bohr mag/cell

     iteration # 15     ecut=   100.00 Ry     beta= 0.70
     Davidson diagonalization with overlap
     ethr =  1.61E-09,  avg # of iterations =  1.5

     total cpu time spent up to now is      959.2 secs

     total energy              =    -811.11276909 Ry
     Harris-Foulkes estimate   =    -811.11276921 Ry
     estimated scf accuracy    <       0.00000144 Ry

     total magnetization       =     4.00 Bohr mag/cell
     absolute magnetization    =     4.08 Bohr mag/cell

     iteration # 16     ecut=   100.00 Ry     beta= 0.70
     Davidson diagonalization with overlap
     ethr =  7.20E-10,  avg # of iterations =  2.5
 
     Magnetic moment per site:
     atom:    1    charge:    0.5972    magn:    0.0038    constr:    0.0000
     atom:    2    charge:    0.5962    magn:    0.0038    constr:    0.0000
     atom:    3    charge:    0.5972    magn:    0.0038    constr:    0.0000
     atom:    4    charge:    0.5969    magn:    0.0038    constr:    0.0000
     atom:    5    charge:    0.5908    magn:    0.0030    constr:    0.0000
     atom:    6    charge:    0.5911    magn:    0.0030    constr:    0.0000
     atom:    7    charge:    0.5923    magn:    0.0033    constr:    0.0000
     atom:    8    charge:    0.5911    magn:    0.0033    constr:    0.0000
     atom:    9    charge:    0.5957    magn:    0.0036    constr:    0.0000
     atom:   10    charge:    0.5965    magn:    0.0037    constr:    0.0000
     atom:   11    charge:    0.5608    magn:   -0.0017    constr:    0.0000
     atom:   12    charge:    0.5607    magn:   -0.0016    constr:    0.0000
     atom:   13    charge:    0.5972    magn:    0.0038    constr:    0.0000
     atom:   14    charge:    0.5962    magn:    0.0038    constr:    0.0000
     atom:   15    charge:    0.5972    magn:    0.0038    constr:    0.0000
     atom:   16    charge:    0.5969    magn:    0.0038    constr:    0.0000
     atom:   17    charge:    0.5908    magn:    0.0030    constr:    0.0000
     atom:   18    charge:    0.5911    magn:    0.0030    constr:    0.0000
     atom:   19    charge:    0.5923    magn:    0.0033    constr:    0.0000
     atom:   20    charge:    0.5911    magn:    0.0033    constr:    0.0000
     atom:   21    charge:    0.5957    magn:    0.0036    constr:    0.0000
     atom:   22    charge:    0.5965    magn:    0.0037    constr:    0.0000
     atom:   23    charge:    0.5608    magn:   -0.0017    constr:    0.0000
     atom:   24    charge:    0.5607    magn:   -0.0016    constr:    0.0000
     atom:   25    charge:    0.4112    magn:   -0.0003    constr:    0.0000
     atom:   26    charge:    0.4086    magn:   -0.0003    constr:    0.0000
     atom:   27    charge:    0.4110    magn:   -0.0003    constr:    0.0000
     atom:   28    charge:    0.4134    magn:   -0.0002    constr:    0.0000
     atom:   29    charge:    0.4147    magn:   -0.0003    constr:    0.0000
     atom:   30    charge:    0.4149    magn:    0.0002    constr:    0.0000
     atom:   31    charge:    0.4133    magn:    0.0001    constr:    0.0000
     atom:   32    charge:    0.4069    magn:   -0.0003    constr:    0.0000
     atom:   33    charge:    0.4112    magn:   -0.0003    constr:    0.0000
     atom:   34    charge:    0.4086    magn:   -0.0003    constr:    0.0000
     atom:   35    charge:    0.4110    magn:   -0.0003    constr:    0.0000
     atom:   36    charge:    0.4134    magn:   -0.0002    constr:    0.0000
     atom:   37    charge:    0.4147    magn:   -0.0003    constr:    0.0000
     atom:   38    charge:    0.4149    magn:    0.0002    constr:    0.0000
     atom:   39    charge:    0.4133    magn:    0.0001    constr:    0.0000
     atom:   40    charge:    0.4069    magn:   -0.0003    constr:    0.0000
     atom:   41    charge:    2.4602    magn:    0.0143    constr:    0.0000
     atom:   42    charge:    2.4565    magn:    0.0138    constr:    0.0000
     atom:   43    charge:    2.4602    magn:    0.0143    constr:    0.0000
     atom:   44    charge:    2.4565    magn:    0.0138    constr:    0.0000
     atom:   45    charge:    7.5379    magn:    1.2593    constr:    0.0000
     atom:   46    charge:    7.5382    magn:    1.2591    constr:    0.0000
     atom:   47    charge:    3.1420    magn:    0.0524    constr:    0.0000
     atom:   48    charge:    3.1405    magn:    0.0535    constr:    0.0000
     atom:   49    charge:    3.1393    magn:    0.0559    constr:    0.0000
     atom:   50    charge:    3.1390    magn:    0.0573    constr:    0.0000
     atom:   51    charge:    3.1420    magn:    0.0524    constr:    0.0000
     atom:   52    charge:    3.1405    magn:    0.0535    constr:    0.0000
     atom:   53    charge:    3.1394    magn:    0.0559    constr:    0.0000
     atom:   54    charge:    3.1391    magn:    0.0573    constr:    0.0000

     total cpu time spent up to now is      972.4 secs

     End of self-consistent calculation

 ------ SPIN UP ------------


          k = 0.0000 0.0000 0.0000 ( 45819 PWs)   bands (ev):

   -22.4443 -22.4408 -22.3480 -22.3455 -19.8260 -19.8169 -19.8029 -19.8027
   -19.8022 -19.7952 -19.7306 -19.7221 -15.9608 -15.8972 -15.8939 -15.8698
   -14.4930 -14.4606 -14.4582 -14.4228 -12.0622 -11.9556 -11.9382 -11.9215
   -11.1505 -11.1299 -11.1031 -11.0453  -9.6904  -9.4933  -9.4545  -9.3861
    -8.4678  -8.0684  -7.9978  -7.9326  -7.8656  -7.8459  -7.7772  -7.7677
    -7.0570  -6.9366  -6.8944  -6.7889  -6.7506  -6.6204  -6.5020  -6.4842
    -6.4114  -6.4068  -6.2802  -6.2127  -6.1718  -6.1168  -6.0559  -6.0329
    -5.9728  -5.8403  -5.6897  -5.5705  -5.4818  -5.3655  -5.3601  -5.3435
    -4.7992  -4.7229  -4.3295  -4.3277  -3.9125  -3.7572  -3.7309  -3.7059
    -3.6740  -3.6579  -3.6054  -3.5252  -3.4727  -3.4429  -3.4035  -3.3795
    -3.2709  -2.9608  -2.8550  -2.7460  -2.7210  -2.7065  -2.6853  -2.6290
    -2.5414  -2.5132  -2.4725  -2.4628  -2.3884  -2.3708  -2.3364  -2.2346
    -2.1923  -2.1003  -0.8341  -0.7955  -0.6014  -0.5923   1.7595   1.7717
     1.8040   1.8627   3.2438   3.3289   3.3718   3.5288   3.6953   4.0460
     4.2781   4.3419   4.4832   4.5353   4.7712   5.1193   5.4184   5.5092
     5.5599   5.6739

 ------ SPIN DOWN ----------


          k = 0.0000 0.0000 0.0000 ( 45819 PWs)   bands (ev):

   -22.3393 -22.3356 -22.2437 -22.2410 -19.7860 -19.7706 -19.6988 -19.6928
   -19.6744 -19.6740 -19.6660 -19.6629 -15.9218 -15.8588 -15.8553 -15.8304
   -14.4567 -14.4241 -14.4216 -14.3862 -12.0169 -11.9138 -11.8938 -11.8804
   -11.1200 -11.0996 -11.0735 -11.0162  -9.6580  -9.4620  -9.4245  -9.3545
    -8.4042  -7.9979  -7.9526  -7.8799  -7.8030  -7.8021  -7.7307  -7.7048
    -6.9357  -6.8439  -6.7537  -6.6819  -6.6592  -6.5018  -6.4027  -6.3799
    -6.3139  -6.2700  -6.2009  -6.1382  -6.1025  -6.0866  -6.0146  -6.0076
    -5.9124  -5.7606  -5.6527  -5.5457  -5.4252  -5.3463  -5.3269  -5.2803
    -4.6585  -4.1422  -3.8752  -3.8499  -3.6915  -3.6412  -3.6371  -3.5994
    -3.5562  -3.3358  -3.3116  -3.3031  -2.9832  -2.9826  -2.8935  -2.8830
    -2.8084  -2.6794  -2.5898  -2.5779  -2.5456  -2.4990  -2.3530  -2.2945
    -2.2810  -2.1807  -2.1516  -2.0161  -1.8322  -1.5807  -1.5754  -1.5581
    -1.5430  -1.4299   0.0082   0.0165   0.1792   0.2061   1.8588   1.8607
     1.9206   1.9517   3.3019   3.3702   3.4426   3.6015   3.7706   4.0871
     4.3232   4.3965   4.5525   4.5877   4.8179   5.1604   5.4672   5.5357
     5.6076   5.7276

     the spin up/dw Fermi energies are    -0.1757   -0.4624 ev

!    total energy              =    -811.11276915 Ry
     Harris-Foulkes estimate   =    -811.11276935 Ry
     estimated scf accuracy    <       0.00000059 Ry

     The total energy is the sum of the following terms:

     one-electron contribution =   -1219.21930444 Ry
     hartree contribution      =     678.92918901 Ry
     xc contribution           =    -247.19751833 Ry
     ewald contribution        =     -24.85384196 Ry
     Dispersion Correction     =      -0.19675695 Ry
     smearing contrib. (-TS)   =       1.42546353 Ry

     total magnetization       =     4.00 Bohr mag/cell
     absolute magnetization    =     4.08 Bohr mag/cell

     convergence has been achieved in  16 iterations

     Forces acting on atoms (cartesian axes, Ry/au):

     atom    1 type  1   force =    -0.00970351    0.07498696   -0.09916587
     atom    2 type  1   force =     0.00655252    0.03095499   -0.01711979
     atom    3 type  1   force =     0.10507506    0.07134909   -0.02549439
     atom    4 type  1   force =     0.01430287   -0.08115453   -0.09286637
     atom    5 type  1   force =     0.09997111    0.08236143    0.01996082
     atom    6 type  1   force =    -0.10663569   -0.07982503    0.02375360
     atom    7 type  1   force =     0.01176487   -0.07900011    0.09911836
     atom    8 type  1   force =    -0.01272984    0.08944562    0.09611210
     atom    9 type  1   force =    -0.09700171   -0.08098417   -0.02099888
     atom   10 type  1   force =    -0.00967735   -0.02981312   -0.02341975
     atom   11 type  1   force =     0.00424746   -0.01449249    0.00496128
     atom   12 type  1   force =    -0.00309754    0.01529569    0.00673378
     atom   13 type  1   force =    -0.00970351   -0.07498696   -0.09916587
     atom   14 type  1   force =     0.00655252   -0.03095499   -0.01711979
     atom   15 type  1   force =     0.10507506   -0.07134909   -0.02549439
     atom   16 type  1   force =     0.01430287    0.08115453   -0.09286637
     atom   17 type  1   force =     0.09997111   -0.08236143    0.01996082
     atom   18 type  1   force =    -0.10663569    0.07982503    0.02375360
     atom   19 type  1   force =     0.01176487    0.07900011    0.09911836
     atom   20 type  1   force =    -0.01272984   -0.08944562    0.09611210
     atom   21 type  1   force =    -0.09700171    0.08098417   -0.02099888
     atom   22 type  1   force =    -0.00967735    0.02981312   -0.02341975
     atom   23 type  1   force =     0.00424746    0.01449249    0.00496128
     atom   24 type  1   force =    -0.00309754   -0.01529569    0.00673378
     atom   25 type  2   force =    -0.00985145   -0.00061237   -0.00263696
     atom   26 type  2   force =     0.00019313   -0.00417809    0.00802409
     atom   27 type  2   force =     0.00984375    0.00229603   -0.00122859
[...]
     Davidson diagonalization with overlap
     ethr =  8.70E-06,  avg # of iterations =  1.0

     total cpu time spent up to now is    15339.9 secs

     total energy              =    -811.24643824 Ry
     Harris-Foulkes estimate   =    -811.24644665 Ry
     estimated scf accuracy    <       0.00772786 Ry

     total magnetization       =     4.00 Bohr mag/cell
     absolute magnetization    =     4.15 Bohr mag/cell

     iteration # 11     ecut=   100.00 Ry     beta= 0.70
     Davidson diagonalization with overlap
     ethr =  3.86E-06,  avg # of iterations =  2.5

     total cpu time spent up to now is    15353.9 secs

     total energy              =    -811.24735442 Ry
     Harris-Foulkes estimate   =    -811.24714820 Ry
     estimated scf accuracy    <       0.00234675 Ry

     total magnetization       =     4.00 Bohr mag/cell
     absolute magnetization    =     4.15 Bohr mag/cell

     iteration # 12     ecut=   100.00 Ry     beta= 0.70
     Davidson diagonalization with overlap
     ethr =  1.17E-06,  avg # of iterations =  3.0

     total cpu time spent up to now is    15368.2 secs

     total energy              =    -811.24758272 Ry
     Harris-Foulkes estimate   =    -811.24747827 Ry
     estimated scf accuracy    <       0.00014520 Ry

     total magnetization       =     4.00 Bohr mag/cell
     absolute magnetization    =     4.15 Bohr mag/cell

     iteration # 13     ecut=   100.00 Ry     beta= 0.70
     Davidson diagonalization with overlap
     ethr =  7.26E-08,  avg # of iterations =  3.5

     total cpu time spent up to now is    15383.9 secs

     total energy              =    -811.24761156 Ry
     Harris-Foulkes estimate   =    -811.24759814 Ry
     estimated scf accuracy    <       0.00003352 Ry

     total magnetization       =     4.00 Bohr mag/cell
     absolute magnetization    =     4.15 Bohr mag/cell

     iteration # 14     ecut=   100.00 Ry     beta= 0.70
     Davidson diagonalization with overlap
     ethr =  1.68E-08,  avg # of iterations =  2.5

     total cpu time spent up to now is    15398.0 secs

     total energy              =    -811.24762076 Ry
     Harris-Foulkes estimate   =    -811.24761429 Ry
     estimated scf accuracy    <       0.00001305 Ry

     total magnetization       =     4.00 Bohr mag/cell
     absolute magnetization    =     4.15 Bohr mag/cell

     iteration # 15     ecut=   100.00 Ry     beta= 0.70
     Davidson diagonalization with overlap
     ethr =  6.53E-09,  avg # of iterations =  3.5

     total cpu time spent up to now is    15412.5 secs

     total energy              =    -811.24762355 Ry
     Harris-Foulkes estimate   =    -811.24762208 Ry
     estimated scf accuracy    <       0.00000264 Ry

     total magnetization       =     4.00 Bohr mag/cell
     absolute magnetization    =     4.15 Bohr mag/cell

     iteration # 16     ecut=   100.00 Ry     beta= 0.70
     Davidson diagonalization with overlap
     ethr =  1.32E-09,  avg # of iterations =  3.0

     total cpu time spent up to now is    15426.7 secs

     total energy              =    -811.24762456 Ry
     Harris-Foulkes estimate   =    -811.24762377 Ry
     estimated scf accuracy    <       0.00000085 Ry

     total magnetization       =     4.00 Bohr mag/cell
     absolute magnetization    =     4.15 Bohr mag/cell

     iteration # 17     ecut=   100.00 Ry     beta= 0.70
     Davidson diagonalization with overlap
     ethr =  4.26E-10,  avg # of iterations =  3.0

     total cpu time spent up to now is    15442.3 secs

     total energy              =    -811.24762472 Ry
     Harris-Foulkes estimate   =    -811.24762465 Ry
     estimated scf accuracy    <       0.00000016 Ry

     total magnetization       =     4.00 Bohr mag/cell
     absolute magnetization    =     4.15 Bohr mag/cell

     iteration # 18     ecut=   100.00 Ry     beta= 0.70
     Davidson diagonalization with overlap
     ethr =  7.93E-11,  avg # of iterations =  3.0

     total cpu time spent up to now is    15456.8 secs

     total energy              =    -811.24762475 Ry
     Harris-Foulkes estimate   =    -811.24762473 Ry
     estimated scf accuracy    <       0.00000008 Ry

     total magnetization       =     4.00 Bohr mag/cell
     absolute magnetization    =     4.15 Bohr mag/cell

     iteration # 19     ecut=   100.00 Ry     beta= 0.70
     Davidson diagonalization with overlap
     ethr =  4.20E-11,  avg # of iterations =  3.0

     total cpu time spent up to now is    15470.9 secs

     total energy              =    -811.24762475 Ry
     Harris-Foulkes estimate   =    -811.24762476 Ry
     estimated scf accuracy    <       0.00000011 Ry

     total magnetization       =     4.00 Bohr mag/cell
     absolute magnetization    =     4.15 Bohr mag/cell

     iteration # 20     ecut=   100.00 Ry     beta= 0.70
     Davidson diagonalization with overlap
     ethr =  4.20E-11,  avg # of iterations =  2.5

     total cpu time spent up to now is    15484.4 secs

     total energy              =    -811.24762476 Ry
     Harris-Foulkes estimate   =    -811.24762476 Ry
     estimated scf accuracy    <       0.00000002 Ry

     total magnetization       =     4.00 Bohr mag/cell
     absolute magnetization    =     4.15 Bohr mag/cell

     iteration # 21     ecut=   100.00 Ry     beta= 0.70
     Davidson diagonalization with overlap
     ethr =  7.62E-12,  avg # of iterations =  3.0
 
     Magnetic moment per site:
     atom:    1    charge:    0.5735    magn:    0.0055    constr:    0.0000
     atom:    2    charge:    0.5753    magn:    0.0043    constr:    0.0000
     atom:    3    charge:    0.5738    magn:    0.0055    constr:    0.0000
     atom:    4    charge:    0.5734    magn:    0.0055    constr:    0.0000
     atom:    5    charge:    0.5674    magn:    0.0048    constr:    0.0000
     atom:    6    charge:    0.5677    magn:    0.0048    constr:    0.0000
     atom:    7    charge:    0.5676    magn:    0.0047    constr:    0.0000
     atom:    8    charge:    0.5676    magn:    0.0047    constr:    0.0000
     atom:    9    charge:    0.5737    magn:    0.0054    constr:    0.0000
     atom:   10    charge:    0.5757    magn:    0.0043    constr:    0.0000
     atom:   11    charge:    0.5557    magn:   -0.0014    constr:    0.0000
     atom:   12    charge:    0.5558    magn:   -0.0014    constr:    0.0000
     atom:   13    charge:    0.5735    magn:    0.0055    constr:    0.0000
     atom:   14    charge:    0.5753    magn:    0.0043    constr:    0.0000
     atom:   15    charge:    0.5738    magn:    0.0055    constr:    0.0000
     atom:   16    charge:    0.5734    magn:    0.0055    constr:    0.0000
     atom:   17    charge:    0.5674    magn:    0.0048    constr:    0.0000
     atom:   18    charge:    0.5677    magn:    0.0048    constr:    0.0000
     atom:   19    charge:    0.5676    magn:    0.0047    constr:    0.0000
     atom:   20    charge:    0.5676    magn:    0.0047    constr:    0.0000
     atom:   21    charge:    0.5737    magn:    0.0054    constr:    0.0000
     atom:   22    charge:    0.5757    magn:    0.0043    constr:    0.0000
     atom:   23    charge:    0.5557    magn:   -0.0014    constr:    0.0000
     atom:   24    charge:    0.5558    magn:   -0.0014    constr:    0.0000
     atom:   25    charge:    0.3687    magn:   -0.0012    constr:    0.0000
     atom:   26    charge:    0.3685    magn:   -0.0015    constr:    0.0000
     atom:   27    charge:    0.3682    magn:   -0.0012    constr:    0.0000
     atom:   28    charge:    0.3699    magn:   -0.0011    constr:    0.0000
     atom:   29    charge:    0.3702    magn:   -0.0012    constr:    0.0000
     atom:   30    charge:    0.3690    magn:   -0.0008    constr:    0.0000
     atom:   31    charge:    0.3683    magn:   -0.0008    constr:    0.0000
     atom:   32    charge:    0.3685    magn:   -0.0015    constr:    0.0000
     atom:   33    charge:    0.3687    magn:   -0.0012    constr:    0.0000
     atom:   34    charge:    0.3685    magn:   -0.0015    constr:    0.0000
     atom:   35    charge:    0.3682    magn:   -0.0012    constr:    0.0000
     atom:   36    charge:    0.3699    magn:   -0.0011    constr:    0.0000
     atom:   37    charge:    0.3702    magn:   -0.0012    constr:    0.0000
     atom:   38    charge:    0.3690    magn:   -0.0008    constr:    0.0000
     atom:   39    charge:    0.3683    magn:   -0.0008    constr:    0.0000
     atom:   40    charge:    0.3685    magn:   -0.0015    constr:    0.0000
     atom:   41    charge:    2.4114    magn:    0.0190    constr:    0.0000
     atom:   42    charge:    2.4092    magn:    0.0191    constr:    0.0000
     atom:   43    charge:    2.4114    magn:    0.0190    constr:    0.0000
     atom:   44    charge:    2.4092    magn:    0.0191    constr:    0.0000
     atom:   45    charge:    7.3565    magn:    1.0316    constr:    0.0000
     atom:   46    charge:    7.3566    magn:    1.0316    constr:    0.0000
     atom:   47    charge:    3.1181    magn:    0.0687    constr:    0.0000
     atom:   48    charge:    3.1157    magn:    0.0692    constr:    0.0000
     atom:   49    charge:    3.1170    magn:    0.0700    constr:    0.0000
     atom:   50    charge:    3.1179    magn:    0.0708    constr:    0.0000
     atom:   51    charge:    3.1181    magn:    0.0687    constr:    0.0000
     atom:   52    charge:    3.1158    magn:    0.0692    constr:    0.0000
     atom:   53    charge:    3.1170    magn:    0.0700    constr:    0.0000
     atom:   54    charge:    3.1179    magn:    0.0708    constr:    0.0000

     total cpu time spent up to now is    15497.7 secs

     End of self-consistent calculation

 ------ SPIN UP ------------


          k = 0.0000 0.0000 0.0000 ( 46750 PWs)   bands (ev):

   -22.7590 -22.7564 -22.5883 -22.5870 -19.7504 -19.7501 -19.7402 -19.7399
   -19.4848 -19.4643 -19.3156 -19.3081 -15.6704 -15.5705 -15.5666 -15.5413
   -14.3860 -14.3674 -14.3481 -14.3154 -12.0087 -11.8091 -11.7845 -11.7843
   -11.2336 -11.2225 -11.1954 -11.1326  -9.5729  -9.2573  -9.2489  -9.2098
    -8.5054  -7.9786  -7.9278  -7.8288  -7.7911  -7.7612  -7.7153  -7.5910
    -7.0300  -6.9143  -6.8901  -6.8484  -6.7914  -6.7044  -6.6360  -6.6355
    -6.6170  -6.5483  -6.3837  -6.3147  -6.2975  -6.2751  -6.1917  -6.0824
    -6.0035  -5.7645  -5.6124  -5.5798  -5.5171  -5.4273  -5.4056  -5.1236
    -4.8826  -4.7764  -4.4578  -4.3504  -4.2470  -4.1770  -4.1639  -3.9621
    -3.9381  -3.7590  -3.6948  -3.6306  -3.4722  -3.3444  -3.3228  -3.3147
    -3.2153  -2.8237  -2.7302  -2.6415  -2.6385  -2.6169  -2.5020  -2.4638
    -2.4592  -2.3644  -2.3118  -2.2548  -2.2474  -2.1976  -2.1375  -2.1024
    -2.0380  -1.9285  -0.2174  -0.2122   0.1694   0.2253   1.6491   1.7342
     1.7916   1.8535   2.9097   2.9343   3.1110   3.1540   3.4535   4.2189
     4.3164   4.3286   4.4769   4.5167   5.0856   5.2978   5.4675   5.6110
     5.6367   5.7891

 ------ SPIN DOWN ----------


          k = 0.0000 0.0000 0.0000 ( 46750 PWs)   bands (ev):

   -22.6242 -22.6214 -22.4540 -22.4525 -19.5766 -19.5763 -19.5673 -19.5669
   -19.4369 -19.4161 -19.2681 -19.2601 -15.6188 -15.5191 -15.5156 -15.4889
   -14.3349 -14.3162 -14.2971 -14.2640 -11.9495 -11.7538 -11.7299 -11.7253
   -11.1940 -11.1830 -11.1556 -11.0942  -9.5372  -9.2264  -9.2142  -9.1746
    -8.4232  -7.8804  -7.8499  -7.7352  -7.7204  -7.6678  -7.6412  -7.5358
    -6.8828  -6.7620  -6.7362  -6.7184  -6.6588  -6.5960  -6.5427  -6.5239
    -6.4921  -6.4178  -6.3265  -6.2605  -6.2413  -6.2009  -6.0872  -5.9649
    -5.8953  -5.7264  -5.5661  -5.5558  -5.4873  -5.3398  -5.3251  -5.0130
    -4.7235  -4.3106  -4.2938  -4.2219  -4.1473  -4.1404  -3.8722  -3.7240
    -3.6038  -3.5007  -3.4188  -3.3378  -3.0239  -2.9504  -2.8928  -2.8730
    -2.8293  -2.5190  -2.4425  -2.4232  -2.4013  -2.3661  -2.2295  -2.1711
    -2.1544  -2.0949  -1.9109  -1.8410  -1.8227  -1.5289  -1.5106  -1.4941
    -1.4368  -1.3522   0.5228   0.5290   0.8172   0.8899   1.7685   1.8936
     1.9278   1.9767   3.0255   3.0494   3.2262   3.2709   3.4995   4.2945
     4.3951   4.4164   4.5447   4.6197   5.1541   5.3575   5.5153   5.6433
     5.6782   5.8348

     the spin up/dw Fermi energies are     0.1258   -0.3157 ev

!    total energy              =    -811.24762476 Ry
     Harris-Foulkes estimate   =    -811.24762476 Ry
     estimated scf accuracy    <          4.4E-09 Ry

     The total energy is the sum of the following terms:

     one-electron contribution =   -1270.45659621 Ry
     hartree contribution      =     704.57529682 Ry
     xc contribution           =    -246.73852121 Ry
     ewald contribution        =       0.18938155 Ry
     Dispersion Correction     =      -0.20560378 Ry
     smearing contrib. (-TS)   =       1.38841807 Ry

     total magnetization       =     4.00 Bohr mag/cell
     absolute magnetization    =     4.15 Bohr mag/cell

     convergence has been achieved in  21 iterations

     Forces acting on atoms (cartesian axes, Ry/au):

     atom    1 type  1   force =    -0.00010507   -0.00103746    0.00053166
     atom    2 type  1   force =    -0.00019887   -0.00010476    0.00085548
     atom    3 type  1   force =     0.00002840   -0.00047456    0.00061338
     atom    4 type  1   force =     0.00004848    0.00087615    0.00083914
     atom    5 type  1   force =    -0.00011362    0.00100855    0.00085314
     atom    6 type  1   force =    -0.00075330   -0.00103415    0.00031900
     atom    7 type  1   force =     0.00076292    0.00054677    0.00079557
     atom    8 type  1   force =    -0.00034235   -0.00053539    0.00026931
     atom    9 type  1   force =     0.00046322   -0.00020183    0.00066627
     atom   10 type  1   force =     0.00037948    0.00059892   -0.00003542
     atom   11 type  1   force =     0.00028727    0.00093295    0.00009396
     atom   12 type  1   force =    -0.00037015    0.00000311   -0.00040803
     atom   13 type  1   force =    -0.00010507    0.00103746    0.00053166
     atom   14 type  1   force =    -0.00019887    0.00010476    0.00085548
     atom   15 type  1   force =     0.00002840    0.00047456    0.00061338
     atom   16 type  1   force =     0.00004848   -0.00087615    0.00083914
     atom   17 type  1   force =    -0.00011362   -0.00100855    0.00085314
     atom   18 type  1   force =    -0.00075330    0.00103415    0.00031900
     atom   19 type  1   force =     0.00076292   -0.00054677    0.00079557
     atom   20 type  1   force =    -0.00034235    0.00053539    0.00026931
     atom   21 type  1   force =     0.00046322    0.00020183    0.00066627
     atom   22 type  1   force =     0.00037948   -0.00059892   -0.00003542
     atom   23 type  1   force =     0.00028727   -0.00093295    0.00009396
     atom   24 type  1   force =    -0.00037015   -0.00000311   -0.00040803
     atom   25 type  2   force =     0.00018111    0.00044530    0.00063148
     atom   26 type  2   force =    -0.00009015   -0.00022999    0.00070432
     atom   27 type  2   force =    -0.00052980    0.00040710    0.00077167
     atom   28 type  2   force =    -0.00219295   -0.00111352    0.00077672
     atom   29 type  2   force =     0.00091259    0.00067738   -0.00011882
     atom   30 type  2   force =     0.00001955    0.00041117   -0.00054362
     atom   31 type  2   force =     0.00177550   -0.00098284   -0.00047674
     atom   32 type  2   force =     0.00073925    0.00041868    0.00070631
     atom   33 type  2   force =     0.00018111   -0.00044530    0.00063148
     atom   34 type  2   force =    -0.00009015    0.00022999    0.00070432
     atom   35 type  2   force =    -0.00052980   -0.00040710    0.00077167
     atom   36 type  2   force =    -0.00219295    0.00111352    0.00077672
     atom   37 type  2   force =     0.00091259   -0.00067738   -0.00011882
     atom   38 type  2   force =     0.00001955   -0.00041117   -0.00054362
     atom   39 type  2   force =     0.00177550    0.00098284   -0.00047674
     atom   40 type  2   force =     0.00073925   -0.00041868    0.00070631
     atom   41 type  3   force =     0.00002152   -0.00366980   -0.00157410
     atom   42 type  3   force =    -0.00043870    0.00420978   -0.00086726
     atom   43 type  3   force =     0.00002152    0.00366980   -0.00157410
     atom   44 type  3   force =    -0.00043870   -0.00420978   -0.00086726
     atom   45 type  4   force =    -0.00185198    0.01282346   -0.01091350
     atom   46 type  4   force =    -0.00185198   -0.01282346   -0.01091350
     atom   47 type  5   force =    -0.00105974   -0.00145974    0.00173298
     atom   48 type  5   force =     0.00209785    0.00223861    0.00189954
     atom   49 type  5   force =     0.00305972   -0.00126525    0.00044233
     atom   50 type  5   force =    -0.00273019    0.00146305    0.00143523
     atom   51 type  5   force =    -0.00105974    0.00145974    0.00173298
     atom   52 type  5   force =     0.00209785   -0.00223861    0.00189954
     atom   53 type  5   force =     0.00305972    0.00126525    0.00044233
     atom   54 type  5   force =    -0.00273019   -0.00146305    0.00143523

     Total force =     0.028003     Total SCF correction =     0.000121


     Computing stress (Cartesian axis) and pressure

          total   stress  (Ry/bohr**3)                   (kbar)     P=       16.92
   0.00012647   0.00000000   0.00000433           18.60        0.00        0.64
   0.00000000   0.00011227   0.00000000            0.00       16.52        0.00
   0.00000433   0.00000000   0.00010639            0.64        0.00       15.65


     Writing output data file ./QE_relaxation_results/PBESOL_angle-vc-relax/NiPyC2_pbesol_angle-vc-relax.save/
 
     init_run     :     25.24s CPU     26.81s WALL (       2 calls)
     electrons    :  12653.33s CPU  13758.21s WALL (      70 calls)
     update_pot   :    593.73s CPU    632.23s WALL (      68 calls)
     forces       :    441.61s CPU    457.50s WALL (      70 calls)
     stress       :    600.06s CPU    618.72s WALL (      70 calls)

     Called by init_run:
     wfcinit      :     11.31s CPU     12.46s WALL (       2 calls)
     potinit      :      6.58s CPU      6.88s WALL (       2 calls)
     hinit0       :      5.90s CPU      5.97s WALL (       2 calls)

     Called by electrons:
     c_bands      :  10579.12s CPU  11386.05s WALL (     907 calls)
     sum_band     :    917.19s CPU   1047.04s WALL (     907 calls)
     v_of_rho     :    593.79s CPU    651.54s WALL (     977 calls)
     mix_rho      :    558.23s CPU    649.23s WALL (     907 calls)

     Called by c_bands:
     init_us_2    :     20.07s CPU     20.22s WALL (    1816 calls)
     regterg      :  10538.17s CPU  11291.99s WALL (     907 calls)

     Called by sum_band:

     Called by *egterg:
     h_psi        :   4953.71s CPU   5511.76s WALL (    3156 calls)
     g_psi        :      4.75s CPU      4.78s WALL (    2247 calls)
     rdiaghg      :    270.12s CPU    275.52s WALL (    3086 calls)

     Called by h_psi:
     h_psi:calbec :   1002.55s CPU   1038.16s WALL (    3156 calls)
     vloc_psi     :   2921.01s CPU   3440.57s WALL (    3156 calls)
     add_vuspsi   :   1011.70s CPU   1014.44s WALL (    3156 calls)

     General routines
     calbec       :   1157.05s CPU   1198.60s WALL (    3506 calls)
     fft          :    403.48s CPU    501.03s WALL (   16753 calls)
     ffts         :    374.93s CPU    441.39s WALL (   16051 calls)
     fftw         :   2970.48s CPU   3591.00s WALL (  313875 calls)
 
     Parallel routines
     fft_scatt_xy :    726.76s CPU    733.24s WALL (  346679 calls)
     fft_scatt_yz :    778.72s CPU   1535.06s WALL (  346679 calls)
 
     PWSCF        :      3h58m CPU      4h18m WALL

 
   This run was terminated on:  23:45:11   8Jun2020            

=------------------------------------------------------------------------------=
   JOB DONE.
=------------------------------------------------------------------------------=
QE finished Mon Jun 8 23:45:11 PDT 2020
