Created on Wed Jan 04 05:12:05 2017 

        2592 atoms
        3564 bonds
       11340 angles
        7128 dihedrals
        2430 impropers

           5 atom types
          27 bond types
         145 angle types
           5 dihedral types
           1 improper types
           0.000000  25.910999 xlo xhi
           0.000000  35.782381 ylo yhi
           0.000000  30.988509 zlo zhi
          -8.636972  -8.636847 -17.891151 xy xz yz

Masses

    1    40.078000000 # Ca6+2
    2     1.007940000 # H_
    3    12.010700000 # C_R
    4    12.010700000 # C_3
    5    15.999400000 # O_R

Bond Coeffs

    1      133.916156        2.410410  # Ca6+2 O_R
    2       34.840297        3.799254  # Ca6+2 Ca6+2
    3       34.840297        3.799258  # Ca6+2 Ca6+2
    4      133.916156        2.299234  # Ca6+2 O_R
    5      133.916156        2.495542  # Ca6+2 O_R
    6      133.916156        2.577797  # Ca6+2 O_R
    7      133.916156        2.458671  # Ca6+2 O_R
    8      133.916156        2.302583  # Ca6+2 O_R
    9      133.916156        2.369892  # Ca6+2 O_R
   10      133.916156        2.458658  # Ca6+2 O_R
   11      133.916156        2.302592  # Ca6+2 O_R
   12       34.840297        3.799244  # Ca6+2 Ca6+2
   13      133.916156        2.369893  # Ca6+2 O_R
   14      133.916156        2.410419  # Ca6+2 O_R
   15      133.916156        2.299223  # Ca6+2 O_R
   16      133.916156        2.495543  # Ca6+2 O_R
   17      133.916156        2.577791  # Ca6+2 O_R
   18      133.916156        2.299224  # Ca6+2 O_R
   19      133.916156        2.577792  # Ca6+2 O_R
   20      133.916156        2.495550  # Ca6+2 O_R
   21      133.916156        2.458661  # Ca6+2 O_R
   22      133.916156        2.302587  # Ca6+2 O_R
   23      133.916156        2.369898  # Ca6+2 O_R
   24      331.069389        1.109401  # H_ C_3
   25      646.680887        1.311940  # C_R O_R
   26      369.943935        1.486000  # C_R C_3
   27      349.795899        1.514000  # C_3 C_3

Angle Coeffs

    1                      fourier        4.020976        0.285671        0.223213        0.261890 # Ca6+2 Ca6+2 O_R
    2                      fourier        7.912907        0.516376        0.693767        0.338792 # O_R Ca6+2 O_R
    3                      fourier       28.732808        0.259008       -0.110249        0.253003 # O_R Ca6+2 O_R
    4                      fourier        6.289438        5.141239        7.003827        1.880413 # O_R Ca6+2 O_R
    5                      fourier       46.080932        0.377743       -0.446469        0.292581 # O_R Ca6+2 O_R
    6                      fourier       27.316927        1.440247       -2.026217        0.646749 # Ca6+2 Ca6+2 O_R
    7                      fourier       35.056003        0.264469       -0.140228        0.254823 # O_R Ca6+2 O_R
    8                      fourier       97.080033        0.736668       -1.034383        0.412223 # O_R Ca6+2 O_R
    9                      fourier        5.240204       29.157905       39.040671        9.885968 # O_R Ca6+2 O_R
   10                      fourier        8.366635        0.319642       -0.318557        0.273214 # Ca6+2 Ca6+2 O_R
   11                      fourier        2.038956        0.952306        1.346577        0.484102 # Ca6+2 Ca6+2 O_R
   12                      fourier       33.401426        0.270419       -0.167233        0.256806 # O_R Ca6+2 O_R
   13                      fourier        2.781225        0.567170        0.775715        0.355723 # Ca6+2 Ca6+2 O_R
   14                      fourier       10.511985        0.375202       -0.441366        0.291734 # Ca6+2 Ca6+2 O_R
   15                      fourier        2.844366        0.534195        0.722850        0.344732 # Ca6+2 Ca6+2 O_R
   16                      fourier       28.284733        1.714641       -2.401353        0.738214 # Ca6+2 Ca6+2 O_R
   17                      fourier       22.569765        1.436733       -2.021389        0.645578 # Ca6+2 Ca6+2 O_R
   18                      fourier       12.271491        0.308669        0.290420        0.269556 # O_R Ca6+2 O_R
   19                      fourier       23.697311        0.250029       -0.006252        0.250010 # O_R Ca6+2 O_R
   20                      fourier       24.759956        0.255824       -0.088460        0.251941 # O_R Ca6+2 O_R
   21                      fourier       12.554251        0.344505        0.376676        0.281502 # O_R Ca6+2 O_R
   22                      fourier        6.467366        6.673032        9.050242        2.391011 # O_R Ca6+2 O_R
   23                      fourier        6.073052        2.422279        3.359367        0.974093 # O_R Ca6+2 O_R
   24                      fourier       10.886696        0.452256        0.585148        0.317419 # O_R Ca6+2 O_R
   25                      fourier       41.366963        0.347424       -0.383109        0.282475 # O_R Ca6+2 O_R
   26                      fourier        3.225664        0.359561        0.409171        0.286520 # O_R Ca6+2 Ca6+2
   27                      fourier       28.462265        0.250050        0.008166        0.250017 # O_R Ca6+2 O_R
   28                      fourier       44.770148        0.308629       -0.290315        0.269543 # O_R Ca6+2 O_R
   29                      fourier       24.413861        1.310135       -1.847033        0.603378 # O_R Ca6+2 Ca6+2
   30                      fourier       19.380296        0.252261        0.054987        0.250754 # O_R Ca6+2 O_R
   31                      fourier        1.871681        1.945200        2.714604        0.815067 # Ca6+2 Ca6+2 O_R
   32                      fourier        1.129377        0.362638        0.415619        0.287546 # Ca6+2 Ca6+2 Ca6+2
   33                      fourier       19.563858        0.259746        0.114733        0.253249 # O_R Ca6+2 O_R
   34                      fourier        5.391105        0.253651       -0.069942        0.251217 # Ca6+2 Ca6+2 O_R
   35                      fourier        1.598893        1.748764        2.447808        0.749588 # Ca6+2 Ca6+2 O_R
   36                      fourier       24.838801        0.251277        0.041301        0.250426 # O_R Ca6+2 O_R
   37                      fourier       35.056140        0.264468       -0.140225        0.254823 # O_R Ca6+2 O_R
   38                      fourier       27.317507        1.440249       -2.026219        0.646750 # Ca6+2 Ca6+2 O_R
   39                      fourier       41.367329        0.347423       -0.383107        0.282474 # O_R Ca6+2 O_R
   40                      fourier        6.073165        2.422263        3.359345        0.974088 # O_R Ca6+2 O_R
   41                      fourier        2.844343        0.534199        0.722857        0.344733 # Ca6+2 Ca6+2 O_R
   42                      fourier        3.225682        0.359559        0.409167        0.286520 # Ca6+2 Ca6+2 O_R
   43                      fourier       97.080601        0.736660       -1.034373        0.412220 # O_R Ca6+2 O_R
   44                      fourier        5.240193       29.158090       39.040919        9.886030 # O_R Ca6+2 O_R
   45                      fourier       12.554354        0.344503        0.376672        0.281501 # O_R Ca6+2 O_R
   46                      fourier        2.038991        0.952293        1.346558        0.484098 # O_R Ca6+2 Ca6+2
   47                      fourier       46.081796        0.377747       -0.446477        0.292582 # O_R Ca6+2 O_R
   48                      fourier       10.512075        0.375202       -0.441365        0.291734 # O_R Ca6+2 Ca6+2
   49                      fourier       44.769907        0.308628       -0.290312        0.269543 # O_R Ca6+2 O_R
   50                      fourier        4.020957        0.285673        0.223220        0.261891 # Ca6+2 Ca6+2 O_R
   51                      fourier        6.467236        6.673109        9.050344        2.391036 # O_R Ca6+2 O_R
   52                      fourier        1.598908        1.748745        2.447782        0.749582 # Ca6+2 Ca6+2 O_R
   53                      fourier       23.697668        0.250029       -0.006255        0.250010 # O_R Ca6+2 O_R
   54                      fourier       19.563528        0.259747        0.114737        0.253249 # O_R Ca6+2 O_R
   55                      fourier        6.289604        5.141178        7.003746        1.880393 # O_R Ca6+2 O_R
   56                      fourier       28.732325        0.259007       -0.110246        0.253002 # O_R Ca6+2 O_R
   57                      fourier       10.886862        0.452254        0.585145        0.317418 # O_R Ca6+2 O_R
   58                      fourier       19.380251        0.252261        0.054987        0.250754 # O_R Ca6+2 O_R
   59                      fourier        1.129395        0.362635        0.415613        0.287545 # Ca6+2 Ca6+2 Ca6+2
   60                      fourier       24.838697        0.251277        0.041297        0.250426 # O_R Ca6+2 O_R
   61                      fourier        1.871696        1.945194        2.714595        0.815065 # Ca6+2 Ca6+2 O_R
   62                      fourier       22.569567        1.436711       -2.021360        0.645570 # Ca6+2 Ca6+2 O_R
   63                      fourier       12.271482        0.308668        0.290419        0.269556 # O_R Ca6+2 O_R
   64                      fourier       24.759848        0.255824       -0.088463        0.251941 # O_R Ca6+2 O_R
   65                      fourier        8.366727        0.319644       -0.318563        0.273215 # Ca6+2 Ca6+2 O_R
   66                      fourier       33.401534        0.270419       -0.167232        0.256806 # O_R Ca6+2 O_R
   67                      fourier        5.391124        0.253651       -0.069936        0.251217 # Ca6+2 Ca6+2 O_R
   68                      fourier       24.414246        1.310141       -1.847042        0.603380 # Ca6+2 Ca6+2 O_R
   69                      fourier        2.781287        0.567164        0.775705        0.355721 # Ca6+2 Ca6+2 O_R
   70                      fourier       28.284852        1.714627       -2.401333        0.738209 # O_R Ca6+2 Ca6+2
   71                      fourier        7.912899        0.516382        0.693776        0.338794 # O_R Ca6+2 O_R
   72                      fourier       28.462392        0.250050        0.008165        0.250017 # O_R Ca6+2 O_R
   73                      fourier       28.284130        1.714626       -2.401332        0.738209 # Ca6+2 Ca6+2 O_R
   74                      fourier        5.391023        0.253650       -0.069933        0.251217 # Ca6+2 Ca6+2 O_R
   75                      fourier        3.225652        0.359562        0.409172        0.286521 # Ca6+2 Ca6+2 O_R
   76                      fourier       44.770276        0.308627       -0.290311        0.269542 # O_R Ca6+2 O_R
   77                      fourier        2.844392        0.534193        0.722847        0.344731 # Ca6+2 Ca6+2 O_R
   78                      fourier       12.554410        0.344504        0.376674        0.281501 # O_R Ca6+2 O_R
   79                      fourier        2.039000        0.952297        1.346564        0.484099 # Ca6+2 Ca6+2 O_R
   80                      fourier        8.366732        0.319642       -0.318557        0.273214 # Ca6+2 Ca6+2 O_R
   81                      fourier       19.563867        0.259745        0.114729        0.253248 # O_R Ca6+2 O_R
   82                      fourier        1.129392        0.362635        0.415613        0.287545 # Ca6+2 Ca6+2 Ca6+2
   83                      fourier        7.912839        0.516382        0.693776        0.338794 # O_R Ca6+2 O_R
   84                      fourier       41.367221        0.347425       -0.383111        0.282475 # O_R Ca6+2 O_R
   85                      fourier       35.055990        0.264468       -0.140226        0.254823 # O_R Ca6+2 O_R
   86                      fourier       28.462588        0.250050        0.008164        0.250017 # O_R Ca6+2 O_R
   87                      fourier       46.081547        0.377747       -0.446477        0.292582 # O_R Ca6+2 O_R
   88                      fourier       33.401671        0.270419       -0.167234        0.256806 # O_R Ca6+2 O_R
   89                      fourier        2.781257        0.567162        0.775702        0.355721 # O_R Ca6+2 Ca6+2
   90                      fourier        5.240128       29.158203       39.041068        9.886068 # O_R Ca6+2 O_R
   91                      fourier       19.380127        0.252261        0.054993        0.250754 # O_R Ca6+2 O_R
   92                      fourier       28.732747        0.259009       -0.110255        0.253003 # O_R Ca6+2 O_R
   93                      fourier        6.467336        6.673051        9.050267        2.391017 # O_R Ca6+2 O_R
   94                      fourier        6.289584        5.141140        7.003695        1.880380 # O_R Ca6+2 O_R
   95                      fourier        4.021002        0.285672        0.223215        0.261891 # Ca6+2 Ca6+2 O_R
   96                      fourier       27.317114        1.440267       -2.026244        0.646756 # Ca6+2 Ca6+2 O_R
   97                      fourier       23.697419        0.250029       -0.006254        0.250010 # O_R Ca6+2 O_R
   98                      fourier       24.759536        0.255823       -0.088455        0.251941 # O_R Ca6+2 O_R
   99                      fourier       97.079319        0.736655       -1.034364        0.412218 # O_R Ca6+2 O_R
  100                      fourier       22.570092        1.436720       -2.021372        0.645573 # O_R Ca6+2 Ca6+2
  101                      fourier       12.271661        0.308666        0.290413        0.269555 # O_R Ca6+2 O_R
  102                      fourier       24.838294        0.251277        0.041306        0.250426 # O_R Ca6+2 O_R
  103                      fourier        1.598921        1.748738        2.447772        0.749579 # Ca6+2 Ca6+2 O_R
  104                      fourier       24.414419        1.310127       -1.847022        0.603376 # Ca6+2 Ca6+2 O_R
  105                      fourier       10.511992        0.375205       -0.441371        0.291735 # Ca6+2 Ca6+2 O_R
  106                      fourier       10.886731        0.452257        0.585150        0.317419 # O_R Ca6+2 O_R
  107                      fourier        1.871663        1.945222        2.714633        0.815074 # Ca6+2 Ca6+2 O_R
  108                      fourier        6.073158        2.422250        3.359327        0.974083 # O_R Ca6+2 O_R
  109              cosine/periodic      217.450257              -1               3 # O_R C_R O_R
  110              cosine/periodic      130.962624              -1               3 # O_R C_R C_3
  111                      fourier       73.868412        0.343737        0.374972        0.281246 # C_R C_3 H_
  112                      fourier       69.847816        0.343737        0.374972        0.281246 # C_3 C_3 H_
  113                      fourier       61.342703        0.343737        0.374972        0.281246 # H_ C_3 H_
  114                      fourier       97.888497        0.343737        0.374972        0.281246 # C_R C_3 C_3
  115                      fourier       93.452663        0.343737        0.374972        0.281246 # C_3 C_3 C_3
  116              cosine/periodic       10.357083              -1               3 # Ca6+2 O_R Ca6+2
  117              cosine/periodic       30.468557              -1               3 # Ca6+2 O_R C_R
  118              cosine/periodic       34.352438              -1               3 # Ca6+2 O_R C_R
  119              cosine/periodic       40.145369              -1               3 # C_R O_R Ca6+2
  120              cosine/periodic       36.405494              -1               3 # Ca6+2 O_R C_R
  121              cosine/periodic       27.200285              -1               3 # Ca6+2 O_R C_R
  122              cosine/periodic        9.915410              -1               3 # Ca6+2 O_R Ca6+2
  123              cosine/periodic       40.343210              -1               3 # Ca6+2 O_R C_R
  124              cosine/periodic       32.083935              -1               3 # Ca6+2 O_R C_R
  125              cosine/periodic       12.063781              -1               3 # Ca6+2 O_R Ca6+2
  126              cosine/periodic       34.352893              -1               3 # C_R O_R Ca6+2
  127              cosine/periodic       10.357166              -1               3 # Ca6+2 O_R Ca6+2
  128              cosine/periodic       30.468497              -1               3 # C_R O_R Ca6+2
  129              cosine/periodic       40.145631              -1               3 # C_R O_R Ca6+2
  130              cosine/periodic       27.200110              -1               3 # Ca6+2 O_R C_R
  131              cosine/periodic       36.405803              -1               3 # Ca6+2 O_R C_R
  132              cosine/periodic        9.915421              -1               3 # Ca6+2 O_R Ca6+2
  133              cosine/periodic       40.343878              -1               3 # C_R O_R Ca6+2
  134              cosine/periodic       12.063794              -1               3 # Ca6+2 O_R Ca6+2
  135              cosine/periodic       32.083480              -1               3 # C_R O_R Ca6+2
  136              cosine/periodic       34.352879              -1               3 # Ca6+2 O_R C_R
  137              cosine/periodic       10.357092              -1               3 # Ca6+2 O_R Ca6+2
  138              cosine/periodic       30.468216              -1               3 # Ca6+2 O_R C_R
  139              cosine/periodic       40.145087              -1               3 # Ca6+2 O_R C_R
  140              cosine/periodic       36.405772              -1               3 # C_R O_R Ca6+2
  141              cosine/periodic       27.200324              -1               3 # C_R O_R Ca6+2
  142              cosine/periodic        9.915473              -1               3 # Ca6+2 O_R Ca6+2
  143              cosine/periodic       12.063949              -1               3 # Ca6+2 O_R Ca6+2
  144              cosine/periodic       32.084066              -1               3 # C_R O_R Ca6+2
  145              cosine/periodic       40.343828              -1               3 # C_R O_R Ca6+2

Dihedral Coeffs

    1        1.497136              -1               2 # C_3 C_R O_R Ca6+2
    2        2.245703              -1               2 # O_R C_R O_R Ca6+2
    3        0.083333               1               3 # O_R C_R C_3 C_3
    4        0.066219               1               3 # H_ C_3 C_3 H_
    5        0.416667              -1               2 # C_3 C_3 C_R O_R

Improper Coeffs

    1        2.000000        1.000000       -1.000000        0.000000               0 # O_R C_R O_R C_3

Pair Coeffs

    1        0.238000        3.028165 # Ca6+2 Ca6+2
    2        0.044000        2.571134 # H_ H_
    3        0.105000        3.430851 # C_R C_R
    4        0.105000        3.430851 # C_3 C_3
    5        0.060000        3.118146 # O_R O_R

Atoms

       1      444        1     1.56193   -2.89402    1.35372    6.42154
       2      444        1     1.56152    2.86397   -1.07937    5.94638
       3      444        1     1.56050   -0.01501   -0.27432    8.29108
       4      444        1     1.56193    5.77308    4.61003    3.90796
       5      444        1     1.56152    0.01509    7.04311    4.38312
       6      444        1     1.56050    2.89407    6.23806    2.03842
       7      444        2     0.12513    5.19808   -3.17866    9.30482
       8      444        2     0.11754    4.12882   -3.12856    8.15411
       9      444        2     0.06636    7.10969    4.65290    0.01240
      10      444        2     0.05008    3.24007   -1.11759    9.14781
      11      444        2     0.12544    2.21832   -3.21802    9.78617
      12      444        2     0.12596    5.96616    2.80295    0.76438
      13      444        2     0.12448    2.31908    3.68381    8.42991
      14      444        2     0.11879    1.24982    2.66222    8.96188
      15      444        2     0.06707    1.35173    3.64802    6.29377
      16      444        2     0.05001    0.36106    2.51730    6.72347
      17      444        2     0.12493   -0.66068    4.12035    8.22332
      18      444        2     0.12605    0.20820    5.22424    7.51988
      19      444        2     0.12463   -0.55995   -0.50512    2.92428
      20      444        2     0.11832    7.00779    0.46637    3.54302
      21      444        2     0.06562    4.23072    9.59028    4.02334
      22      444        2     0.05166    6.11905   -1.39968    4.78772
      23      444        2     0.12587    5.09728   -0.90231    2.64952
      24      444        2     0.12661    3.08717    9.86401    2.04524
      25      444        2     0.12513   -2.31902    9.14240    1.02469
      26      444        2     0.11754   -1.24976    9.09231    2.17539
      27      444        2     0.06636   -4.23063    1.31084   10.31711
      28      444        2     0.05008   -0.36101    7.08133    1.18170
      29      444        2     0.12544    0.66074    9.18176    0.54333
      30      444        2     0.12596   -3.08710    3.16079    9.56512
      31      444        2     0.12449    0.55998    2.27994    1.89960
      32      444        2     0.11879    1.62924    3.30152    1.36763
      33      444        2     0.06707    1.52733    2.31572    4.03574
      34      444        2     0.05001    2.51800    3.44644    3.60603
      35      444        2     0.12493    3.53974    1.84339    2.10619
      36      444        2     0.12605    2.67086    0.73951    2.80962
      37      444        2     0.12463    3.43901    6.46887    7.40522
      38      444        2     0.11832   -4.12873    5.49738    6.78648
      39      444        2     0.06562   -1.35166   -3.62654    6.30616
      40      444        2     0.05166   -3.23999    7.36342    5.54178
      41      444        2     0.12587   -2.21822    6.86605    7.67999
      42      444        2     0.12661   -0.20811   -3.90027    8.28426
      43      444        3     0.82177    5.52542   -1.64002    7.99297
      44      444        4    -0.37738    4.64790   -2.58646    8.76872
      45      444        4     0.00786    3.69870   -1.78314    9.68494
      46      444        4    -0.36863    5.53517    3.34327    0.08470
      47      444        3     0.80934    4.51946    4.24677    0.71790
      48      444        3     0.82077    2.64642    1.77839    7.75332
      49      444        4    -0.37609    1.76890    2.92343    8.18510
      50      444        4     0.00552    0.81969    3.31525    7.03129
      51      444        4    -0.36672   -0.22279    4.36546    7.39179
      52      444        3     0.80892   -1.23851    4.46207    6.29273
      53      444        3     0.81996   -0.23260   -0.13835    4.91271
      54      444        4    -0.37557   -1.11012   -0.33695    3.70519
      55      444        4     0.00547    6.57767   -1.53208    3.94277
      56      444        4    -0.36896    2.65619   10.18248    2.85301
      57      444        3     0.80787    1.64048    9.18236    3.31887
      58      444        3     0.82177   -2.64636    7.60376    2.33653
      59      444        4    -0.37738   -1.76884    8.55020    1.56079
      60      444        4     0.00786   -0.81964    7.74689    0.64456
      61      444        4    -0.36863   -2.65611    2.62048   10.24480
      62      444        3     0.80934   -1.64040    1.71697    9.61160
      63      444        3     0.82077    0.23264    4.18535    2.57618
      64      444        4    -0.37609    1.11016    3.04031    2.14440
      65      444        4     0.00552    2.05937    2.64850    3.29821
      66      444        4    -0.36672    3.10185    1.59828    2.93771
      67      444        3     0.80892    4.11757    1.50167    4.03677
      68      444        3     0.81996    3.11166    6.10210    5.41679
      69      444        4    -0.37557    3.98918    6.30069    6.62431
      70      444        4     0.00547   -3.69861    7.49582    6.38673
      71      444        4    -0.36896    0.22287   -4.21873    7.47649
      72      444        3     0.80787    1.23858   -3.21862    7.01063
      73      444        5    -0.81218    4.97783   -0.92437    7.09430
      74      444        5    -0.71480   -1.92486   -1.55950    8.34314
      75      444        5    -0.76517    3.63071    4.80856    0.02376
      76      444        5    -0.77246    4.57820    4.44895    1.95021
      77      444        5    -0.81130    2.09883    0.64230    7.58289
      78      444        5    -0.71535    3.83314    2.04139    7.50852
      79      444        5    -0.76637   -2.12726    3.58004    6.15328
      80      444        5    -0.77202   -1.17978    5.42819    5.50149
      81      444        5    -0.81010   -0.78018    0.28209    5.98182
      82      444        5    -0.71609    0.95413   -0.48186    4.80735
      83      444        5    -0.76427    0.75174    9.50261    4.15246
      84      444        5    -0.77252    1.69921    8.01406    2.87780
      85      444        5    -0.81218   -2.09877    6.88811    3.23520
      86      444        5    -0.71480    4.80392    7.52325    1.98636
      87      444        5    -0.76517   -0.75165    1.15519   10.30575
      88      444        5    -0.77246   -1.69914    1.51480    8.37929
      89      444        5    -0.81130    0.78023    5.32144    2.74661
      90      444        5    -0.71535   -0.95408    3.92235    2.82099
      91      444        5    -0.76637    5.00632    2.38371    4.17622
      92      444        5    -0.77202    4.05884    0.53555    4.82801
      93      444        5    -0.81010    3.65924    5.68165    4.34769
      94      444        5    -0.71609    1.92493    6.44561    5.52215
      95      444        5    -0.76427    2.12732   -3.53887    6.17704
      96      444        5    -0.77252    1.17985   -2.05032    7.45170
      97      444        1     1.56193   -5.77297   -4.61000   16.75105
      98      444        1     1.56152   -0.01498   -7.04308   16.27589
      99      444        1     1.56050   -2.89396   -6.23804   18.62058
     100      444        1     1.56193    2.89413   -1.35369   14.23746
     101      444        1     1.56152   -2.86386    1.07939   14.71262
     102      444        1     1.56050    0.01512    0.27435   12.36793
     103      444        2     0.12513    2.31913   -9.14237   19.63432
     104      444        2     0.11754    1.24987   -9.09228   18.48361
     105      444        2     0.06636    4.23074   -1.31081   10.34190
     106      444        2     0.05008    0.36113   -7.08131   19.47731
     107      444        2     0.12544   -0.66063   -9.18173   20.11567
     108      444        2     0.12596    3.08721   -3.16076   11.09389
     109      444        2     0.12448   -0.55987   -2.27991   18.75941
     110      444        2     0.11879   -1.62913   -3.30150   19.29138
     111      444        2     0.06707   -1.52722   -2.31569   16.62327
     112      444        2     0.05001   -2.51788   -3.44642   17.05298
     113      444        2     0.12493   -3.53963   -1.84336   18.55282
     114      444        2     0.12605   -2.67075   -0.73948   17.84938
     115      444        2     0.12463   -3.43890   -6.46884   13.25379
     116      444        2     0.11832    4.12884   -5.49735   13.87252
     117      444        2     0.06562    1.35177    3.62656   14.35284
     118      444        2     0.05166    3.24010   -7.36340   15.11723
     119      444        2     0.12587    2.21833   -6.86603   12.97902
     120      444        2     0.12661    0.20822    3.90030   12.37474
     121      444        2     0.12513   -5.19797    3.17868   11.35419
     122      444        2     0.11754   -4.12870    3.12859   12.50490
     123      444        2     0.06636   -7.10958   -4.65288   20.64661
     124      444        2     0.05008   -3.23996    1.11762   11.51120
     125      444        2     0.12544   -2.21821    3.21804   10.87283
     126      444        2     0.12596   -5.96605   -2.80293   19.89462
     127      444        2     0.12449   -2.31897   -3.68378   12.22910
     128      444        2     0.11879   -1.24971   -2.66219   11.69713
     129      444        2     0.06707   -1.35162   -3.64800   14.36524
     130      444        2     0.05001   -0.36095   -2.51727   13.93553
     131      444        2     0.12493    0.66079   -4.12033   12.43569
     132      444        2     0.12605   -0.20809   -5.22421   13.13913
     133      444        2     0.12463    0.56006    0.50515   17.73472
     134      444        2     0.11832   -7.00768   -0.46634   17.11599
     135      444        2     0.06562   -4.23061   -9.59025   16.63566
     136      444        2     0.05166   -6.11894    1.39971   15.87128
     137      444        2     0.12587   -5.09717    0.90234   18.00949
     138      444        2     0.12661   -3.08706   -9.86399   18.61376
     139      444        3     0.82177    2.64647   -7.60373   18.32247
     140      444        4    -0.37738    1.76895   -8.55018   19.09822
     141      444        4     0.00786    0.81975   -7.74686   20.01445
     142      444        4    -0.36863    2.65622   -2.62045   10.41420
     143      444        3     0.80934    1.64051   -1.71694   11.04740
     144      444        3     0.82077   -0.23253   -4.18532   18.08283
     145      444        4    -0.37609   -1.11005   -3.04029   18.51460
     146      444        4     0.00552   -2.05926   -2.64847   17.36080
     147      444        4    -0.36672   -3.10174   -1.59826   17.72130
     148      444        3     0.80892   -4.11746   -1.50165   16.62224
     149      444        3     0.81996   -3.11155   -6.10207   15.24221
     150      444        4    -0.37557   -3.98907   -6.30066   14.03470
     151      444        4     0.00547    3.69872   -7.49579   14.27227
     152      444        4    -0.36896   -0.22276    4.21876   13.18251