4
	Energy:      17.7472923
C         -1.07539       -0.93114       -0.00000
C         -1.04729        0.46886       -0.00000
C         -2.27400        1.18553       -0.00000
Br         0.68233        1.30814       -0.00000
