4
	Energy:      16.0169073
C          0.17622        0.98517        0.05879
C          0.28335        2.37740        0.12597
C         -0.88382        3.16903        0.11887
F          1.51605        2.94108        0.19704
