19
	Energy:      24.3022579
N         -3.06412       -1.15834        0.02521
C         -4.19266       -0.41107        0.02101
C         -1.83084       -0.59281        0.01363
C         -4.11317        0.97720        0.00443
H         -5.15894       -0.89760        0.03059
C         -1.67895        0.81362       -0.00345
H         -0.97533       -1.25016        0.01788
C         -2.86105        1.61901       -0.00813
H         -5.03235        1.54930        0.00143
C         -2.84577        3.11830       -0.02575
O         -1.80014        3.74532       -0.03733
O         -4.00780        3.80186       -0.02906
C         -0.29008        1.44748       -0.01646
C          0.90145        0.48648       -0.00995
H         -0.18888        2.09208        0.88300
H         -0.19615        2.07080       -0.93157
H          0.89296       -0.13937        0.90774
H          1.84604        1.07051       -0.02058
H          0.88568       -0.16073       -0.91261
