15
	Energy:      17.7519682
N         -0.32262       -1.93979       -0.03203
C         -1.54674       -1.35483       -0.06450
C          0.81738       -1.20364        0.02648
C          0.75705        0.20225        0.05527
C         -1.66206        0.03477       -0.03813
C         -0.50708        0.83494        0.02234
C         -0.64121        2.32008        0.05000
H         -2.43517       -1.97041       -0.11103
H         -2.64789        0.48210       -0.06484
H          1.77062       -1.71440        0.05054
O         -1.74724        2.83752        0.02043
O          0.44746        3.11171        0.10760
O          1.89127        0.94224        0.11364
O          3.06797        0.40150        0.14361
H          3.43531        0.54798       -0.76504
