6
	Energy:      14.1269315
N         -1.01635       -0.61219       -0.00043
C          0.22009       -0.04395        0.00135
C          0.34736        1.35191        0.00127
N          1.37059       -0.86675        0.00328
H          1.27306       -1.89237        0.00334
H          2.31402       -0.45196        0.00465
