6
	Energy:      20.0438050
C          0.54903       -1.52777       -0.03227
C          0.68143       -0.12118       -0.04309
C         -0.49266        0.67130       -0.01432
O          1.90334        0.47777       -0.08549
C          3.05326       -0.17149       -0.22011
N          4.06062       -0.73461       -0.33760
