4
	Energy:      17.5783637
C         -0.87423       -0.65763        0.01188
C         -2.04432        1.47477        0.04266
C         -0.82882        0.74171        0.03436
Cl         0.76008        1.50329        0.05097
