21
	Energy:     -14.4059361
N         -0.79188       -1.99603        0.49194
C         -1.92990       -1.26427        0.47009
C          0.40968       -1.45974        0.16164
C          0.51785       -0.10550       -0.21818
C         -1.89373        0.07341        0.09292
C         -0.67452        0.68175       -0.26750
C         -0.71235        2.11978       -0.69455
H         -2.87032       -1.72561        0.74069
H         -2.82195        0.63108        0.07431
H          1.27271       -2.10106        0.19955
O         -1.76461        2.73895       -0.65038
O          0.37836        2.74613       -1.17043
P          2.19551        0.60721       -0.64405
C          3.39996       -0.74945       -0.18682
H          3.30670       -1.59268       -0.90171
H          3.22552       -1.10721        0.84946
H          4.43270       -0.34883       -0.24643
C          2.44086        1.60652        0.91597
H          1.72561        2.45117        0.95485
H          3.47262        2.01403        0.92999
H          2.28647        0.96949        1.81131
