15
	Energy:      20.1342183
N         -0.00567       -2.26760       -0.03335
C         -1.29271       -1.84279        0.02373
C          1.03101       -1.39509       -0.05948
C          0.79498       -0.02189       -0.03143
C         -1.59349       -0.46281        0.05747
C         -0.52170        0.46782        0.02590
C         -0.73859        1.94496        0.05338
H         -2.08204       -2.58199        0.04292
H          2.04452       -1.76934       -0.10250
H          1.63981        0.65456       -0.05372
O         -1.86404        2.41481        0.09870
O          0.31737        2.78315        0.02462
N         -2.94529       -0.00972        0.12549
C         -3.92550       -0.80139        0.20006
O         -4.84714       -1.56125        0.27050
