6
	Energy:     -22.0494460
C          0.62924       -1.46899       -0.12194
C          0.72943       -0.06837       -0.15751
C         -0.46155        0.70955       -0.07195
P          2.41570        0.67974       -0.31837
H          3.19374       -0.52388       -0.08146
H          2.43017        1.20301        1.03706
