6
	Energy:      39.7283192
C          0.64729       -1.42825        0.08482
C          0.77396       -0.02258        0.08871
C         -0.43862        0.76198        0.03659
C          2.19227        0.47722        0.12014
S          2.61898        1.72089       -0.45760
H          2.97320       -0.25871        0.28969
