15
	Energy:      23.5136315
N         -1.71649       -1.15797       -0.00057
C         -0.48507       -0.59050       -0.00049
C         -2.84296       -0.40790       -0.00061
C         -0.33079        0.80747       -0.00044
H          0.38687       -1.23201       -0.00046
C         -2.76051        0.98153       -0.00056
H         -3.81039       -0.89228       -0.00068
C         -1.50604        1.62861       -0.00047
H         -3.68146        1.55119       -0.00060
N          0.99733        1.32278       -0.00036
H          1.79597        0.67104       -0.00033
H          1.22129        2.31891       -0.00034
C         -1.50851        3.13240       -0.00042
O         -2.57192        3.73408       -0.00048
O         -0.37490        3.85204       -0.00031
