5
	Energy:      17.9583086
C          0.58189       -1.58066       -0.13709
C          0.73287       -0.18900       -0.08405
C         -0.42484        0.63085        0.00867
S          2.40625        0.46708       -0.13827
H          2.51781        0.44421        1.26458
