15
	Energy:      20.0438050
N         -0.68121       -2.10344       -0.00064
C         -1.81590       -1.36024        0.01958
C          0.54903       -1.52777       -0.03227
C          0.68143       -0.12118       -0.04309
C         -1.74369        0.03053        0.01362
C         -0.49266        0.67130       -0.01432
C         -0.43992        2.16224       -0.01784
H         -2.78055       -1.84988        0.04082
H         -2.66190        0.60456        0.03006
H          1.42115       -2.16722       -0.04791
O         -1.47420        2.81243       -0.00495
O          0.73887        2.81389       -0.02956
O          1.90334        0.47777       -0.08549
C          3.05326       -0.17149       -0.22011
N          4.06062       -0.73461       -0.33760
