15
	Energy:      39.7283192
N         -0.56445       -2.02847       -0.00168
C         -1.70750       -1.31323       -0.08410
C          0.64729       -1.42825        0.08482
C          0.77396       -0.02258        0.08871
C         -1.66670        0.07486       -0.06408
C         -0.43862        0.76198        0.03659
C         -0.52954        2.25809        0.13394
H         -2.65801       -1.82584       -0.15048
H         -2.60551        0.61272       -0.10551
H          1.52933       -2.05569        0.12556
O         -1.70672        2.87305       -0.10009
O          0.40336        2.93269        0.52597
C          2.19227        0.47722        0.12014
S          2.61898        1.72089       -0.45760
H          2.97320       -0.25871        0.28969
