6
	Energy:      25.2319203
C          0.64604       -1.29550       -0.00000
C          0.66834        0.11680        0.00000
C         -0.58565        0.81570        0.00000
C          2.00546        0.78394        0.00000
O          3.02814        0.11546        0.00000
H          2.12177        1.85002        0.00000
