15
	Energy:     -22.0494460
N         -0.57946       -2.07489       -0.00555
C         -1.72751       -1.36013        0.07972
C          0.62924       -1.46899       -0.12194
C          0.72943       -0.06837       -0.15751
C         -1.69113        0.03205        0.04806
C         -0.46155        0.70955       -0.07195
C         -0.47858        2.20800       -0.10364
H         -2.67484       -1.87452        0.17173
H         -2.62355        0.57843        0.11679
H          1.51656       -2.08361       -0.18808
O         -1.54093        2.80587       -0.02354
O          0.65354        2.92495       -0.22197
P          2.41570        0.67974       -0.31837
H          3.19374       -0.52388       -0.08146
H          2.43017        1.20301        1.03706
