Created on Tue Mar 03 16:36:44 2020 

         424 atoms
         512 bonds
         912 angles
         960 dihedrals
         576 impropers

           6 atom types
           7 bond types
          10 angle types
           3 dihedral types
           1 improper types
           0.000000  25.832000 xlo xhi
           0.000000  25.832000 ylo yhi
           0.000000  25.832000 zlo zhi
           0.000000   0.000000   0.000000 xy xz yz

Masses

    1    65.380000000 # Zn3+2
    2    15.999400000 # O_2
    3    15.999400000 # O_R
    4    12.010700000 # C_R
    5     1.007940000 # H_
    6    18.998403200 # F_

Bond Coeffs

    1      172.603617        1.795426  # Zn3+2 O_2
    2      160.291409        1.840266  # Zn3+2 O_R
    3      646.680887        1.311940  # O_R C_R
    4      391.669513        1.458000  # C_R C_R
    5      462.655054        1.379256  # C_R C_R
    6      357.440381        1.081418  # C_R H_
    7      443.203299        1.354566  # C_R F_

Angle Coeffs

    1                      fourier      179.021796        0.343737        0.374972        0.281246 # O_2 Zn3+2 O_R
    2                      fourier      172.607259        0.343737        0.374972        0.281246 # O_R Zn3+2 O_R
    3              cosine/periodic       47.226736              -1               3 # Zn3+2 O_2 Zn3+2
    4              cosine/periodic      121.755278              -1               3 # Zn3+2 O_R C_R
    5              cosine/periodic      263.511421              -1               3 # O_R C_R C_R
    6              cosine/periodic      374.272657              -1               3 # O_R C_R O_R
    7              cosine/periodic      204.366560              -1               3 # C_R C_R C_R
    8              cosine/periodic      222.595017              -1               3 # C_R C_R C_R
    9              cosine/periodic      114.578032              -1               3 # C_R C_R H_
   10              cosine/periodic      207.488907              -1               3 # C_R C_R F_

Dihedral Coeffs

    1        2.245703              -1               2 # Zn3+2 O_R C_R O_R
    2        0.555556              -1               2 # O_R C_R C_R C_R
    3        1.497136              -1               2 # C_R C_R C_R C_R

Improper Coeffs

    1        2.000000        1.000000       -1.000000        0.000000               0 # O_R C_R C_R O_R

Pair Coeffs

    1        0.124000        2.461553 # Zn3+2 Zn3+2
    2        0.060000        3.118146 # O_2 O_2
    3        0.060000        3.118146 # O_R O_R
    4        0.105000        3.430851 # C_R C_R
    5        0.044000        2.571134 # H_ H_
    6        0.050000        2.996983 # F_ F_

Atoms

       1      444        1     0.00000    7.57859    5.33741    5.33741
       2      444        1     0.00000   18.25341   20.49459    5.33741
       3      444        1     0.00000   18.25341    5.33741   20.49459
       4      444        1     0.00000    7.57859   20.49459   20.49459
       5      444        1     0.00000    5.33741    7.57859    5.33741
       6      444        1     0.00000    5.33741   18.25341   20.49459
       7      444        1     0.00000   20.49459   18.25341    5.33741
       8      444        1     0.00000   20.49459    7.57859   20.49459
       9      444        1     0.00000    5.33741    5.33741    7.57859
      10      444        1     0.00000   20.49459    5.33741   18.25341
      11      444        1     0.00000    5.33741   20.49459   18.25341
      12      444        1     0.00000   20.49459   20.49459    7.57859
      13      444        1     0.00000    5.33741    7.57859   20.49459
      14      444        1     0.00000   20.49459   18.25341   20.49459
      15      444        1     0.00000    5.33741   18.25341    5.33741
      16      444        1     0.00000   20.49459    7.57859    5.33741
      17      444        1     0.00000    7.57859    5.33741   20.49459
      18      444        1     0.00000   18.25341    5.33741    5.33741
      19      444        1     0.00000   18.25341   20.49459   20.49459
      20      444        1     0.00000    7.57859   20.49459    5.33741
      21      444        1     0.00000    5.33741    5.33741   18.25341
      22      444        1     0.00000    5.33741   20.49459    7.57859
      23      444        1     0.00000   20.49459    5.33741    7.57859
      24      444        1     0.00000   20.49459   20.49459   18.25341
      25      444        1     0.00000    7.57859   18.25341   18.25341
      26      444        1     0.00000   18.25341    7.57859   18.25341
      27      444        1     0.00000   18.25341   18.25341    7.57859
      28      444        1     0.00000    7.57859    7.57859    7.57859
      29      444        1     0.00000    7.57859   18.25341    7.57859
      30      444        1     0.00000   18.25341   18.25341   18.25341
      31      444        1     0.00000   18.25341    7.57859    7.57859
      32      444        1     0.00000    7.57859    7.57859   18.25341
      33      444        2     0.00000    6.45800    6.45800    6.45800
      34      444        2     0.00000   19.37400   19.37400    6.45800
      35      444        2     0.00000   19.37400    6.45800   19.37400
      36      444        2     0.00000    6.45800   19.37400   19.37400
      37      444        2     0.00000    6.45800    6.45800   19.37400
      38      444        2     0.00000   19.37400   19.37400   19.37400
      39      444        2     0.00000    6.45800   19.37400    6.45800
      40      444        2     0.00000   19.37400    6.45800    6.45800
      41      444        3     0.00000    7.28127    5.63473    3.46149
      42      444        3     0.00000   18.55073   20.19727    3.46149
      43      444        3     0.00000   18.55073    5.63473   22.37051
      44      444        3     0.00000    7.28127   20.19727   22.37051
      45      444        3     0.00000    3.46149    7.28127    5.63473
      46      444        3     0.00000    3.46149   18.55073   20.19727
      47      444        3     0.00000   22.37051   18.55073    5.63473
      48      444        3     0.00000   22.37051    7.28127   20.19727
      49      444        3     0.00000    5.63473    3.46149    7.28127
      50      444        3     0.00000   20.19727    3.46149   18.55073
      51      444        3     0.00000    5.63473   22.37051   18.55073
      52      444        3     0.00000   20.19727   22.37051    7.28127
      53      444        3     0.00000    5.63473    7.28127   22.37051
      54      444        3     0.00000   20.19727   18.55073   22.37051
      55      444        3     0.00000    5.63473   18.55073    3.46149
      56      444        3     0.00000   20.19727    7.28127    3.46149
      57      444        3     0.00000    7.28127    3.46149   20.19727
      58      444        3     0.00000   18.55073    3.46149    5.63473
      59      444        3     0.00000   18.55073   22.37051   20.19727
      60      444        3     0.00000    7.28127   22.37051    5.63473
      61      444        3     0.00000    3.46149    5.63473   18.55073
      62      444        3     0.00000    3.46149   20.19727    7.28127
      63      444        3     0.00000   22.37051    5.63473    7.28127
      64      444        3     0.00000   22.37051   20.19727   18.55073
      65      444        3     0.00000    7.28127   18.55073   16.37749
      66      444        3     0.00000   18.55073    7.28127   16.37749
      67      444        3     0.00000   18.55073   18.55073    9.45451
      68      444        3     0.00000    7.28127    7.28127    9.45451
      69      444        3     0.00000    3.46149   20.19727   18.55073
      70      444        3     0.00000    3.46149    5.63473    7.28127
      71      444        3     0.00000   22.37051    5.63473   18.55073
      72      444        3     0.00000   22.37051   20.19727    7.28127
      73      444        3     0.00000    5.63473   16.37749   20.19727
      74      444        3     0.00000   20.19727   16.37749    5.63473
      75      444        3     0.00000    5.63473    9.45451    5.63473
      76      444        3     0.00000   20.19727    9.45451   20.19727
      77      444        3     0.00000    5.63473   20.19727    9.45451
      78      444        3     0.00000   20.19727    5.63473    9.45451
      79      444        3     0.00000    5.63473    5.63473   16.37749
      80      444        3     0.00000   20.19727   20.19727   16.37749
      81      444        3     0.00000    7.28127   16.37749    7.28127
      82      444        3     0.00000   18.55073   16.37749   18.55073
      83      444        3     0.00000   18.55073    9.45451    7.28127
      84      444        3     0.00000    7.28127    9.45451   18.55073
      85      444        3     0.00000    3.46149   18.55073    5.63473
      86      444        3     0.00000    3.46149    7.28127   20.19727
      87      444        3     0.00000   22.37051   18.55073   20.19727
      88      444        3     0.00000   22.37051    7.28127    5.63473
      89      444        3     0.00000   20.19727    5.63473   16.37749
      90      444        3     0.00000    5.63473   20.19727   16.37749
      91      444        3     0.00000    5.63473    5.63473    9.45451
      92      444        3     0.00000   20.19727   20.19727    9.45451
      93      444        3     0.00000   16.37749    7.28127   18.55073
      94      444        3     0.00000   16.37749   18.55073    7.28127
      95      444        3     0.00000    9.45451   18.55073   18.55073
      96      444        3     0.00000    9.45451    7.28127    7.28127
      97      444        3     0.00000   18.55073    3.46149   20.19727
      98      444        3     0.00000    7.28127    3.46149    5.63473
      99      444        3     0.00000   18.55073   22.37051    5.63473
     100      444        3     0.00000    7.28127   22.37051   20.19727
     101      444        3     0.00000   18.55073    7.28127    9.45451
     102      444        3     0.00000    7.28127   18.55073    9.45451
     103      444        3     0.00000   18.55073   18.55073   16.37749
     104      444        3     0.00000    7.28127    7.28127   16.37749
     105      444        3     0.00000   20.19727    3.46149    7.28127
     106      444        3     0.00000    5.63473    3.46149   18.55073
     107      444        3     0.00000    5.63473   22.37051    7.28127
     108      444        3     0.00000   20.19727   22.37051   18.55073
     109      444        3     0.00000   16.37749    5.63473    5.63473
     110      444        3     0.00000   16.37749   20.19727   20.19727
     111      444        3     0.00000    9.45451    5.63473   20.19727
     112      444        3     0.00000    9.45451   20.19727    5.63473
     113      444        3     0.00000   20.19727   18.55073    3.46149
     114      444        3     0.00000    5.63473    7.28127    3.46149
     115      444        3     0.00000    5.63473   18.55073   22.37051
     116      444        3     0.00000   20.19727    7.28127   22.37051
     117      444        3     0.00000   16.37749   20.19727    5.63473
     118      444        3     0.00000   16.37749    5.63473   20.19727
     119      444        3     0.00000    9.45451    5.63473    5.63473
     120      444        3     0.00000    9.45451   20.19727   20.19727
     121      444        3     0.00000   18.55073   16.37749    7.28127
     122      444        3     0.00000    7.28127   16.37749   18.55073
     123      444        3     0.00000   18.55073    9.45451   18.55073
     124      444        3     0.00000    7.28127    9.45451    7.28127
     125      444        3     0.00000   18.55073   20.19727   22.37051
     126      444        3     0.00000    7.28127    5.63473   22.37051
     127      444        3     0.00000   18.55073    5.63473    3.46149
     128      444        3     0.00000    7.28127   20.19727    3.46149
     129      444        3     0.00000   20.19727   16.37749   20.19727
     130      444        3     0.00000    5.63473   16.37749    5.63473
     131      444        3     0.00000    5.63473    9.45451   20.19727
     132      444        3     0.00000   20.19727    9.45451    5.63473
     133      444        3     0.00000   16.37749   18.55073   18.55073
     134      444        3     0.00000   16.37749    7.28127    7.28127
     135      444        3     0.00000    9.45451   18.55073    7.28127
     136      444        3     0.00000    9.45451    7.28127   18.55073
     137      444        4     0.00000    6.45800    6.45800    2.87510
     138      444        4     0.00000   19.37400   19.37400    2.87510
     139      444        4     0.00000   19.37400    6.45800   22.95690
     140      444        4     0.00000    6.45800   19.37400   22.95690
     141      444        4     0.00000    2.87510    6.45800    6.45800
     142      444        4     0.00000    2.87510   19.37400   19.37400
     143      444        4     0.00000   22.95690   19.37400    6.45800
     144      444        4     0.00000   22.95690    6.45800   19.37400
     145      444        4     0.00000    6.45800    2.87510    6.45800
     146      444        4     0.00000   19.37400    2.87510   19.37400
     147      444        4     0.00000    6.45800   22.95690   19.37400
     148      444        4     0.00000   19.37400   22.95690    6.45800
     149      444        4     0.00000    6.45800    6.45800   22.95690
     150      444        4     0.00000   19.37400   19.37400   22.95690
     151      444        4     0.00000    6.45800   19.37400    2.87510
     152      444        4     0.00000   19.37400    6.45800    2.87510
     153      444        4     0.00000    6.45800    2.87510   19.37400
     154      444        4     0.00000   19.37400    2.87510    6.45800
     155      444        4     0.00000   19.37400   22.95690   19.37400
     156      444        4     0.00000    6.45800   22.95690    6.45800
     157      444        4     0.00000    2.87510    6.45800   19.37400
     158      444        4     0.00000    2.87510   19.37400    6.45800
     159      444        4     0.00000   22.95690    6.45800    6.45800
     160      444        4     0.00000   22.95690   19.37400   19.37400
     161      444        4     0.00000    6.45800   19.37400   15.79110
     162      444        4     0.00000   19.37400    6.45800   15.79110
     163      444        4     0.00000   19.37400   19.37400   10.04090
     164      444        4     0.00000    6.45800    6.45800   10.04090
     165      444        4     0.00000    6.45800   15.79110   19.37400
     166      444        4     0.00000   19.37400   15.79110    6.45800
     167      444        4     0.00000    6.45800   10.04090    6.45800
     168      444        4     0.00000   19.37400   10.04090   19.37400
     169      444        4     0.00000    6.45800   19.37400   10.04090
     170      444        4     0.00000   19.37400    6.45800   10.04090
     171      444        4     0.00000    6.45800    6.45800   15.79110
     172      444        4     0.00000   19.37400   19.37400   15.79110
     173      444        4     0.00000    6.45800   15.79110    6.45800
     174      444        4     0.00000   19.37400   15.79110   19.37400
     175      444        4     0.00000   19.37400   10.04090    6.45800
     176      444        4     0.00000    6.45800   10.04090   19.37400
     177      444        4     0.00000   15.79110    6.45800   19.37400
     178      444        4     0.00000   15.79110   19.37400    6.45800
     179      444        4     0.00000   10.04090   19.37400   19.37400
     180      444        4     0.00000   10.04090    6.45800    6.45800
     181      444        4     0.00000   15.79110    6.45800    6.45800
     182      444        4     0.00000   15.79110   19.37400   19.37400
     183      444        4     0.00000   10.04090    6.45800   19.37400
     184      444        4     0.00000   10.04090   19.37400    6.45800
     185      444        4     0.00000    6.45800    6.45800    1.38976
     186      444        4     0.00000   19.37400   19.37400    1.38976
     187      444        4     0.00000   19.37400    6.45800   24.44224
     188      444        4     0.00000    6.45800   19.37400   24.44224
     189      444        4     0.00000    1.38976    6.45800    6.45800
     190      444        4     0.00000    1.38976   19.37400   19.37400
     191      444        4     0.00000   24.44224   19.37400    6.45800
     192      444        4     0.00000   24.44224    6.45800   19.37400
     193      444        4     0.00000    6.45800    1.38976    6.45800
     194      444        4     0.00000   19.37400    1.38976   19.37400
     195      444        4     0.00000    6.45800   24.44224   19.37400
     196      444        4     0.00000   19.37400   24.44224    6.45800
     197      444        4     0.00000    6.45800    6.45800   24.44224
     198      444        4     0.00000   19.37400   19.37400   24.44224
     199      444        4     0.00000    6.45800   19.37400    1.38976
     200      444        4     0.00000   19.37400    6.45800    1.38976
     201      444        4     0.00000    6.45800    1.38976   19.37400
     202      444        4     0.00000   19.37400    1.38976    6.45800
     203      444        4     0.00000   19.37400   24.44224   19.37400
     204      444        4     0.00000    6.45800   24.44224    6.45800
     205      444        4     0.00000    1.38976    6.45800   19.37400
     206      444        4     0.00000    1.38976   19.37400    6.45800
     207      444        4     0.00000   24.44224    6.45800    6.45800
     208      444        4     0.00000   24.44224   19.37400   19.37400
     209      444        4     0.00000    6.45800   19.37400   14.30576
     210      444        4     0.00000   19.37400    6.45800   14.30576
     211      444        4     0.00000   19.37400   19.37400   11.52624
     212      444        4     0.00000    6.45800    6.45800   11.52624
     213      444        4     0.00000    6.45800   14.30576   19.37400
     214      444        4     0.00000   19.37400   14.30576    6.45800
     215      444        4     0.00000    6.45800   11.52624    6.45800
     216      444        4     0.00000   19.37400   11.52624   19.37400
     217      444        4     0.00000    6.45800   19.37400   11.52624
     218      444        4     0.00000   19.37400    6.45800   11.52624
     219      444        4     0.00000    6.45800    6.45800   14.30576
     220      444        4     0.00000   19.37400   19.37400   14.30576
     221      444        4     0.00000    6.45800   14.30576    6.45800
     222      444        4     0.00000   19.37400   14.30576   19.37400
     223      444        4     0.00000   19.37400   11.52624    6.45800
     224      444        4     0.00000    6.45800   11.52624   19.37400
     225      444        4     0.00000   14.30576    6.45800   19.37400
     226      444        4     0.00000   14.30576   19.37400    6.45800
     227      444        4     0.00000   11.52624   19.37400   19.37400
     228      444        4     0.00000   11.52624    6.45800    6.45800
     229      444        4     0.00000   14.30576    6.45800    6.45800
     230      444        4     0.00000   14.30576   19.37400   19.37400
     231      444        4     0.00000   11.52624    6.45800   19.37400
     232      444        4     0.00000   11.52624   19.37400    6.45800
     233      444        4     0.00000    7.30787    5.60813    0.69488
     234      444        4     0.00000   18.52413   20.22387    0.69488
     235      444        4     0.00000   18.52413    5.60813   25.13712
     236      444        4     0.00000    7.30787   20.22387   25.13712
     237      444        4     0.00000    0.69488    7.30787    5.60813
     238      444        4     0.00000    0.69488   18.52413   20.22387
     239      444        4     0.00000   25.13712   18.52413    5.60813
     240      444        4     0.00000   25.13712    7.30787   20.22387
     241      444        4     0.00000    5.60813    0.69488    7.30787
     242      444        4     0.00000   20.22387    0.69488   18.52413
     243      444        4     0.00000    5.60813   25.13712   18.52413
     244      444        4     0.00000   20.22387   25.13712    7.30787
     245      444        4     0.00000    5.60813    7.30787   25.13712
     246      444        4     0.00000   20.22387   18.52413   25.13712
     247      444        4     0.00000    5.60813   18.52413    0.69488
     248      444        4     0.00000   20.22387    7.30787    0.69488
     249      444        4     0.00000    7.30787    0.69488   20.22387
     250      444        4     0.00000   18.52413    0.69488    5.60813
     251      444        4     0.00000   18.52413   25.13712   20.22387
     252      444        4     0.00000    7.30787   25.13712    5.60813
     253      444        4     0.00000    0.69488    5.60813   18.52413
     254      444        4     0.00000    0.69488   20.22387    7.30787
     255      444        4     0.00000   25.13712    5.60813    7.30787
     256      444        4     0.00000   25.13712   20.22387   18.52413
     257      444        4     0.00000    7.30787   18.52413   13.61088
     258      444        4     0.00000   18.52413    7.30787   13.61088
     259      444        4     0.00000   18.52413   18.52413   12.22112
     260      444        4     0.00000    7.30787    7.30787   12.22112
     261      444        4     0.00000    0.69488   20.22387   18.52413
     262      444        4     0.00000    0.69488    5.60813    7.30787
     263      444        4     0.00000   25.13712    5.60813   18.52413
     264      444        4     0.00000   25.13712   20.22387    7.30787
     265      444        4     0.00000    5.60813   13.61088   20.22387
     266      444        4     0.00000   20.22387   13.61088    5.60813
     267      444        4     0.00000    5.60813   12.22112    5.60813
     268      444        4     0.00000   20.22387   12.22112   20.22387
     269      444        4     0.00000    5.60813   20.22387   12.22112
     270      444        4     0.00000   20.22387    5.60813   12.22112
     271      444        4     0.00000    5.60813    5.60813   13.61088
     272      444        4     0.00000   20.22387   20.22387   13.61088
     273      444        4     0.00000    7.30787   13.61088    7.30787
     274      444        4     0.00000   18.52413   13.61088   18.52413
     275      444        4     0.00000   18.52413   12.22112    7.30787
     276      444        4     0.00000    7.30787   12.22112   18.52413
     277      444        4     0.00000    0.69488   18.52413    5.60813
     278      444        4     0.00000    0.69488    7.30787   20.22387
     279      444        4     0.00000   25.13712   18.52413   20.22387
     280      444        4     0.00000   25.13712    7.30787    5.60813
     281      444        4     0.00000   20.22387    5.60813   13.61088
     282      444        4     0.00000    5.60813   20.22387   13.61088
     283      444        4     0.00000    5.60813    5.60813   12.22112
     284      444        4     0.00000   20.22387   20.22387   12.22112
     285      444        4     0.00000   13.61088    7.30787   18.52413
     286      444        4     0.00000   13.61088   18.52413    7.30787
     287      444        4     0.00000   12.22112   18.52413   18.52413
     288      444        4     0.00000   12.22112    7.30787    7.30787
     289      444        4     0.00000   18.52413    0.69488   20.22387
     290      444        4     0.00000    7.30787    0.69488    5.60813
     291      444        4     0.00000   18.52413   25.13712    5.60813
     292      444        4     0.00000    7.30787   25.13712   20.22387
     293      444        4     0.00000   18.52413    7.30787   12.22112
     294      444        4     0.00000    7.30787   18.52413   12.22112
     295      444        4     0.00000   18.52413   18.52413   13.61088
     296      444        4     0.00000    7.30787    7.30787   13.61088
     297      444        4     0.00000   20.22387    0.69488    7.30787
     298      444        4     0.00000    5.60813    0.69488   18.52413
     299      444        4     0.00000    5.60813   25.13712    7.30787
     300      444        4     0.00000   20.22387   25.13712   18.52413
     301      444        4     0.00000   13.61088    5.60813    5.60813
     302      444        4     0.00000   13.61088   20.22387   20.22387
     303      444        4     0.00000   12.22112    5.60813   20.22387
     304      444        4     0.00000   12.22112   20.22387    5.60813
     305      444        4     0.00000   20.22387   18.52413    0.69488
     306      444        4     0.00000    5.60813    7.30787    0.69488
     307      444        4     0.00000    5.60813   18.52413   25.13712
     308      444        4     0.00000   20.22387    7.30787   25.13712
     309      444        4     0.00000   13.61088   20.22387    5.60813
     310      444        4     0.00000   13.61088    5.60813   20.22387
     311      444        4     0.00000   12.22112    5.60813    5.60813
     312      444        4     0.00000   12.22112   20.22387   20.22387
     313      444        4     0.00000   18.52413   13.61088    7.30787
     314      444        4     0.00000    7.30787   13.61088   18.52413
     315      444        4     0.00000   18.52413   12.22112   18.52413
     316      444        4     0.00000    7.30787   12.22112    7.30787
     317      444        4     0.00000   18.52413   20.22387   25.13712
     318      444        4     0.00000    7.30787    5.60813   25.13712
     319      444        4     0.00000   18.52413    5.60813    0.69488
     320      444        4     0.00000    7.30787   20.22387    0.69488
     321      444        4     0.00000   20.22387   13.61088   20.22387
     322      444        4     0.00000    5.60813   13.61088    5.60813
     323      444        4     0.00000    5.60813   12.22112   20.22387
     324      444        4     0.00000   20.22387   12.22112    5.60813
     325      444        4     0.00000   13.61088   18.52413   18.52413
     326      444        4     0.00000   13.61088    7.30787    7.30787
     327      444        4     0.00000   12.22112   18.52413    7.30787
     328      444        4     0.00000   12.22112    7.30787   18.52413
     329      444        5     0.00000    7.87618    5.03982    1.15727
     330      444        5     0.00000   17.95582   20.79218    1.15727
     331      444        5     0.00000   17.95582    5.03982   24.67473
     332      444        5     0.00000    7.87618   20.79218   24.67473
     333      444        5     0.00000    1.15727    7.87618    5.03982
     334      444        5     0.00000    1.15727   17.95582   20.79218
     335      444        5     0.00000   24.67473   17.95582    5.03982
     336      444        5     0.00000   24.67473    7.87618   20.79218
     337      444        5     0.00000    5.03982    1.15727    7.87618
     338      444        5     0.00000   20.79218    1.15727   17.95582
     339      444        5     0.00000    5.03982   24.67473   17.95582
     340      444        5     0.00000   20.79218   24.67473    7.87618
     341      444        5     0.00000    7.87618   17.95582   14.07327
     342      444        5     0.00000   17.95582    7.87618   14.07327
     343      444        5     0.00000   17.95582   17.95582   11.75873
     344      444        5     0.00000    7.87618    7.87618   11.75873
     345      444        5     0.00000    1.15727   20.79218   17.95582
     346      444        5     0.00000    1.15727    5.03982    7.87618
     347      444        5     0.00000   24.67473    5.03982   17.95582
     348      444        5     0.00000   24.67473   20.79218    7.87618
     349      444        5     0.00000    5.03982   14.07327   20.79218
     350      444        5     0.00000   20.79218   14.07327    5.03982
     351      444        5     0.00000    5.03982   11.75873    5.03982
     352      444        5     0.00000   20.79218   11.75873   20.79218
     353      444        5     0.00000    1.15727   17.95582    5.03982
     354      444        5     0.00000    1.15727    7.87618   20.79218
     355      444        5     0.00000   24.67473   17.95582   20.79218
     356      444        5     0.00000   24.67473    7.87618    5.03982
     357      444        5     0.00000   20.79218    5.03982   14.07327
     358      444        5     0.00000    5.03982   20.79218   14.07327
     359      444        5     0.00000    5.03982    5.03982   11.75873
     360      444        5     0.00000   20.79218   20.79218   11.75873
     361      444        5     0.00000   14.07327    7.87618   17.95582
     362      444        5     0.00000   14.07327   17.95582    7.87618
     363      444        5     0.00000   11.75873   17.95582   17.95582
     364      444        5     0.00000   11.75873    7.87618    7.87618
     365      444        5     0.00000   17.95582    1.15727   20.79218
     366      444        5     0.00000    7.87618    1.15727    5.03982
     367      444        5     0.00000   17.95582   24.67473    5.03982
     368      444        5     0.00000    7.87618   24.67473   20.79218
     369      444        5     0.00000   17.95582    7.87618   11.75873
     370      444        5     0.00000    7.87618   17.95582   11.75873
     371      444        5     0.00000   17.95582   17.95582   14.07327
     372      444        5     0.00000    7.87618    7.87618   14.07327
     373      444        5     0.00000   20.79218    1.15727    7.87618
     374      444        5     0.00000    5.03982    1.15727   17.95582
     375      444        5     0.00000    5.03982   24.67473    7.87618
     376      444        5     0.00000   20.79218   24.67473   17.95582
     377      444        5     0.00000   20.79218   17.95582    1.15727
     378      444        5     0.00000    5.03982    7.87618    1.15727
     379      444        5     0.00000    5.03982   17.95582   24.67473