LAMMPS (27 Feb 2020)
OMP_NUM_THREADS environment is not set. Defaulting to 1 thread. (src/comm.cpp:94)
  using 1 OpenMP thread(s) per MPI task
log             log.IRMOF-1_clean_meta_functonalized_F append
