units           real
atom_style      full
boundary        p p p

pair_style      lj/cut/coul/long 12.500
bond_style      harmonic
angle_style     hybrid fourier cosine/periodic harmonic
dihedral_style  harmonic
improper_style  fourier
kspace_style    ewald 0.000001

dielectric      1.0
pair_modify     tail yes mix arithmetic
special_bonds   lj/coul 0.0 0.0 1.0
box tilt        large
read_data       data.IRMOF-1_clean_meta_functonalized_F
ERROR on proc 0: Cannot open file data.IRMOF-1_clean_meta_functonalized_F (src/read_data.cpp:2035)
Last command: read_data       data.IRMOF-1_clean_meta_functonalized_F
units           real
atom_style      full
boundary        p p p

pair_style      lj/cut/coul/long 12.500
bond_style      harmonic
angle_style     hybrid fourier cosine/periodic harmonic
dihedral_style  harmonic
improper_style  fourier
kspace_style    ewald 0.000001

dielectric      1.0
pair_modify     tail yes mix arithmetic
special_bonds   lj/coul 0.0 0.0 1.0
box tilt        large
read_data       data.IRMOF-1_clean_meta_functonalized_F
  triclinic box = (0 0 0) to (25.832 25.832 25.832) with tilt (0 0 0)
  1 by 1 by 1 MPI processor grid
  reading atoms ...
  424 atoms
  scanning bonds ...
  4 = max bonds/atom
  scanning angles ...
  6 = max angles/atom
  scanning dihedrals ...
  8 = max dihedrals/atom
  scanning impropers ...
  3 = max impropers/atom
  reading bonds ...
  512 bonds
  reading angles ...
  912 angles
  reading dihedrals ...
  960 dihedrals
  reading impropers ...
  576 impropers
  4 = max # of 1-2 neighbors
  12 = max # of 1-3 neighbors
  16 = max # of special neighbors
  special bonds CPU = 0.000592828 secs
  read_data CPU = 0.0195197 secs

#### Atom Groupings ####
group           fram     id   1:4320
424 atoms in group fram
group           dummy    type 8:10
0 atoms in group dummy
#### END Atom Groupings ####

variable        dt         equal 1.00
variable        tdamp      equal 100*${dt}
variable        tdamp      equal 100*1
fix             1 fram langevin 298.00 298.00 ${tdamp} 2866448
fix             1 fram langevin 298.00 298.00 100 2866448
fix             2 fram nve
fix 		l3 dummy langevin 298.0 298.0 10 787
fix 		3 dummy nve
thermo          10
run             300
Ewald initialization ...
WARNING: Using kspace solver on system with no charge (src/kspace.cpp:300)
ERROR: Must use 'kspace_modify gewald' for uncharged system (src/KSPACE/ewald.cpp:164)
Last command: run             300
units           real
atom_style      full
boundary        p p p

pair_style      lj/cut/coul/long 12.500
bond_style      harmonic
angle_style     hybrid fourier cosine/periodic harmonic
dihedral_style  harmonic
improper_style  fourier
kspace_style    ewald 0.000001
kspace_modify   gewald
ERROR: Illegal kspace_modify command (src/kspace.cpp:502)
Last command: kspace_modify   gewald
