/apps/openmpi/3.1_intel-19/bin/mpiexec
starting QE Tue Jun 9 10:30:02 PDT 2020

     Program PWSCF v.6.5 starts on  9Jun2020 at 10:30: 3 

     This program is part of the open-source Quantum ESPRESSO suite
     for quantum simulation of materials; please cite
         "P. Giannozzi et al., J. Phys.:Condens. Matter 21 395502 (2009);
         "P. Giannozzi et al., J. Phys.:Condens. Matter 29 465901 (2017);
          URL http://www.quantum-espresso.org", 
     in publications or presentations arising from this work. More details at
     http://www.quantum-espresso.org/quote

     Parallel version (MPI), running on    32 processors

     MPI processes distributed on     1 nodes
     K-points division:     npool     =       2
     R & G space division:  proc/nbgrp/npool/nimage =      16
     Reading input from QE_input_scripts/pw.NiPyC2_sc211_pbesol-relax.in
Warning: card &CELL ignored
Warning: card    CELL_DYNAMICS = 'BFGS' ignored
Warning: card    CELL_DOFREE = 'XYZ' ignored
Warning: card / ignored

     Current dimensions of program PWSCF are:
     Max number of different atomic species (ntypx) = 10
     Max number of k-points (npk) =  40000
     Max angular momentum in pseudopotentials (lmaxx) =  3

     -------------------------------------------------
     Parameters for Dispersion (Grimme-D2) Correction:
     -------------------------------------------------
       atom      VdW radius       C_6     

        C          2.744         60.710
        H          1.892          4.857
        N          2.640         42.670
        Ni         2.952        374.666
        O          2.536         24.284

     gamma-point specific algorithms are used

     Subspace diagonalization in iterative solution of the eigenvalue problem:
     a serial algorithm will be used

     Found symmetry operation: I + ( -0.5000  0.0000  0.0000)
     This is a supercell, fractional translations are disabled
 
     Parallelization info
     --------------------
     sticks:   dense  smooth     PW     G-vecs:    dense   smooth      PW
     Min        1113    1113    277                91686    91686   11456
     Max        1116    1116    280                91692    91692   11460
     Sum       17829   17829   4453              1467017  1467017  183325
 


     bravais-lattice index     =            0
     lattice parameter (alat)  =      23.6322  a.u.
     unit-cell volume          =   10858.6228 (a.u.)^3
     number of atoms/cell      =          108
     number of atomic types    =            5
     number of electrons       =       400.00 (up: 204.00, down: 196.00)
     number of Kohn-Sham states=          245
     kinetic-energy cutoff     =     100.0000  Ry
     charge density cutoff     =     400.0000  Ry
     convergence threshold     =      1.0E-06
     mixing beta               =       0.7000
     number of iterations used =            8  local-TF  mixing
     Exchange-correlation= PBESOL
                           (   1   4  10   8   0   0   0)
     nstep                     =          200


     celldm(1)=  23.632159  celldm(2)=   0.000000  celldm(3)=   0.000000
     celldm(4)=   0.000000  celldm(5)=   0.000000  celldm(6)=   0.000000

     crystal axes: (cart. coord. in units of alat)
               a(1) = (   1.000000   0.000000   0.000000 )  
               a(2) = (   0.000000   1.001423   0.000000 )  
               a(3) = (  -0.018199   0.000000   0.821574 )  

     reciprocal axes: (cart. coord. in units 2 pi/alat)
               b(1) = (  1.000000  0.000000  0.022152 )  
               b(2) = (  0.000000  0.998579  0.000000 )  
               b(3) = (  0.000000  0.000000  1.217175 )  


     PseudoPot. # 1 for C  read from file:
     ./pseudo/C.pbesol-nc.UPF
     MD5 check sum: ce26087537ded160c8d400e183a8bf42
     Pseudo is Norm-conserving, Zval =  4.0
     Generated using "atomic" code by A. Dal Corso v.6.5
     Using radial grid of 1073 points,  1 beta functions with: 
                l(1) =   1

     PseudoPot. # 2 for H  read from file:
     ./pseudo/H.pbesol-n-nc.UPF
     MD5 check sum: 7995ef24074557c85b430109caaacc09
     Pseudo is Norm-conserving, Zval =  1.0
     Generated using "atomic" code by A. Dal Corso v.6.5
     Using radial grid of  929 points,  0 beta functions with: 

     PseudoPot. # 3 for N  read from file:
     ./pseudo/N.pbesol-nc.UPF
     MD5 check sum: e18cc5e4b8a5600c1a19b30c2cab1ca0
     Pseudo is Norm-conserving, Zval =  5.0
     Generated using "atomic" code by A. Dal Corso v.6.5
     Using radial grid of 1085 points,  1 beta functions with: 
                l(1) =   1

     PseudoPot. # 4 for Ni read from file:
     ./pseudo/Ni.pbesol-n-nc.UPF
     MD5 check sum: 623411631e0c2eb7c0b2b9815547d2d9
     Pseudo is Norm-conserving + core correction, Zval = 10.0
     Generated using "atomic" code by A. Dal Corso v.6.5
     Using radial grid of 1195 points,  2 beta functions with: 
                l(1) =   1
                l(2) =   2

     PseudoPot. # 5 for O  read from file:
     ./pseudo/O.pbesol-nc.UPF
     MD5 check sum: 73d10e7e91dbfcbe8a7e362101007f84
     Pseudo is Norm-conserving, Zval =  6.0
     Generated using "atomic" code by A. Dal Corso v.6.5
     Using radial grid of 1095 points,  1 beta functions with: 
                l(1) =   1

     atomic species   valence    mass     pseudopotential
        C              4.00    12.01070     C ( 1.00)
        H              1.00     1.00794     H ( 1.00)
        N              5.00    14.00670     N ( 1.00)
        Ni            10.00    58.69340     Ni( 1.00)
        O              6.00    15.99940     O ( 1.00)

     Starting magnetic structure 
     atomic species   magnetization
        C            0.000
        H            0.000
        N            0.000
        Ni           0.250
        O            0.000

     No symmetry found



   Cartesian axes

     site n.     atom                  positions (alat units)
         1           C   tau(   1) = (   0.2787122   0.9714307   0.4288486  )
         2           C   tau(   2) = (   0.0379730   0.0311503   0.0183277  )
         3           C   tau(   3) = (   0.3806882   0.0117868   0.4489838  )
         4           C   tau(   4) = (   0.1394042   0.9891499   0.0379124  )
         5           C   tau(   5) = (   0.4400787   0.9715829   0.5343281  )
         6           C   tau(   6) = (   0.1997920   0.0283934   0.1231482  )
         7           C   tau(   7) = (   0.1986011   0.5304580   0.4324635  )
         8           C   tau(   8) = (   0.4580372   0.4720800   0.0229252  )
         9           C   tau(   9) = (   0.2341003   0.6142040   0.4982314  )
        10           C   tau(  10) = (   0.4948422   0.3892302   0.0892369  )
        11           C   tau(  11) = (   0.2384981   0.8904717   0.4955761  )
        12           C   tau(  12) = (  -0.0008282   0.1123917   0.0856467  )
        13           C   tau(  13) = (   0.3947360   0.8906489   0.5977380  )
        14           C   tau(  14) = (   0.1557890   0.1097029   0.1871645  )
        15           C   tau(  15) = (   0.0756247   0.6098498   0.5975737  )
        16           C   tau(  16) = (   0.3367152   0.3921904   0.1884642  )
        17           C   tau(  17) = (   0.0350715   0.5258264   0.5351012  )
        18           C   tau(  18) = (   0.2948780   0.4753867   0.1254988  )
        19           C   tau(  19) = (   0.0981522   0.4849593   0.4519611  )
        20           C   tau(  20) = (   0.3569104   0.5163900   0.0416029  )
        21           C   tau(  21) = (   0.4248178   0.0994604   0.3833638  )
        22           C   tau(  22) = (   0.1639424   0.9010006   0.7933713  )
        23           C   tau(  23) = (   0.0588120   0.3950355   0.3866953  )
        24           C   tau(  24) = (   0.2984059   0.6050320   0.7961934  )
        25           C   tau(  25) = (   0.7787122   0.9714307   0.4288486  )
        26           C   tau(  26) = (   0.5379730   0.0311503   0.0183277  )
        27           C   tau(  27) = (   0.8806882   0.0117868   0.4489838  )
        28           C   tau(  28) = (   0.6394042   0.9891499   0.0379124  )
        29           C   tau(  29) = (   0.9400787   0.9715829   0.5343281  )
        30           C   tau(  30) = (   0.6997920   0.0283934   0.1231482  )
        31           C   tau(  31) = (   0.6986021   0.5304580   0.4324635  )
        32           C   tau(  32) = (   0.9580382   0.4720800   0.0229252  )
        33           C   tau(  33) = (   0.7341003   0.6142040   0.4982314  )
        34           C   tau(  34) = (   0.9948422   0.3892302   0.0892369  )
        35           C   tau(  35) = (   0.7384981   0.8904717   0.4955761  )
        36           C   tau(  36) = (   0.4991718   0.1123917   0.0856467  )
        37           C   tau(  37) = (   0.8947360   0.8906489   0.5977380  )
        38           C   tau(  38) = (   0.6557880   0.1097029   0.1871645  )
        39           C   tau(  39) = (   0.5756247   0.6098498   0.5975737  )
        40           C   tau(  40) = (   0.8367152   0.3921904   0.1884642  )
        41           C   tau(  41) = (   0.5350715   0.5258264   0.5351012  )
        42           C   tau(  42) = (   0.7948780   0.4753867   0.1254988  )
        43           C   tau(  43) = (   0.5981522   0.4849593   0.4519611  )
        44           C   tau(  44) = (   0.8569104   0.5163900   0.0416029  )
        45           C   tau(  45) = (   0.9248178   0.0994604   0.3833638  )
        46           C   tau(  46) = (   0.6639424   0.9010006   0.7933713  )
        47           C   tau(  47) = (   0.5588110   0.3950355   0.3866953  )
        48           C   tau(  48) = (   0.7984059   0.6050320   0.7961934  )
        49           H   tau(  49) = (   0.2290596   1.0009978   0.3640502  )
        50           H   tau(  50) = (   0.4693669   0.0026958   0.7751545  )
        51           H   tau(  51) = (   0.0198054   1.0002267   0.5533467  )
        52           H   tau(  52) = (   0.2791988   1.0000865   0.1418054  )
        53           H   tau(  53) = (   0.2505234   0.5016080   0.3691185  )
        54           H   tau(  54) = (  -0.0086584   0.5011092   0.7809458  )
        55           H   tau(  55) = (   0.3118554   0.6514319   0.4868937  )
        56           H   tau(  56) = (   0.0732386   0.3533532   0.0780726  )
        57           H   tau(  57) = (   0.1594426   0.8563401   0.4835457  )
        58           H   tau(  58) = (   0.4206861   0.1479423   0.0738480  )
        59           H   tau(  59) = (   0.4386511   0.8563902   0.6644572  )
        60           H   tau(  60) = (   0.2006191   0.1433067   0.2536997  )
        61           H   tau(  61) = (   0.0290492   0.6438591   0.6626884  )
        62           H   tau(  62) = (   0.2907535   0.3580349   0.2539083  )
        63           H   tau(  63) = (   0.4564147   0.4939330   0.5533319  )
        64           H   tau(  64) = (   0.2157623   0.5059201   0.1439924  )
        65           H   tau(  65) = (   0.7290596   1.0009978   0.3640502  )
        66           H   tau(  66) = (   0.9693669   0.0026958   0.7751545  )
        67           H   tau(  67) = (   0.5198044   1.0002267   0.5533467  )
        68           H   tau(  68) = (   0.7791988   1.0000865   0.1418054  )
        69           H   tau(  69) = (   0.7505234   0.5016080   0.3691185  )
        70           H   tau(  70) = (   0.4913416   0.5011092   0.7809458  )
        71           H   tau(  71) = (   0.8118554   0.6514319   0.4868937  )
        72           H   tau(  72) = (   0.5732386   0.3533532   0.0780726  )
        73           H   tau(  73) = (   0.6594426   0.8563401   0.4835457  )
        74           H   tau(  74) = (   0.9206861   0.1479423   0.0738480  )
        75           H   tau(  75) = (   0.9386511   0.8563902   0.6644572  )
        76           H   tau(  76) = (   0.7006201   0.1433067   0.2536997  )
        77           H   tau(  77) = (   0.5290492   0.6438591   0.6626884  )
        78           H   tau(  78) = (   0.7907535   0.3580349   0.2539083  )
        79           H   tau(  79) = (   0.9564147   0.4939330   0.5533319  )
        80           H   tau(  80) = (   0.7157623   0.5059201   0.1439924  )
        81           N   tau(  81) = (   0.2956096   0.8524646   0.5790685  )
        82           N   tau(  82) = (   0.0569790   0.1490689   0.1692870  )
        83           N   tau(  83) = (   0.1736962   0.6512356   0.5798983  )
        84           N   tau(  84) = (   0.4350238   0.3514275   0.1709211  )
        85           N   tau(  85) = (   0.7956096   0.8524646   0.5790685  )
        86           N   tau(  86) = (   0.5569790   0.1490689   0.1692870  )
        87           N   tau(  87) = (   0.6736972   0.6512356   0.5798983  )
        88           N   tau(  88) = (   0.9350238   0.3514275   0.1709211  )
        89           Ni  tau(  89) = (   0.2317814   0.7525556   0.6871039  )
        90           Ni  tau(  90) = (   0.4937992   0.2483520   0.2786599  )
        91           Ni  tau(  91) = (   0.7317814   0.7525556   0.6871039  )
        92           Ni  tau(  92) = (   0.9937992   0.2483520   0.2786599  )
        93           O   tau(  93) = (   0.1158100   0.3481839   0.3145586  )
        94           O   tau(  94) = (   0.3551690   0.6519036   0.7240468  )
        95           O   tau(  95) = (   0.3707656   0.1477170   0.3098797  )
        96           O   tau(  96) = (   0.1091506   0.8535652   0.7199135  )
        97           O   tau(  97) = (   0.4642788   0.3566669   0.3968154  )
        98           O   tau(  98) = (   0.2033039   0.6423280   0.8050417  )
        99           O   tau(  99) = (   0.0200847   0.1353504   0.3952413  )
       100           O   tau( 100) = (   0.2588616   0.8639860   0.8046490  )
       101           O   tau( 101) = (   0.6158110   0.3481839   0.3145586  )
       102           O   tau( 102) = (   0.8551690   0.6519036   0.7240468  )
       103           O   tau( 103) = (   0.8707656   0.1477170   0.3098797  )
       104           O   tau( 104) = (   0.6091506   0.8535652   0.7199135  )
       105           O   tau( 105) = (   0.9642788   0.3566669   0.3968154  )
       106           O   tau( 106) = (   0.7033039   0.6423280   0.8050417  )
       107           O   tau( 107) = (   0.5200847   0.1353504   0.3952413  )
       108           O   tau( 108) = (   0.7588616   0.8639860   0.8046490  )

     number of k points=     1  Marzari-Vanderbilt smearing, width (Ry)=  0.2000
                       cart. coord. in units 2pi/alat
        k(    1) = (   0.0000000   0.0000000   0.0000000), wk =   1.0000000

     Dense  grid:   733509 G-vectors     FFT dimensions: ( 160, 160, 125)

     Estimated max dynamical RAM per process >     301.75 MB

     Estimated total dynamical RAM >       9.43 GB
     Generating pointlists ...
     new r_m :   0.0358 (alat units)  0.8461 (a.u.) for type    1
     new r_m :   0.0358 (alat units)  0.8461 (a.u.) for type    2
     new r_m :   0.0445 (alat units)  1.0514 (a.u.) for type    3
     new r_m :   0.0654 (alat units)  1.5454 (a.u.) for type    4
     new r_m :   0.0423 (alat units)  0.9991 (a.u.) for type    5

     Check: negative core charge=   -0.000145

     Initial potential from superposition of free atoms

     starting charge  399.99669, renormalised to  400.00000
     Starting wfcs are  356 randomized atomic wfcs

     total cpu time spent up to now is       38.1 secs

     Self-consistent Calculation

     iteration #  1     ecut=   100.00 Ry     beta= 0.70
     Davidson diagonalization with overlap
     ethr =  1.00E-02,  avg # of iterations =  4.0

     total cpu time spent up to now is      126.8 secs

     total energy              =   -1618.90170960 Ry
     Harris-Foulkes estimate   =   -1626.95078482 Ry
     estimated scf accuracy    <      20.62839972 Ry

     total magnetization       =     8.00 Bohr mag/cell
     absolute magnetization    =     8.76 Bohr mag/cell

     iteration #  2     ecut=   100.00 Ry     beta= 0.70
     Davidson diagonalization with overlap
     ethr =  5.16E-03,  avg # of iterations =  2.0

     total cpu time spent up to now is      183.7 secs

     total energy              =   -1622.38036609 Ry
     Harris-Foulkes estimate   =   -1626.40337879 Ry
     estimated scf accuracy    <      19.64437088 Ry

     total magnetization       =     8.00 Bohr mag/cell
     absolute magnetization    =     8.34 Bohr mag/cell

     iteration #  3     ecut=   100.00 Ry     beta= 0.70
     Davidson diagonalization with overlap
     ethr =  4.91E-03,  avg # of iterations =  1.0

     total cpu time spent up to now is      234.6 secs

     total energy              =   -1622.01586741 Ry
     Harris-Foulkes estimate   =   -1623.14928976 Ry
     estimated scf accuracy    <       3.67920537 Ry

     total magnetization       =     8.00 Bohr mag/cell
     absolute magnetization    =     8.23 Bohr mag/cell

     iteration #  4     ecut=   100.00 Ry     beta= 0.70
     Davidson diagonalization with overlap
     ethr =  9.20E-04,  avg # of iterations =  9.0

     total cpu time spent up to now is      301.9 secs

     total energy              =   -1622.02313790 Ry
     Harris-Foulkes estimate   =   -1623.16297600 Ry
     estimated scf accuracy    <       9.54836907 Ry

     total magnetization       =     8.00 Bohr mag/cell
     absolute magnetization    =     8.30 Bohr mag/cell

     iteration #  5     ecut=   100.00 Ry     beta= 0.70
     Davidson diagonalization with overlap
     ethr =  9.20E-04,  avg # of iterations =  1.0

     total cpu time spent up to now is      352.5 secs

     total energy              =   -1622.47634214 Ry
     Harris-Foulkes estimate   =   -1622.54262969 Ry
     estimated scf accuracy    <       0.27986541 Ry

     total magnetization       =     8.00 Bohr mag/cell
     absolute magnetization    =     8.26 Bohr mag/cell

     iteration #  6     ecut=   100.00 Ry     beta= 0.70
     Davidson diagonalization with overlap
     ethr =  7.00E-05,  avg # of iterations =  7.0

     total cpu time spent up to now is      415.3 secs

     total energy              =   -1622.49029110 Ry
     Harris-Foulkes estimate   =   -1622.54723493 Ry
     estimated scf accuracy    <       1.18019203 Ry

     total magnetization       =     8.00 Bohr mag/cell
     absolute magnetization    =     8.24 Bohr mag/cell

     iteration #  7     ecut=   100.00 Ry     beta= 0.70
     Davidson diagonalization with overlap
     ethr =  7.00E-05,  avg # of iterations =  1.0

     total cpu time spent up to now is      466.6 secs

     total energy              =   -1622.39578423 Ry
     Harris-Foulkes estimate   =   -1622.51739756 Ry
     estimated scf accuracy    <       0.74242423 Ry

     total magnetization       =     8.00 Bohr mag/cell
     absolute magnetization    =     8.25 Bohr mag/cell

     iteration #  8     ecut=   100.00 Ry     beta= 0.70
     Davidson diagonalization with overlap
     ethr =  7.00E-05,  avg # of iterations =  1.5

     total cpu time spent up to now is      518.3 secs

     total energy              =   -1622.45318565 Ry
     Harris-Foulkes estimate   =   -1622.47011742 Ry
     estimated scf accuracy    <       0.16312815 Ry

     total magnetization       =     8.00 Bohr mag/cell
     absolute magnetization    =     8.27 Bohr mag/cell

     iteration #  9     ecut=   100.00 Ry     beta= 0.70
     Davidson diagonalization with overlap
     ethr =  4.08E-05,  avg # of iterations =  1.5

     total cpu time spent up to now is      569.7 secs

     total energy              =   -1622.46340373 Ry
     Harris-Foulkes estimate   =   -1622.46558011 Ry
     estimated scf accuracy    <       0.05271426 Ry

     total magnetization       =     8.00 Bohr mag/cell
     absolute magnetization    =     8.25 Bohr mag/cell

     iteration # 10     ecut=   100.00 Ry     beta= 0.70
     Davidson diagonalization with overlap
     ethr =  1.32E-05,  avg # of iterations =  2.5

     total cpu time spent up to now is      621.7 secs

     total energy              =   -1622.46713031 Ry
     Harris-Foulkes estimate   =   -1622.46735466 Ry
     estimated scf accuracy    <       0.04785878 Ry

     total magnetization       =     8.00 Bohr mag/cell
     absolute magnetization    =     8.24 Bohr mag/cell

     iteration # 11     ecut=   100.00 Ry     beta= 0.70
     Davidson diagonalization with overlap
     ethr =  1.20E-05,  avg # of iterations =  4.0

     total cpu time spent up to now is      674.9 secs

     total energy              =   -1622.46977683 Ry
     Harris-Foulkes estimate   =   -1622.46871158 Ry
     estimated scf accuracy    <       0.01068274 Ry

     total magnetization       =     8.00 Bohr mag/cell
     absolute magnetization    =     8.23 Bohr mag/cell

     iteration # 12     ecut=   100.00 Ry     beta= 0.70
     Davidson diagonalization with overlap
     ethr =  2.67E-06,  avg # of iterations =  5.0

     total cpu time spent up to now is      733.6 secs

     total energy              =   -1622.47121162 Ry
     Harris-Foulkes estimate   =   -1622.47046808 Ry
     estimated scf accuracy    <       0.00129363 Ry

     total magnetization       =     8.00 Bohr mag/cell
     absolute magnetization    =     8.22 Bohr mag/cell

     iteration # 13     ecut=   100.00 Ry     beta= 0.70
     Davidson diagonalization with overlap
     ethr =  3.23E-07,  avg # of iterations =  3.5

     total cpu time spent up to now is      789.9 secs

     total energy              =   -1622.47140257 Ry
     Harris-Foulkes estimate   =   -1622.47131190 Ry
     estimated scf accuracy    <       0.00105461 Ry

     total magnetization       =     8.00 Bohr mag/cell
     absolute magnetization    =     8.22 Bohr mag/cell

     iteration # 14     ecut=   100.00 Ry     beta= 0.70
     Davidson diagonalization with overlap
     ethr =  2.64E-07,  avg # of iterations =  2.0

     total cpu time spent up to now is      841.7 secs

     total energy              =   -1622.47167494 Ry
     Harris-Foulkes estimate   =   -1622.47156633 Ry
     estimated scf accuracy    <       0.00214001 Ry

     total magnetization       =     8.00 Bohr mag/cell
     absolute magnetization    =     8.22 Bohr mag/cell

     iteration # 15     ecut=   100.00 Ry     beta= 0.70
     Davidson diagonalization with overlap
     ethr =  2.64E-07,  avg # of iterations =  2.5

     total cpu time spent up to now is      893.8 secs

     total energy              =   -1622.47181960 Ry
     Harris-Foulkes estimate   =   -1622.47176319 Ry
     estimated scf accuracy    <       0.00015264 Ry

     total magnetization       =     8.00 Bohr mag/cell
     absolute magnetization    =     8.22 Bohr mag/cell

     iteration # 16     ecut=   100.00 Ry     beta= 0.70
     Davidson diagonalization with overlap
     ethr =  3.82E-08,  avg # of iterations =  3.5

     total cpu time spent up to now is      948.7 secs

     total energy              =   -1622.47182780 Ry
     Harris-Foulkes estimate   =   -1622.47183692 Ry
     estimated scf accuracy    <       0.00018277 Ry

     total magnetization       =     8.00 Bohr mag/cell
     absolute magnetization    =     8.22 Bohr mag/cell

     iteration # 17     ecut=   100.00 Ry     beta= 0.70
     Davidson diagonalization with overlap
     ethr =  3.82E-08,  avg # of iterations =  1.0

     total cpu time spent up to now is      999.8 secs

     total energy              =   -1622.47184679 Ry
     Harris-Foulkes estimate   =   -1622.47183862 Ry
     estimated scf accuracy    <       0.00006040 Ry

     total magnetization       =     8.00 Bohr mag/cell
     absolute magnetization    =     8.22 Bohr mag/cell

     iteration # 18     ecut=   100.00 Ry     beta= 0.70
     Davidson diagonalization with overlap
     ethr =  1.51E-08,  avg # of iterations =  2.0

     total cpu time spent up to now is     1052.0 secs

     total energy              =   -1622.47185180 Ry
     Harris-Foulkes estimate   =   -1622.47184946 Ry
     estimated scf accuracy    <       0.00001260 Ry

     total magnetization       =     8.00 Bohr mag/cell
     absolute magnetization    =     8.22 Bohr mag/cell

     iteration # 19     ecut=   100.00 Ry     beta= 0.70
     Davidson diagonalization with overlap
     ethr =  3.15E-09,  avg # of iterations =  3.5

     total cpu time spent up to now is     1106.6 secs

     total energy              =   -1622.47185283 Ry
     Harris-Foulkes estimate   =   -1622.47185276 Ry
     estimated scf accuracy    <       0.00001103 Ry

     total magnetization       =     8.00 Bohr mag/cell
     absolute magnetization    =     8.22 Bohr mag/cell

     iteration # 20     ecut=   100.00 Ry     beta= 0.70
     Davidson diagonalization with overlap
     ethr =  2.76E-09,  avg # of iterations =  2.0

     total cpu time spent up to now is     1156.9 secs

     total energy              =   -1622.47185290 Ry
     Harris-Foulkes estimate   =   -1622.47185363 Ry
     estimated scf accuracy    <       0.00000903 Ry

     total magnetization       =     8.00 Bohr mag/cell
     absolute magnetization    =     8.22 Bohr mag/cell

     iteration # 21     ecut=   100.00 Ry     beta= 0.70
     Davidson diagonalization with overlap
     ethr =  2.26E-09,  avg # of iterations =  2.0

     total cpu time spent up to now is     1207.7 secs

     total energy              =   -1622.47185406 Ry
     Harris-Foulkes estimate   =   -1622.47185391 Ry
     estimated scf accuracy    <       0.00000773 Ry

     total magnetization       =     8.00 Bohr mag/cell
     absolute magnetization    =     8.22 Bohr mag/cell

     iteration # 22     ecut=   100.00 Ry     beta= 0.70
     Davidson diagonalization with overlap
     ethr =  1.93E-09,  avg # of iterations =  1.5
 
     Magnetic moment per site:
     atom:    1    charge:    0.8452    magn:    0.0068    constr:    0.0000
     atom:    2    charge:    0.8456    magn:    0.0068    constr:    0.0000
     atom:    3    charge:    0.8469    magn:    0.0050    constr:    0.0000
     atom:    4    charge:    0.8465    magn:    0.0049    constr:    0.0000
     atom:    5    charge:    0.8456    magn:    0.0069    constr:    0.0000
     atom:    6    charge:    0.8469    magn:    0.0070    constr:    0.0000
     atom:    7    charge:    0.8467    magn:    0.0066    constr:    0.0000
     atom:    8    charge:    0.8457    magn:    0.0067    constr:    0.0000
     atom:    9    charge:    0.8376    magn:    0.0059    constr:    0.0000
     atom:   10    charge:    0.8368    magn:    0.0059    constr:    0.0000
     atom:   11    charge:    0.8374    magn:    0.0059    constr:    0.0000
     atom:   12    charge:    0.8372    magn:    0.0060    constr:    0.0000
     atom:   13    charge:    0.8398    magn:    0.0060    constr:    0.0000
     atom:   14    charge:    0.8391    magn:    0.0060    constr:    0.0000
     atom:   15    charge:    0.8393    magn:    0.0060    constr:    0.0000
     atom:   16    charge:    0.8391    magn:    0.0059    constr:    0.0000
     atom:   17    charge:    0.8460    magn:    0.0068    constr:    0.0000
     atom:   18    charge:    0.8457    magn:    0.0069    constr:    0.0000
     atom:   19    charge:    0.8488    magn:    0.0050    constr:    0.0000
     atom:   20    charge:    0.8464    magn:    0.0050    constr:    0.0000
     atom:   21    charge:    0.8223    magn:   -0.0020    constr:    0.0000
     atom:   22    charge:    0.8231    magn:   -0.0020    constr:    0.0000
     atom:   23    charge:    0.8229    magn:   -0.0019    constr:    0.0000
     atom:   24    charge:    0.8236    magn:   -0.0021    constr:    0.0000
     atom:   25    charge:    0.8452    magn:    0.0068    constr:    0.0000
     atom:   26    charge:    0.8456    magn:    0.0068    constr:    0.0000
     atom:   27    charge:    0.8469    magn:    0.0050    constr:    0.0000
     atom:   28    charge:    0.8464    magn:    0.0049    constr:    0.0000
     atom:   29    charge:    0.8456    magn:    0.0069    constr:    0.0000
     atom:   30    charge:    0.8469    magn:    0.0070    constr:    0.0000
     atom:   31    charge:    0.8467    magn:    0.0066    constr:    0.0000
     atom:   32    charge:    0.8457    magn:    0.0067    constr:    0.0000
     atom:   33    charge:    0.8376    magn:    0.0059    constr:    0.0000
     atom:   34    charge:    0.8368    magn:    0.0059    constr:    0.0000
     atom:   35    charge:    0.8374    magn:    0.0059    constr:    0.0000
     atom:   36    charge:    0.8372    magn:    0.0060    constr:    0.0000
     atom:   37    charge:    0.8398    magn:    0.0060    constr:    0.0000
     atom:   38    charge:    0.8391    magn:    0.0060    constr:    0.0000
     atom:   39    charge:    0.8393    magn:    0.0060    constr:    0.0000
     atom:   40    charge:    0.8391    magn:    0.0059    constr:    0.0000
     atom:   41    charge:    0.8460    magn:    0.0068    constr:    0.0000
     atom:   42    charge:    0.8457    magn:    0.0069    constr:    0.0000
     atom:   43    charge:    0.8488    magn:    0.0050    constr:    0.0000
     atom:   44    charge:    0.8463    magn:    0.0050    constr:    0.0000
     atom:   45    charge:    0.8223    magn:   -0.0020    constr:    0.0000
     atom:   46    charge:    0.8231    magn:   -0.0020    constr:    0.0000
     atom:   47    charge:    0.8229    magn:   -0.0019    constr:    0.0000
     atom:   48    charge:    0.8236    magn:   -0.0021    constr:    0.0000
     atom:   49    charge:    0.4887    magn:   -0.0011    constr:    0.0000
     atom:   50    charge:    0.4882    magn:   -0.0011    constr:    0.0000
     atom:   51    charge:    0.4878    magn:   -0.0011    constr:    0.0000
     atom:   52    charge:    0.4881    magn:   -0.0011    constr:    0.0000
     atom:   53    charge:    0.4881    magn:   -0.0011    constr:    0.0000
     atom:   54    charge:    0.4888    magn:   -0.0011    constr:    0.0000
     atom:   55    charge:    0.4907    magn:   -0.0008    constr:    0.0000
     atom:   56    charge:    0.4907    magn:   -0.0008    constr:    0.0000
     atom:   57    charge:    0.4905    magn:   -0.0008    constr:    0.0000
     atom:   58    charge:    0.4912    magn:   -0.0008    constr:    0.0000
     atom:   59    charge:    0.4873    magn:   -0.0004    constr:    0.0000
     atom:   60    charge:    0.4868    magn:   -0.0004    constr:    0.0000
     atom:   61    charge:    0.4868    magn:   -0.0005    constr:    0.0000
     atom:   62    charge:    0.4868    magn:   -0.0005    constr:    0.0000
     atom:   63    charge:    0.4879    magn:   -0.0011    constr:    0.0000
     atom:   64    charge:    0.4882    magn:   -0.0011    constr:    0.0000
     atom:   65    charge:    0.4887    magn:   -0.0011    constr:    0.0000
     atom:   66    charge:    0.4882    magn:   -0.0011    constr:    0.0000
     atom:   67    charge:    0.4878    magn:   -0.0011    constr:    0.0000
     atom:   68    charge:    0.4881    magn:   -0.0011    constr:    0.0000
     atom:   69    charge:    0.4881    magn:   -0.0011    constr:    0.0000
     atom:   70    charge:    0.4888    magn:   -0.0011    constr:    0.0000
     atom:   71    charge:    0.4907    magn:   -0.0008    constr:    0.0000
     atom:   72    charge:    0.4907    magn:   -0.0008    constr:    0.0000
     atom:   73    charge:    0.4905    magn:   -0.0008    constr:    0.0000
     atom:   74    charge:    0.4912    magn:   -0.0008    constr:    0.0000
     atom:   75    charge:    0.4873    magn:   -0.0004    constr:    0.0000
     atom:   76    charge:    0.4868    magn:   -0.0004    constr:    0.0000
     atom:   77    charge:    0.4868    magn:   -0.0005    constr:    0.0000
     atom:   78    charge:    0.4868    magn:   -0.0005    constr:    0.0000
     atom:   79    charge:    0.4879    magn:   -0.0011    constr:    0.0000
     atom:   80    charge:    0.4882    magn:   -0.0011    constr:    0.0000
     atom:   81    charge:    2.4469    magn:    0.0164    constr:    0.0000
     atom:   82    charge:    2.4467    magn:    0.0165    constr:    0.0000
     atom:   83    charge:    2.4499    magn:    0.0160    constr:    0.0000
     atom:   84    charge:    2.4469    magn:    0.0165    constr:    0.0000
     atom:   85    charge:    2.4469    magn:    0.0164    constr:    0.0000
     atom:   86    charge:    2.4467    magn:    0.0165    constr:    0.0000
     atom:   87    charge:    2.4499    magn:    0.0160    constr:    0.0000
     atom:   88    charge:    2.4469    magn:    0.0165    constr:    0.0000
     atom:   89    charge:    7.4293    magn:    1.1428    constr:    0.0000
     atom:   90    charge:    7.4286    magn:    1.1408    constr:    0.0000
     atom:   91    charge:    7.4294    magn:    1.1428    constr:    0.0000
     atom:   92    charge:    7.4283    magn:    1.1409    constr:    0.0000
     atom:   93    charge:    3.2578    magn:    0.0622    constr:    0.0000
     atom:   94    charge:    3.2565    magn:    0.0642    constr:    0.0000
     atom:   95    charge:    3.2583    magn:    0.0629    constr:    0.0000
     atom:   96    charge:    3.2553    magn:    0.0632    constr:    0.0000
     atom:   97    charge:    3.2552    magn:    0.0636    constr:    0.0000
     atom:   98    charge:    3.2561    magn:    0.0655    constr:    0.0000
     atom:   99    charge:    3.2571    magn:    0.0654    constr:    0.0000
     atom:  100    charge:    3.2547    magn:    0.0650    constr:    0.0000
     atom:  101    charge:    3.2578    magn:    0.0622    constr:    0.0000
     atom:  102    charge:    3.2565    magn:    0.0642    constr:    0.0000
     atom:  103    charge:    3.2583    magn:    0.0629    constr:    0.0000
     atom:  104    charge:    3.2553    magn:    0.0632    constr:    0.0000
     atom:  105    charge:    3.2552    magn:    0.0636    constr:    0.0000
     atom:  106    charge:    3.2561    magn:    0.0655    constr:    0.0000
     atom:  107    charge:    3.2571    magn:    0.0654    constr:    0.0000
     atom:  108    charge:    3.2547    magn:    0.0650    constr:    0.0000

     total cpu time spent up to now is     1257.6 secs

     End of self-consistent calculation

 ------ SPIN UP ------------


          k = 0.0000 0.0000 0.0000 ( 91663 PWs)   bands (ev):

   -22.5764 -22.5741 -22.5671 -22.5651 -22.4459 -22.4455 -22.4400 -22.4400
   -19.5493 -19.5486 -19.5332 -19.5331 -19.5314 -19.5258 -19.5228 -19.5161
   -19.2513 -19.2448 -19.2294 -19.2292 -19.1418 -19.1393 -19.1289 -19.1286
   -15.5082 -15.4604 -15.4532 -15.4344 -15.4233 -15.4206 -15.4176 -15.3980
   -14.1951 -14.1855 -14.1770 -14.1603 -14.1513 -14.1435 -14.1310 -14.0815
   -11.7768 -11.6856 -11.6740 -11.6418 -11.6188 -11.6005 -11.5953 -11.5941
   -11.0490 -11.0216 -11.0132 -11.0018 -11.0003 -10.9586 -10.9515 -10.9312
    -9.3924  -9.1899  -9.1835  -9.1596  -9.1449  -9.0787  -9.0666  -9.0617
    -8.3012  -7.9149  -7.9020  -7.8376  -7.7273  -7.7260  -7.7208  -7.6922
    -7.5449  -7.5024  -7.5015  -7.4863  -7.4846  -7.4580  -7.4555  -7.4016
    -6.9085  -6.8401  -6.8303  -6.7230  -6.7077  -6.6826  -6.6741  -6.6698
    -6.6209  -6.6163  -6.6120  -6.5910  -6.5832  -6.5734  -6.4532  -6.4427
    -6.4315  -6.3893  -6.3418  -6.3375  -6.3195  -6.3170  -6.2758  -6.2714
    -6.2482  -6.2341  -6.2197  -6.1598  -6.1338  -6.0485  -6.0387  -5.9289
    -5.6607  -5.5972  -5.5848  -5.5737  -5.5480  -5.5412  -5.5359  -5.4756
    -5.3889  -5.3782  -5.2744  -5.2606  -5.2507  -5.2357  -5.2025  -4.9983
    -4.7211  -4.5985  -4.5780  -4.5616  -4.2337  -4.1404  -4.1308  -4.0725
    -4.0137  -3.9338  -3.9233  -3.9086  -3.8912  -3.8036  -3.7898  -3.7791
    -3.6329  -3.6248  -3.6216  -3.5575  -3.5515  -3.5312  -3.3422  -3.3309
    -3.2622  -3.2549  -3.2342  -3.2285  -3.1966  -3.1864  -3.0847  -3.0716
    -2.9640  -2.9394  -2.9265  -2.6961  -2.6078  -2.5971  -2.5917  -2.5221
    -2.4995  -2.4945  -2.4860  -2.3845  -2.3741  -2.3575  -2.3383  -2.3374
    -2.2985  -2.2909  -2.2110  -2.1955  -2.1773  -2.1548  -2.1511  -2.1174
    -2.1111  -2.0691  -2.0383  -2.0284  -2.0078  -1.9573  -1.8985  -1.8886
    -1.8826  -1.8585  -1.8525  -1.7925  -0.3649  -0.3265  -0.2996  -0.2508
    -0.0138   0.0113   0.0230   0.0431   1.8233   1.8331   1.8979   1.9037
     1.9066   1.9226   1.9476   2.0318   2.9644   3.0220   3.0226   3.1107
     3.1505   3.1531   3.2468   3.4278   3.5261   4.2377   4.3222   4.3297
     4.4068   4.4414   4.4477   4.4714   4.5856   4.5899   4.6284   4.6461
     4.9849   5.1816   5.1860   5.3037   5.3053   5.3460   5.6412   5.7280
     5.9056   5.9082   5.9216   6.0755   6.2952

 ------ SPIN DOWN ----------


          k = 0.0000 0.0000 0.0000 ( 91663 PWs)   bands (ev):

   -22.4579 -22.4556 -22.4470 -22.4449 -22.3279 -22.3276 -22.3206 -22.3205
   -19.3976 -19.3967 -19.3784 -19.3782 -19.3782 -19.3726 -19.3689 -19.3615
   -19.2107 -19.2044 -19.1888 -19.1886 -19.1018 -19.0983 -19.0886 -19.0878
   -15.4646 -15.4168 -15.4093 -15.3916 -15.3801 -15.3773 -15.3743 -15.3538
   -14.1507 -14.1409 -14.1324 -14.1155 -14.1064 -14.0986 -14.0861 -14.0363
   -11.7257 -11.6345 -11.6227 -11.5948 -11.5687 -11.5536 -11.5489 -11.5471
   -11.0132 -10.9861 -10.9778 -10.9671 -10.9647 -10.9238 -10.9168 -10.8971
    -9.3563  -9.1535  -9.1470  -9.1245  -9.1138  -9.0460  -9.0336  -9.0284
    -8.2263  -7.8353  -7.8222  -7.7519  -7.6673  -7.6491  -7.6457  -7.6123
    -7.4818  -7.4446  -7.4406  -7.4299  -7.3999  -7.3889  -7.3860  -7.3533
    -6.7782  -6.7066  -6.6970  -6.6195  -6.6117  -6.6017  -6.5617  -6.5297
    -6.5040  -6.4996  -6.4969  -6.4828  -6.4791  -6.4771  -6.4197  -6.4115
    -6.3536  -6.3261  -6.2905  -6.2729  -6.2399  -6.2373  -6.1566  -6.1491
    -6.1451  -6.1415  -6.1208  -6.0587  -6.0303  -5.9557  -5.9462  -5.8324
    -5.5753  -5.5696  -5.5429  -5.5313  -5.5260  -5.4909  -5.4851  -5.3985
    -5.2925  -5.2817  -5.2421  -5.2065  -5.1775  -5.1678  -5.1101  -4.9050
    -4.5690  -4.2635  -4.2390  -4.0310  -4.0260  -3.9931  -3.9247  -3.9158
    -3.9098  -3.8834  -3.8508  -3.8342  -3.7093  -3.5366  -3.5362  -3.5286
    -3.4011  -3.3746  -3.3634  -3.2916  -3.1325  -3.1005  -2.9509  -2.9360
    -2.8454  -2.8018  -2.7923  -2.7900  -2.7299  -2.7233  -2.7146  -2.7068
    -2.6231  -2.5816  -2.5618  -2.4041  -2.3556  -2.3534  -2.3437  -2.3271
    -2.3159  -2.2593  -2.1724  -2.1609  -2.0863  -2.0692  -2.0146  -1.9818
    -1.9039  -1.8629  -1.8514  -1.8103  -1.8034  -1.7654  -1.7591  -1.7060
    -1.6553  -1.4594  -1.4488  -1.3357  -1.3236  -1.3178  -1.3089  -1.3087
    -1.3011  -1.2287  -1.2206  -1.1784   0.4300   0.4630   0.4855   0.5186
     0.6997   0.7391   0.7455   0.7579   1.9324   1.9416   2.0121   2.0186
     2.0238   2.0446   2.0869   2.1401   3.0610   3.1193   3.1201   3.2097
     3.2487   3.2511   3.3466   3.5317   3.5615   4.2905   4.3624   4.3693
     4.4793   4.5174   4.5228   4.5324   4.6666   4.6705   4.7118   4.7230
     5.0360   5.2193   5.2225   5.3424   5.3438   5.3935   5.6767   5.7626
     5.9396   5.9447   5.9558   6.1336   6.3322

     the spin up/dw Fermi energies are     0.1864   -0.1731 ev

!    total energy              =   -1622.47185422 Ry
     Harris-Foulkes estimate   =   -1622.47185448 Ry
     estimated scf accuracy    <       0.00000093 Ry

     The total energy is the sum of the following terms:

     one-electron contribution =   -2437.57299425 Ry
     hartree contribution      =    1359.65174981 Ry
     xc contribution           =    -492.88629982 Ry
     ewald contribution        =     -53.94679134 Ry
     Dispersion Correction     =      -0.41717636 Ry
     smearing contrib. (-TS)   =       2.69965773 Ry

     total magnetization       =     8.00 Bohr mag/cell
     absolute magnetization    =     8.22 Bohr mag/cell

     convergence has been achieved in  22 iterations

     Forces acting on atoms (cartesian axes, Ry/au):

     atom    1 type  1   force =    -0.00035757    0.00072826    0.00053203
     atom    2 type  1   force =    -0.00026545   -0.00067162    0.00087509
     atom    3 type  1   force =    -0.00026290    0.00067581    0.00030258
     atom    4 type  1   force =     0.00050196   -0.00068450    0.00080171
     atom    5 type  1   force =    -0.00210353   -0.00254175   -0.00280947
     atom    6 type  1   force =    -0.00344481    0.00279535   -0.00301814
     atom    7 type  1   force =     0.00020385   -0.00033857    0.00200454
     atom    8 type  1   force =     0.00072706    0.00063727    0.00074200
     atom    9 type  1   force =    -0.00308392   -0.00254833    0.00201716
     atom   10 type  1   force =    -0.00298165    0.00185396    0.00243997
     atom   11 type  1   force =     0.00243821    0.00202852    0.00248314
     atom   12 type  1   force =     0.00283670   -0.00219331    0.00225761
     atom   13 type  1   force =     0.00041274   -0.00137807    0.00073521
     atom   14 type  1   force =     0.00056126    0.00099431    0.00048659
     atom   15 type  1   force =    -0.00128572   -0.00011497   -0.00044455
     atom   16 type  1   force =    -0.00150231   -0.00061365    0.00003110
     atom   17 type  1   force =     0.00360157    0.00193461   -0.00305583
     atom   18 type  1   force =     0.00269060   -0.00210666   -0.00330953
     atom   19 type  1   force =    -0.00082562   -0.00061071   -0.00015137
     atom   20 type  1   force =    -0.00042706    0.00039441   -0.00004574
     atom   21 type  1   force =    -0.00121795    0.00179921    0.00001816
     atom   22 type  1   force =    -0.00153299   -0.00096160    0.00025389
     atom   23 type  1   force =     0.00170743   -0.00022621   -0.00037800
     atom   24 type  1   force =     0.00045436    0.00092701    0.00050383
     atom   25 type  1   force =    -0.00035824    0.00072781    0.00053121
     atom   26 type  1   force =    -0.00026638   -0.00067108    0.00087679
     atom   27 type  1   force =    -0.00026299    0.00067752    0.00030180
     atom   28 type  1   force =     0.00050423   -0.00068620    0.00080173
     atom   29 type  1   force =    -0.00208860   -0.00253708   -0.00280652
     atom   30 type  1   force =    -0.00345096    0.00279687   -0.00301797
     atom   31 type  1   force =     0.00017506   -0.00034600    0.00201071
     atom   32 type  1   force =     0.00069896    0.00064260    0.00075078
     atom   33 type  1   force =    -0.00306992   -0.00254573    0.00201389
     atom   34 type  1   force =    -0.00297576    0.00185166    0.00244089
     atom   35 type  1   force =     0.00243781    0.00202844    0.00248280
     atom   36 type  1   force =     0.00283315   -0.00219450    0.00225360
     atom   37 type  1   force =     0.00041219   -0.00137911    0.00073707
     atom   38 type  1   force =     0.00059298    0.00099263    0.00049999
     atom   39 type  1   force =    -0.00127307   -0.00011019   -0.00044493
     atom   40 type  1   force =    -0.00150197   -0.00061348    0.00003047
     atom   41 type  1   force =     0.00360473    0.00193790   -0.00305504
     atom   42 type  1   force =     0.00269223   -0.00210675   -0.00331083
     atom   43 type  1   force =    -0.00081830   -0.00060592   -0.00015471
     atom   44 type  1   force =    -0.00041468    0.00039187   -0.00004742
     atom   45 type  1   force =    -0.00121913    0.00179426    0.00002117
     atom   46 type  1   force =    -0.00153679   -0.00095908    0.00025379
     atom   47 type  1   force =     0.00174308   -0.00022518   -0.00038854
     atom   48 type  1   force =     0.00045588    0.00092647    0.00050208
     atom   49 type  2   force =    -0.00047831    0.00020283   -0.00050673
     atom   50 type  2   force =    -0.00006310   -0.00029775   -0.00048784
     atom   51 type  2   force =    -0.00013691    0.00056241   -0.00052929
     atom   52 type  2   force =     0.00018018   -0.00068776   -0.00093284
     atom   53 type  2   force =    -0.00011926   -0.00028313   -0.00059835
     atom   54 type  2   force =     0.00066223    0.00045745   -0.00089534
     atom   55 type  2   force =    -0.00015528    0.00012468    0.00129905
     atom   56 type  2   force =     0.00006717   -0.00052519    0.00094531
     atom   57 type  2   force =    -0.00050539    0.00002325    0.00030535
     atom   58 type  2   force =    -0.00029001   -0.00052878    0.00057684
     atom   59 type  2   force =    -0.00079770   -0.00005088    0.00033165
     atom   60 type  2   force =    -0.00129743   -0.00035080   -0.00035228
     atom   61 type  2   force =     0.00132902    0.00017240    0.00008140
     atom   62 type  2   force =     0.00034270    0.00018723    0.00000144
     atom   63 type  2   force =    -0.00065664   -0.00060686   -0.00154489
     atom   64 type  2   force =    -0.00096470    0.00138185   -0.00178547
     atom   65 type  2   force =    -0.00047835    0.00020295   -0.00050678
     atom   66 type  2   force =    -0.00006306   -0.00029789   -0.00048806
     atom   67 type  2   force =    -0.00012212    0.00056727   -0.00052597
     atom   68 type  2   force =     0.00017993   -0.00068666   -0.00093203
     atom   69 type  2   force =    -0.00011183   -0.00028545   -0.00060458
     atom   70 type  2   force =     0.00065472    0.00045508   -0.00088907
     atom   71 type  2   force =    -0.00015457    0.00012506    0.00129856
     atom   72 type  2   force =     0.00006723   -0.00052438    0.00094473
     atom   73 type  2   force =    -0.00050551    0.00002305    0.00030548
     atom   74 type  2   force =    -0.00029011   -0.00052900    0.00057678
     atom   75 type  2   force =    -0.00079760   -0.00005084    0.00033165
     atom   76 type  2   force =    -0.00130925   -0.00035548   -0.00036315
     atom   77 type  2   force =     0.00132996    0.00017288    0.00008132
     atom   78 type  2   force =     0.00034276    0.00018740    0.00000133
     atom   79 type  2   force =    -0.00065651   -0.00060702   -0.00154493
     atom   80 type  2   force =    -0.00096460    0.00138183   -0.00178563
     atom   81 type  3   force =    -0.00092668   -0.00233222    0.00094197
     atom   82 type  3   force =    -0.00115960    0.00274011    0.00042905
     atom   83 type  3   force =    -0.00048197    0.00295381   -0.00068969
     atom   84 type  3   force =     0.00046318   -0.00276589    0.00007118
     atom   85 type  3   force =    -0.00092777   -0.00233094    0.00094051
     atom   86 type  3   force =    -0.00117078    0.00274371    0.00042943
     atom   87 type  3   force =    -0.00050592    0.00295046   -0.00068223
     atom   88 type  3   force =     0.00046404   -0.00276824    0.00007078
     atom   89 type  4   force =     0.00957718   -0.00112314    0.00204060
     atom   90 type  4   force =     0.00122073   -0.00046135   -0.00001833
     atom   91 type  4   force =     0.00957294   -0.00111873    0.00203089
     atom   92 type  4   force =     0.00121366   -0.00046611    0.00000224
     atom   93 type  5   force =    -0.00082272    0.00018532    0.00087631
     atom   94 type  5   force =     0.00003815    0.00039035    0.00113474
     atom   95 type  5   force =     0.00065560    0.00010008    0.00079032
     atom   96 type  5   force =     0.00039343    0.00066043    0.00049275
     atom   97 type  5   force =    -0.00207541   -0.00018230   -0.00154509
     atom   98 type  5   force =    -0.00188283    0.00001548   -0.00077136
     atom   99 type  5   force =     0.00020066   -0.00026943   -0.00175082
     atom  100 type  5   force =     0.00083445    0.00052146   -0.00118991
     atom  101 type  5   force =    -0.00084591    0.00019268    0.00089034
     atom  102 type  5   force =     0.00003733    0.00039134    0.00113312
     atom  103 type  5   force =     0.00064917    0.00009896    0.00078662
     atom  104 type  5   force =     0.00039238    0.00065745    0.00048922
     atom  105 type  5   force =    -0.00206277   -0.00018077   -0.00154762
     atom  106 type  5   force =    -0.00188657    0.00001542   -0.00077243
     atom  107 type  5   force =     0.00020121   -0.00026274   -0.00175381
     atom  108 type  5   force =     0.00083936    0.00051856   -0.00119124

     Total force =     0.027471     Total SCF correction =     0.002183

     BFGS Geometry Optimization

     number of scf cycles    =   1
     number of bfgs steps    =   0

     energy   new            =   -1622.4718542242 Ry

     new trust radius        =       0.0098563652 bohr
     new conv_thr            =       0.0000010000 Ry


ATOMIC_POSITIONS (crystal)
C             0.2881973681        0.9700807727        0.5220114022
C             0.0383685879        0.0310776206        0.0223530717
C             0.3906231588        0.0117985563        0.5465075845
C             0.1402659922        0.9877150763        0.0461872923
C             0.4518233550        0.9700945982        0.6502262979
C             0.2023714031        0.0284711179        0.1497375505
C             0.2081915050        0.5296896935        0.5264872438
C             0.4585764613        0.4714359279        0.0279422168
C             0.2450083938        0.6132233202        0.6065388938
C             0.4966951181        0.3887553391        0.1087426707
C             0.2495815011        0.8892917154        0.6033308944
C             0.0011911519        0.1121393215        0.1043632781
C             0.4079951544        0.8893247696        0.7275898669
C             0.1599592061        0.1095890144        0.2278370618
C             0.0888071779        0.6089781421        0.7273291033
C             0.3408264585        0.3916070702        0.2293956016
C             0.0470745370        0.5251607471        0.6511546091
C             0.2977687513        0.4746219828        0.1525835427
C             0.1081289217        0.4842441945        0.5501082038
C             0.3578138861        0.5156726658        0.0506356441
C             0.4332584792        0.0993950259        0.4666219353
C             0.1814523692        0.8996793674        0.9656850765
C             0.0674498960        0.3944644415        0.4706565310
C             0.3160626986        0.6042111708        0.9691329496
C             0.7881973389        0.9700807536        0.5220113600
C             0.5383685498        0.0310776436        0.0223531590
C             0.8906231546        0.0117986285        0.5465075443
C             0.6402660879        0.9877150044        0.0461872934
C             0.9518239899        0.9700947957        0.6502264503
C             0.7023711428        0.0284711820        0.1497375595
C             0.7081912923        0.5296893796        0.5264875619
C             0.9585762805        0.4714361533        0.0279426691
C             0.7450089832        0.6132234302        0.6065387256
C             0.9966953681        0.3887552421        0.1087427179
C             0.7495814837        0.8892917120        0.6033308769
C             0.5011909976        0.1121392713        0.1043630719
C             0.9079951329        0.8893247257        0.7275899627
C             0.6599595607        0.1095889438        0.2278377519
C             0.5888077127        0.6089783437        0.7273290840
C             0.8408264723        0.3916070772        0.2293955693
C             0.5470746711        0.5251608860        0.6511546500
C             0.7977688190        0.4746219791        0.1525834758
C             0.6081292286        0.4842443966        0.5501080315
C             0.8578144083        0.5156725587        0.0506355579
C             0.9332584319        0.0993948166        0.4666220905
C             0.6814522081        0.8996794739        0.9656850713
C             0.5674503948        0.3944644850        0.4706559885
C             0.8160627613        0.6042111483        0.9691328598
H             0.2371032852        0.9995835704        0.4430869007
H             0.4865348725        0.0026794184        0.9434738738
H             0.0320567106        0.9988287645        0.6734927388
H             0.2823467498        0.9986359387        0.1725539541
H             0.2586943928        0.5008830365        0.4492511820
H             0.0086681833        0.5004163296        0.9505018856
H             0.3226356470        0.6505112683        0.5927019076
H             0.0749717286        0.3528288079        0.0950766880
H             0.1701329006        0.8551239824        0.5885757270
H             0.4223102691        0.1477096564        0.0899157101
H             0.4533365558        0.8551708501        0.8087780817
H             0.2061837689        0.1430881768        0.3087788559
H             0.0437853140        0.6429512848        0.8066121923
H             0.2963925030        0.3575339114        0.3090510742
H             0.4686427661        0.4932053573        0.6734224302
H             0.2189095049        0.5052593902        0.1751720393
H             0.7371032833        0.9995835757        0.4430868984
H             0.9865348741        0.0026794127        0.9434738627
H             0.5320563394        0.9988289699        0.6734929098
H             0.7823467401        0.9986359853        0.1725539955
H             0.7586947013        0.5008829384        0.4492508609
H             0.5086678711        0.5004162293        0.9505022086
H             0.8226356764        0.6505112844        0.5927018823
H             0.5749717305        0.3528288421        0.0950766582
H             0.6701328954        0.8551239740        0.5885757336
H             0.9223102646        0.1477096471        0.0899157073
H             0.9533365603        0.8551708516        0.8087780816
H             0.7061842584        0.1430879793        0.3087782961
H             0.5437853539        0.6429513053        0.8066121884
H             0.7963925051        0.3575339184        0.3090510684
H             0.9686427716        0.4932053502        0.6734224282
H             0.7189095090        0.5052593891        0.1751720311
N             0.3083986703        0.8511544517        0.7048765160
N             0.0606803335        0.1489727835        0.2060740982
N             0.1865209588        0.6504348134        0.7058024775
N             0.4388296663        0.3508111270        0.2080446664
N             0.8083986226        0.8511545060        0.7048764410
N             0.5606798605        0.1489729356        0.2060741176
N             0.6865209524        0.6504346721        0.7058028615
N             0.9388297022        0.3508110278        0.2080446457
Ni            0.2474091734        0.7514385415        0.8364311014
Ni            0.5000236385        0.2479795056        0.3391770560
Ni            0.7474089846        0.7514387280        0.8364306011
Ni            1.0000233582        0.2479793043        0.3391781156
O             0.1227440080        0.3476968309        0.3829181345
O             0.3712106781        0.6509934942        0.8813504451
O             0.3776584828        0.1475112288        0.3772187054
O             0.1251151098        0.8523799066        0.8762863790
O             0.4729797303        0.3561522970        0.4829144202
O             0.2210566048        0.6414156541        0.9798372713
O             0.0288468499        0.1351466153        0.4809878241
O             0.2767201944        0.8627800344        0.9793377135
O             0.6227440398        0.3476971416        0.3829188572
O             0.8712106418        0.6509935362        0.8813503616
O             0.8776582073        0.1475111817        0.3772185149
O             0.6251150624        0.8523797808        0.8762861972
O             0.9729802628        0.3561523617        0.4829142896
O             0.7210564452        0.6414156516        0.9798372160
O             0.5288468703        0.1351468980        0.4809876698
O             0.7767204011        0.8627799116        0.9793376452



     Writing output data file ./QE_relaxation_results/PBESOL_relax/NiPyC2_relax_sc211/NiPyC2_sc211_pbesol_relax.save/
     NEW-OLD atomic charge density approx. for the potential

     Check: negative core charge=   -0.000145

     total cpu time spent up to now is     1280.4 secs

     Self-consistent Calculation

     iteration #  1     ecut=   100.00 Ry     beta= 0.70
     Davidson diagonalization with overlap
     ethr =  1.00E-06,  avg # of iterations =  4.0

     total cpu time spent up to now is     1399.2 secs

     total energy              =   -1622.47205459 Ry
     Harris-Foulkes estimate   =   -1622.47182194 Ry
     estimated scf accuracy    <       0.00040133 Ry

     total magnetization       =     8.00 Bohr mag/cell
     absolute magnetization    =     8.22 Bohr mag/cell

     iteration #  2     ecut=   100.00 Ry     beta= 0.70
     Davidson diagonalization with overlap
     ethr =  1.00E-07,  avg # of iterations =  2.5

     total cpu time spent up to now is     1458.1 secs

     total energy              =   -1622.47206360 Ry
     Harris-Foulkes estimate   =   -1622.47223623 Ry
     estimated scf accuracy    <       0.00193082 Ry

     total magnetization       =     8.00 Bohr mag/cell
     absolute magnetization    =     8.22 Bohr mag/cell

     iteration #  3     ecut=   100.00 Ry     beta= 0.70
     Davidson diagonalization with overlap
     ethr =  1.00E-07,  avg # of iterations =  2.0

     total cpu time spent up to now is     1512.9 secs

     total energy              =   -1622.47225714 Ry
     Harris-Foulkes estimate   =   -1622.47219286 Ry
     estimated scf accuracy    <       0.00015174 Ry

     total magnetization       =     8.00 Bohr mag/cell
     absolute magnetization    =     8.22 Bohr mag/cell

     iteration #  4     ecut=   100.00 Ry     beta= 0.70
     Davidson diagonalization with overlap
     ethr =  3.79E-08,  avg # of iterations =  1.0

     total cpu time spent up to now is     1563.9 secs

     total energy              =   -1622.47229022 Ry
     Harris-Foulkes estimate   =   -1622.47227946 Ry
     estimated scf accuracy    <       0.00026360 Ry

     total magnetization       =     8.00 Bohr mag/cell
     absolute magnetization    =     8.22 Bohr mag/cell

     iteration #  5     ecut=   100.00 Ry     beta= 0.70
     Davidson diagonalization with overlap
     ethr =  3.79E-08,  avg # of iterations =  1.0

     total cpu time spent up to now is     1615.0 secs

     total energy              =   -1622.47230254 Ry
     Harris-Foulkes estimate   =   -1622.47230246 Ry
     estimated scf accuracy    <       0.00000466 Ry

     total magnetization       =     8.00 Bohr mag/cell
     absolute magnetization    =     8.22 Bohr mag/cell

     iteration #  6     ecut=   100.00 Ry     beta= 0.70
     Davidson diagonalization with overlap
     ethr =  1.17E-09,  avg # of iterations =  3.0
 
     Magnetic moment per site:
     atom:    1    charge:    0.8452    magn:    0.0068    constr:    0.0000
     atom:    2    charge:    0.8457    magn:    0.0068    constr:    0.0000
     atom:    3    charge:    0.8472    magn:    0.0050    constr:    0.0000
     atom:    4    charge:    0.8469    magn:    0.0050    constr:    0.0000
     atom:    5    charge:    0.8454    magn:    0.0069    constr:    0.0000
     atom:    6    charge:    0.8469    magn:    0.0070    constr:    0.0000
     atom:    7    charge:    0.8468    magn:    0.0067    constr:    0.0000
     atom:    8    charge:    0.8457    magn:    0.0068    constr:    0.0000
     atom:    9    charge:    0.8377    magn:    0.0059    constr:    0.0000
     atom:   10    charge:    0.8368    magn:    0.0059    constr:    0.0000
     atom:   11    charge:    0.8373    magn:    0.0059    constr:    0.0000
     atom:   12    charge:    0.8373    magn:    0.0059    constr:    0.0000
     atom:   13    charge:    0.8398    magn:    0.0061    constr:    0.0000
     atom:   14    charge:    0.8391    magn:    0.0061    constr:    0.0000
     atom:   15    charge:    0.8393    magn:    0.0060    constr:    0.0000
     atom:   16    charge:    0.8390    magn:    0.0060    constr:    0.0000
     atom:   17    charge:    0.8461    magn:    0.0068    constr:    0.0000
     atom:   18    charge:    0.8456    magn:    0.0069    constr:    0.0000
     atom:   19    charge:    0.8493    magn:    0.0049    constr:    0.0000
     atom:   20    charge:    0.8467    magn:    0.0050    constr:    0.0000
     atom:   21    charge:    0.8225    magn:   -0.0020    constr:    0.0000
     atom:   22    charge:    0.8232    magn:   -0.0020    constr:    0.0000
     atom:   23    charge:    0.8228    magn:   -0.0019    constr:    0.0000
     atom:   24    charge:    0.8235    magn:   -0.0021    constr:    0.0000
     atom:   25    charge:    0.8452    magn:    0.0068    constr:    0.0000
     atom:   26    charge:    0.8457    magn:    0.0068    constr:    0.0000
     atom:   27    charge:    0.8472    magn:    0.0050    constr:    0.0000
     atom:   28    charge:    0.8469    magn:    0.0050    constr:    0.0000
     atom:   29    charge:    0.8454    magn:    0.0069    constr:    0.0000
     atom:   30    charge:    0.8469    magn:    0.0070    constr:    0.0000
     atom:   31    charge:    0.8468    magn:    0.0067    constr:    0.0000
     atom:   32    charge:    0.8457    magn:    0.0067    constr:    0.0000
     atom:   33    charge:    0.8377    magn:    0.0059    constr:    0.0000
     atom:   34    charge:    0.8368    magn:    0.0059    constr:    0.0000
     atom:   35    charge:    0.8373    magn:    0.0059    constr:    0.0000
     atom:   36    charge:    0.8373    magn:    0.0059    constr:    0.0000
     atom:   37    charge:    0.8398    magn:    0.0061    constr:    0.0000
     atom:   38    charge:    0.8391    magn:    0.0061    constr:    0.0000
     atom:   39    charge:    0.8393    magn:    0.0060    constr:    0.0000
     atom:   40    charge:    0.8390    magn:    0.0060    constr:    0.0000
     atom:   41    charge:    0.8461    magn:    0.0068    constr:    0.0000
     atom:   42    charge:    0.8456    magn:    0.0069    constr:    0.0000
     atom:   43    charge:    0.8493    magn:    0.0049    constr:    0.0000
     atom:   44    charge:    0.8467    magn:    0.0050    constr:    0.0000
     atom:   45    charge:    0.8225    magn:   -0.0020    constr:    0.0000
     atom:   46    charge:    0.8232    magn:   -0.0020    constr:    0.0000
     atom:   47    charge:    0.8228    magn:   -0.0019    constr:    0.0000
     atom:   48    charge:    0.8235    magn:   -0.0021    constr:    0.0000
     atom:   49    charge:    0.4887    magn:   -0.0011    constr:    0.0000
     atom:   50    charge:    0.4881    magn:   -0.0011    constr:    0.0000
     atom:   51    charge:    0.4866    magn:   -0.0011    constr:    0.0000
     atom:   52    charge:    0.4865    magn:   -0.0011    constr:    0.0000
     atom:   53    charge:    0.4877    magn:   -0.0011    constr:    0.0000
     atom:   54    charge:    0.4888    magn:   -0.0011    constr:    0.0000
     atom:   55    charge:    0.4894    magn:   -0.0008    constr:    0.0000
     atom:   56    charge:    0.4895    magn:   -0.0008    constr:    0.0000
     atom:   57    charge:    0.4895    magn:   -0.0008    constr:    0.0000
     atom:   58    charge:    0.4900    magn:   -0.0008    constr:    0.0000
     atom:   59    charge:    0.4878    magn:   -0.0004    constr:    0.0000
     atom:   60    charge:    0.4872    magn:   -0.0004    constr:    0.0000
     atom:   61    charge:    0.4870    magn:   -0.0005    constr:    0.0000
     atom:   62    charge:    0.4872    magn:   -0.0005    constr:    0.0000
     atom:   63    charge:    0.4863    magn:   -0.0011    constr:    0.0000
     atom:   64    charge:    0.4869    magn:   -0.0011    constr:    0.0000
     atom:   65    charge:    0.4887    magn:   -0.0011    constr:    0.0000
     atom:   66    charge:    0.4881    magn:   -0.0011    constr:    0.0000
     atom:   67    charge:    0.4866    magn:   -0.0011    constr:    0.0000
     atom:   68    charge:    0.4865    magn:   -0.0011    constr:    0.0000
     atom:   69    charge:    0.4877    magn:   -0.0011    constr:    0.0000
     atom:   70    charge:    0.4888    magn:   -0.0011    constr:    0.0000
     atom:   71    charge:    0.4894    magn:   -0.0008    constr:    0.0000
     atom:   72    charge:    0.4895    magn:   -0.0008    constr:    0.0000
     atom:   73    charge:    0.4895    magn:   -0.0008    constr:    0.0000
     atom:   74    charge:    0.4900    magn:   -0.0008    constr:    0.0000
     atom:   75    charge:    0.4878    magn:   -0.0004    constr:    0.0000
     atom:   76    charge:    0.4872    magn:   -0.0004    constr:    0.0000
     atom:   77    charge:    0.4870    magn:   -0.0005    constr:    0.0000
     atom:   78    charge:    0.4872    magn:   -0.0005    constr:    0.0000
     atom:   79    charge:    0.4863    magn:   -0.0011    constr:    0.0000
     atom:   80    charge:    0.4869    magn:   -0.0011    constr:    0.0000
     atom:   81    charge:    2.4475    magn:    0.0164    constr:    0.0000
     atom:   82    charge:    2.4471    magn:    0.0165    constr:    0.0000
     atom:   83    charge:    2.4500    magn:    0.0161    constr:    0.0000
     atom:   84    charge:    2.4471    magn:    0.0165    constr:    0.0000
     atom:   85    charge:    2.4475    magn:    0.0164    constr:    0.0000
     atom:   86    charge:    2.4471    magn:    0.0165    constr:    0.0000
     atom:   87    charge:    2.4500    magn:    0.0161    constr:    0.0000
     atom:   88    charge:    2.4471    magn:    0.0165    constr:    0.0000
     atom:   89    charge:    7.4291    magn:    1.1427    constr:    0.0000
     atom:   90    charge:    7.4279    magn:    1.1402    constr:    0.0000
     atom:   91    charge:    7.4292    magn:    1.1426    constr:    0.0000
     atom:   92    charge:    7.4283    magn:    1.1400    constr:    0.0000
     atom:   93    charge:    3.2582    magn:    0.0620    constr:    0.0000
     atom:   94    charge:    3.2569    magn:    0.0638    constr:    0.0000
     atom:   95    charge:    3.2587    magn:    0.0629    constr:    0.0000
     atom:   96    charge:    3.2554    magn:    0.0634    constr:    0.0000
     atom:   97    charge:    3.2545    magn:    0.0641    constr:    0.0000
     atom:   98    charge:    3.2559    magn:    0.0655    constr:    0.0000
     atom:   99    charge:    3.2570    magn:    0.0655    constr:    0.0000
     atom:  100    charge:    3.2544    magn:    0.0653    constr:    0.0000
     atom:  101    charge:    3.2582    magn:    0.0620    constr:    0.0000
     atom:  102    charge:    3.2569    magn:    0.0638    constr:    0.0000
     atom:  103    charge:    3.2587    magn:    0.0629    constr:    0.0000
     atom:  104    charge:    3.2554    magn:    0.0634    constr:    0.0000
     atom:  105    charge:    3.2545    magn:    0.0641    constr:    0.0000
     atom:  106    charge:    3.2559    magn:    0.0655    constr:    0.0000
     atom:  107    charge:    3.2570    magn:    0.0655    constr:    0.0000
     atom:  108    charge:    3.2544    magn:    0.0653    constr:    0.0000

     total cpu time spent up to now is     1670.6 secs

     End of self-consistent calculation

 ------ SPIN UP ------------


          k = 0.0000 0.0000 0.0000 ( 91663 PWs)   bands (ev):

   -22.5809 -22.5786 -22.5689 -22.5668 -22.4511 -22.4508 -22.4420 -22.4419
   -19.5498 -19.5496 -19.5363 -19.5349 -19.5349 -19.5302 -19.5251 -19.5182
   -19.2524 -19.2457 -19.2309 -19.2307 -19.1432 -19.1407 -19.1302 -19.1299
   -15.5145 -15.4669 -15.4593 -15.4405 -15.4291 -15.4268 -15.4238 -15.4040
   -14.1919 -14.1821 -14.1729 -14.1569 -14.1480 -14.1405 -14.1272 -14.0783
   -11.7806 -11.6903 -11.6764 -11.6458 -11.6207 -11.6047 -11.5974 -11.5969
   -11.0427 -11.0163 -11.0067 -10.9985 -10.9953 -10.9553 -10.9478 -10.9271
    -9.3916  -9.1889  -9.1823  -9.1601  -9.1447  -9.0779  -9.0664  -9.0611
    -8.3052  -7.9161  -7.9049  -7.8400  -7.7270  -7.7264  -7.7218  -7.6912
    -7.5462  -7.5038  -7.5035  -7.4885  -7.4872  -7.4603  -7.4566  -7.4043
    -6.9106  -6.8430  -6.8349  -6.7282  -6.7139  -6.6828  -6.6743  -6.6735
    -6.6234  -6.6180  -6.6126  -6.5897  -6.5797  -6.5701  -6.4413  -6.4305
    -6.4290  -6.3783  -6.3366  -6.3335  -6.3150  -6.3116  -6.2762  -6.2709
    -6.2460  -6.2289  -6.2128  -6.1596  -6.1352  -6.0472  -6.0373  -5.9289
    -5.6638  -5.5894  -5.5830  -5.5724  -5.5382  -5.5378  -5.5333  -5.4747
    -5.3893  -5.3791  -5.2675  -5.2622  -5.2522  -5.2315  -5.2030  -4.9998
    -4.7240  -4.6025  -4.5855  -4.5682  -4.2302  -4.1417  -4.1318  -4.0653
    -4.0033  -3.9235  -3.9151  -3.8900  -3.8764  -3.8037  -3.7789  -3.7714
    -3.6363  -3.6362  -3.6322  -3.5671  -3.5559  -3.5354  -3.3395  -3.3328
    -3.2658  -3.2598  -3.2360  -3.2318  -3.1955  -3.1914  -3.0868  -3.0741
    -2.9690  -2.9415  -2.9303  -2.6966  -2.6119  -2.6000  -2.5915  -2.5242
    -2.5043  -2.4955  -2.4873  -2.3854  -2.3743  -2.3589  -2.3416  -2.3383
    -2.2989  -2.2966  -2.2113  -2.1960  -2.1832  -2.1557  -2.1545  -2.1181
    -2.1123  -2.0721  -2.0412  -2.0326  -2.0114  -1.9567  -1.9004  -1.8886
    -1.8818  -1.8593  -1.8532  -1.7929  -0.3660  -0.3283  -0.3016  -0.2536
    -0.0115   0.0126   0.0252   0.0442   1.8231   1.8335   1.8980   1.9042
     1.9056   1.9213   1.9463   2.0309   2.9701   3.0284   3.0288   3.1166
     3.1549   3.1591   3.2508   3.4324   3.5264   4.2364   4.3220   4.3295
     4.4068   4.4418   4.4472   4.4692   4.5849   4.5882   4.6270   4.6467
     4.9868   5.1793   5.1839   5.3036   5.3055   5.3451   5.6398   5.7271
     5.9048   5.9092   5.9209   6.0746   6.2953

 ------ SPIN DOWN ----------


          k = 0.0000 0.0000 0.0000 ( 91663 PWs)   bands (ev):

   -22.4622 -22.4598 -22.4486 -22.4465 -22.3332 -22.3329 -22.3225 -22.3224
   -19.3974 -19.3970 -19.3837 -19.3797 -19.3794 -19.3773 -19.3716 -19.3638
   -19.2118 -19.2053 -19.1903 -19.1901 -19.1032 -19.0997 -19.0898 -19.0890
   -15.4708 -15.4232 -15.4154 -15.3976 -15.3860 -15.3834 -15.3805 -15.3598
   -14.1474 -14.1375 -14.1282 -14.1120 -14.1031 -14.0956 -14.0823 -14.0330
   -11.7295 -11.6392 -11.6251 -11.5988 -11.5706 -11.5577 -11.5510 -11.5499
   -11.0068 -10.9808 -10.9711 -10.9639 -10.9597 -10.9205 -10.9130 -10.8929
    -9.3554  -9.1525  -9.1457  -9.1249  -9.1135  -9.0452  -9.0333  -9.0277
    -8.2305  -7.8366  -7.8254  -7.7542  -7.6673  -7.6495  -7.6468  -7.6111
    -7.4828  -7.4458  -7.4426  -7.4316  -7.4022  -7.3909  -7.3872  -7.3557
    -6.7798  -6.7089  -6.7004  -6.6266  -6.6104  -6.6007  -6.5659  -6.5334
    -6.5016  -6.4964  -6.4949  -6.4808  -6.4768  -6.4765  -6.4089  -6.4002
    -6.3431  -6.3216  -6.2792  -6.2669  -6.2365  -6.2341  -6.1515  -6.1493
    -6.1446  -6.1411  -6.1217  -6.0598  -6.0315  -5.9551  -5.9457  -5.8332
    -5.5769  -5.5629  -5.5407  -5.5296  -5.5162  -5.4885  -5.4832  -5.3966
    -5.2931  -5.2829  -5.2360  -5.2028  -5.1791  -5.1693  -5.1108  -4.9063
    -4.5724  -4.2671  -4.2464  -4.0328  -4.0186  -3.9854  -3.9154  -3.9040
    -3.9032  -3.8672  -3.8356  -3.8228  -3.7086  -3.5451  -3.5343  -3.5283
    -3.4119  -3.3837  -3.3724  -3.2976  -3.1360  -3.1054  -2.9509  -2.9385
    -2.8482  -2.8065  -2.7954  -2.7933  -2.7319  -2.7273  -2.7175  -2.7107
    -2.6270  -2.5841  -2.5646  -2.4089  -2.3586  -2.3548  -2.3454  -2.3287
    -2.3158  -2.2596  -2.1738  -2.1653  -2.0868  -2.0709  -2.0129  -1.9843
    -1.9042  -1.8656  -1.8513  -1.8098  -1.8025  -1.7659  -1.7597  -1.7065
    -1.6571  -1.4603  -1.4515  -1.3373  -1.3254  -1.3198  -1.3116  -1.3115
    -1.3051  -1.2312  -1.2246  -1.1815   0.4291   0.4612   0.4841   0.5161
     0.7014   0.7411   0.7468   0.7589   1.9323   1.9421   2.0113   2.0189
     2.0245   2.0434   2.0857   2.1393   3.0666   3.1259   3.1263   3.2156
     3.2531   3.2571   3.3506   3.5364   3.5617   4.2892   4.3623   4.3691
     4.4794   4.5176   4.5222   4.5300   4.6661   4.6689   4.7131   4.7212
     5.0382   5.2171   5.2204   5.3422   5.3438   5.3926   5.6753   5.7616
     5.9388   5.9455   5.9551   6.1327   6.3322

     the spin up/dw Fermi energies are     0.1848   -0.1752 ev

!    total energy              =   -1622.47230313 Ry
     Harris-Foulkes estimate   =   -1622.47230301 Ry
     estimated scf accuracy    <       0.00000087 Ry

     The total energy is the sum of the following terms:

     one-electron contribution =   -2438.50298600 Ry
     hartree contribution      =    1360.08489632 Ry
     xc contribution           =    -492.88647020 Ry
     ewald contribution        =     -53.45552838 Ry
     Dispersion Correction     =      -0.41716316 Ry
     smearing contrib. (-TS)   =       2.70494829 Ry

     total magnetization       =     8.00 Bohr mag/cell
     absolute magnetization    =     8.22 Bohr mag/cell

     convergence has been achieved in   6 iterations

     Forces acting on atoms (cartesian axes, Ry/au):

     atom    1 type  1   force =     0.00000552    0.00142751    0.00026204
     atom    2 type  1   force =     0.00043712   -0.00180813    0.00022672
     atom    3 type  1   force =    -0.00134384    0.00096559   -0.00090911
     atom    4 type  1   force =    -0.00207540   -0.00077871   -0.00116802
     atom    5 type  1   force =     0.00170924   -0.00157749   -0.00024328
     atom    6 type  1   force =     0.00282022    0.00113967    0.00029755
     atom    7 type  1   force =    -0.00018157   -0.00257714   -0.00028794
     atom    8 type  1   force =    -0.00011267    0.00185719   -0.00005720
     atom    9 type  1   force =     0.00182024    0.00102093    0.00170150
     atom   10 type  1   force =     0.00210393   -0.00069588    0.00116002
     atom   11 type  1   force =    -0.00236486   -0.00032439    0.00126533
     atom   12 type  1   force =    -0.00224643    0.00038649    0.00111398
     atom   13 type  1   force =    -0.00100723   -0.00123390   -0.00067838
     atom   14 type  1   force =    -0.00192892    0.00156793   -0.00086673
     atom   15 type  1   force =     0.00121025    0.00186352   -0.00038354
     atom   16 type  1   force =     0.00094713   -0.00156697   -0.00081365
     atom   17 type  1   force =    -0.00345654   -0.00025933   -0.00026731
     atom   18 type  1   force =    -0.00319944   -0.00068553   -0.00029915
     atom   19 type  1   force =     0.00180024   -0.00050370   -0.00160851
     atom   20 type  1   force =     0.00170123    0.00063982   -0.00171705
     atom   21 type  1   force =    -0.00004283    0.00038631    0.00122043
     atom   22 type  1   force =     0.00015415   -0.00077039    0.00059452
     atom   23 type  1   force =    -0.00226392   -0.00059088    0.00076037
     atom   24 type  1   force =    -0.00173953    0.00046666    0.00139950
     atom   25 type  1   force =     0.00001131    0.00142504    0.00025550
     atom   26 type  1   force =     0.00043634   -0.00181301    0.00022189
     atom   27 type  1   force =    -0.00133127    0.00096368   -0.00091358
     atom   28 type  1   force =    -0.00207825   -0.00077604   -0.00116934
     atom   29 type  1   force =     0.00168898   -0.00158704   -0.00024790
     atom   30 type  1   force =     0.00282867    0.00114168    0.00030212
     atom   31 type  1   force =    -0.00015918   -0.00256876   -0.00029581
     atom   32 type  1   force =    -0.00008765    0.00185053   -0.00006993
     atom   33 type  1   force =     0.00179949    0.00101358    0.00171050
     atom   34 type  1   force =     0.00209379   -0.00068909    0.00116008
     atom   35 type  1   force =    -0.00236892   -0.00032705    0.00126540
     atom   36 type  1   force =    -0.00224372    0.00039476    0.00112164
     atom   37 type  1   force =    -0.00100160   -0.00122705   -0.00068222
     atom   38 type  1   force =    -0.00194888    0.00156682   -0.00088613
     atom   39 type  1   force =     0.00119669    0.00186092   -0.00037876
     atom   40 type  1   force =     0.00094716   -0.00156617   -0.00081495
     atom   41 type  1   force =    -0.00345691   -0.00026191   -0.00027037
     atom   42 type  1   force =    -0.00319767   -0.00068628   -0.00029835
     atom   43 type  1   force =     0.00179242   -0.00050560   -0.00160440
     atom   44 type  1   force =     0.00168434    0.00064578   -0.00171287
     atom   45 type  1   force =    -0.00005978    0.00037407    0.00122303
     atom   46 type  1   force =     0.00016254   -0.00078054    0.00059087
     atom   47 type  1   force =    -0.00230752   -0.00059904    0.00077673
     atom   48 type  1   force =    -0.00174555    0.00047074    0.00139812
     atom   49 type  2   force =    -0.00037250   -0.00007115    0.00002097
     atom   50 type  2   force =     0.00008344   -0.00001095    0.00011461
     atom   51 type  2   force =    -0.00220750   -0.00035428   -0.00113391
     atom   52 type  2   force =    -0.00293670    0.00065719   -0.00170579
     atom   53 type  2   force =    -0.00062871    0.00023238    0.00050165
     atom   54 type  2   force =     0.00033645    0.00005426   -0.00009257
     atom   55 type  2   force =    -0.00246356   -0.00125034    0.00148688
     atom   56 type  2   force =    -0.00231105    0.00075668    0.00123556
     atom   57 type  2   force =     0.00179367    0.00115622    0.00071191
     atom   58 type  2   force =     0.00193167   -0.00171371    0.00087492
     atom   59 type  2   force =    -0.00015120   -0.00030043    0.00097899
     atom   60 type  2   force =    -0.00041131    0.00002200    0.00060789
     atom   61 type  2   force =     0.00066352    0.00002288    0.00028928
     atom   62 type  2   force =    -0.00033775    0.00006311    0.00048448
     atom   63 type  2   force =     0.00251782    0.00074674   -0.00231231
     atom   64 type  2   force =     0.00206871    0.00005751   -0.00254705
     atom   65 type  2   force =    -0.00037348   -0.00007039    0.00001847
     atom   66 type  2   force =     0.00008262   -0.00001146    0.00011426
     atom   67 type  2   force =    -0.00221372   -0.00035693   -0.00113541
     atom   68 type  2   force =    -0.00293836    0.00065717   -0.00170622
     atom   69 type  2   force =    -0.00063519    0.00023465    0.00050867
     atom   70 type  2   force =     0.00034368    0.00005732   -0.00010135
     atom   71 type  2   force =    -0.00245521   -0.00124656    0.00148573
     atom   72 type  2   force =    -0.00231475    0.00075861    0.00123583
     atom   73 type  2   force =     0.00179349    0.00115607    0.00071172
     atom   74 type  2   force =     0.00193317   -0.00171351    0.00087675
     atom   75 type  2   force =    -0.00015094   -0.00030134    0.00098013
     atom   76 type  2   force =    -0.00040598    0.00002650    0.00061812
     atom   77 type  2   force =     0.00066606    0.00002244    0.00028735
     atom   78 type  2   force =    -0.00033669    0.00006244    0.00048431
     atom   79 type  2   force =     0.00251473    0.00074496   -0.00231183
     atom   80 type  2   force =     0.00207133    0.00005700   -0.00254823
     atom   81 type  3   force =     0.00140990   -0.00109620    0.00143537
     atom   82 type  3   force =     0.00140482    0.00133599    0.00119468
     atom   83 type  3   force =    -0.00215290    0.00168760    0.00039361
     atom   84 type  3   force =    -0.00226467   -0.00131225    0.00097611
     atom   85 type  3   force =     0.00141584   -0.00109443    0.00143682
     atom   86 type  3   force =     0.00141604    0.00132814    0.00119538
     atom   87 type  3   force =    -0.00213717    0.00168411    0.00038213
     atom   88 type  3   force =    -0.00226364   -0.00131065    0.00098111
     atom   89 type  4   force =     0.00842749   -0.00059948    0.00032277
     atom   90 type  4   force =     0.00126060   -0.00051786    0.00007878
     atom   91 type  4   force =     0.00846829   -0.00059613    0.00037534
     atom   92 type  4   force =     0.00123926   -0.00049973    0.00001501
     atom   93 type  5   force =     0.00050214   -0.00038113   -0.00000372
     atom   94 type  5   force =     0.00089928    0.00072559    0.00076473
     atom   95 type  5   force =    -0.00081466    0.00095767   -0.00036167
     atom   96 type  5   force =     0.00003847    0.00005362    0.00007336
     atom   97 type  5   force =     0.00042267    0.00053521   -0.00177228
     atom   98 type  5   force =    -0.00012859   -0.00028722   -0.00092406
     atom   99 type  5   force =     0.00043903   -0.00008529   -0.00140197
[...]
     atom:   67    charge:    0.4820    magn:   -0.0010    constr:    0.0000
     atom:   68    charge:    0.4741    magn:   -0.0010    constr:    0.0000
     atom:   69    charge:    0.4844    magn:   -0.0011    constr:    0.0000
     atom:   70    charge:    0.4816    magn:   -0.0011    constr:    0.0000
     atom:   71    charge:    0.4864    magn:   -0.0007    constr:    0.0000
     atom:   72    charge:    0.4841    magn:   -0.0007    constr:    0.0000
     atom:   73    charge:    0.4798    magn:   -0.0008    constr:    0.0000
     atom:   74    charge:    0.4843    magn:   -0.0007    constr:    0.0000
     atom:   75    charge:    0.4888    magn:   -0.0004    constr:    0.0000
     atom:   76    charge:    0.4808    magn:   -0.0004    constr:    0.0000
     atom:   77    charge:    0.4852    magn:   -0.0005    constr:    0.0000
     atom:   78    charge:    0.4850    magn:   -0.0005    constr:    0.0000
     atom:   79    charge:    0.4686    magn:   -0.0010    constr:    0.0000
     atom:   80    charge:    0.4698    magn:   -0.0010    constr:    0.0000
     atom:   81    charge:    2.4462    magn:    0.0161    constr:    0.0000
     atom:   82    charge:    2.4453    magn:    0.0164    constr:    0.0000
     atom:   83    charge:    2.4516    magn:    0.0162    constr:    0.0000
     atom:   84    charge:    2.4462    magn:    0.0164    constr:    0.0000
     atom:   85    charge:    2.4462    magn:    0.0161    constr:    0.0000
     atom:   86    charge:    2.4453    magn:    0.0164    constr:    0.0000
     atom:   87    charge:    2.4516    magn:    0.0162    constr:    0.0000
     atom:   88    charge:    2.4462    magn:    0.0164    constr:    0.0000
     atom:   89    charge:    7.4254    magn:    1.1350    constr:    0.0000
     atom:   90    charge:    7.4284    magn:    1.1401    constr:    0.0000
     atom:   91    charge:    7.4254    magn:    1.1350    constr:    0.0000
     atom:   92    charge:    7.4286    magn:    1.1401    constr:    0.0000
     atom:   93    charge:    3.2505    magn:    0.0625    constr:    0.0000
     atom:   94    charge:    3.2357    magn:    0.0631    constr:    0.0000
     atom:   95    charge:    3.2416    magn:    0.0630    constr:    0.0000
     atom:   96    charge:    3.2471    magn:    0.0636    constr:    0.0000
     atom:   97    charge:    3.2254    magn:    0.0636    constr:    0.0000
     atom:   98    charge:    3.2439    magn:    0.0651    constr:    0.0000
     atom:   99    charge:    3.2405    magn:    0.0649    constr:    0.0000
     atom:  100    charge:    3.2446    magn:    0.0661    constr:    0.0000
     atom:  101    charge:    3.2505    magn:    0.0625    constr:    0.0000
     atom:  102    charge:    3.2357    magn:    0.0631    constr:    0.0000
     atom:  103    charge:    3.2416    magn:    0.0630    constr:    0.0000
     atom:  104    charge:    3.2471    magn:    0.0636    constr:    0.0000
     atom:  105    charge:    3.2254    magn:    0.0636    constr:    0.0000
     atom:  106    charge:    3.2439    magn:    0.0651    constr:    0.0000
     atom:  107    charge:    3.2406    magn:    0.0649    constr:    0.0000
     atom:  108    charge:    3.2446    magn:    0.0661    constr:    0.0000

     total cpu time spent up to now is    12244.5 secs

     End of self-consistent calculation

 ------ SPIN UP ------------


          k = 0.0000 0.0000 0.0000 ( 91663 PWs)   bands (ev):

   -22.5874 -22.5849 -22.5754 -22.5732 -22.4632 -22.4630 -22.4512 -22.4511
   -19.5508 -19.5474 -19.5404 -19.5357 -19.5344 -19.5340 -19.5336 -19.5262
   -19.2599 -19.2524 -19.2370 -19.2354 -19.1537 -19.1507 -19.1369 -19.1356
   -15.5214 -15.4733 -15.4674 -15.4483 -15.4365 -15.4345 -15.4317 -15.4134
   -14.1844 -14.1703 -14.1698 -14.1659 -14.1522 -14.1350 -14.1213 -14.0783
   -11.7875 -11.6882 -11.6834 -11.6494 -11.6266 -11.6058 -11.6041 -11.6018
   -11.0472 -11.0185 -11.0134 -11.0050 -10.9944 -10.9647 -10.9544 -10.9389
    -9.4121  -9.1899  -9.1871  -9.1738  -9.1489  -9.0887  -9.0589  -9.0554
    -8.3328  -7.9280  -7.9232  -7.8465  -7.7445  -7.7362  -7.7293  -7.7067
    -7.5500  -7.5075  -7.5012  -7.4981  -7.4901  -7.4613  -7.4518  -7.4080
    -6.9223  -6.8561  -6.8473  -6.7502  -6.7390  -6.6942  -6.6901  -6.6749
    -6.6369  -6.6289  -6.6149  -6.6062  -6.5848  -6.5765  -6.4504  -6.4484
    -6.4353  -6.3645  -6.3455  -6.3350  -6.3330  -6.3240  -6.2897  -6.2870
    -6.2406  -6.2255  -6.2208  -6.1582  -6.1406  -6.0573  -6.0559  -5.9319
    -5.6849  -5.5944  -5.5829  -5.5616  -5.5425  -5.5397  -5.5021  -5.4577
    -5.3932  -5.3783  -5.2748  -5.2625  -5.2603  -5.2317  -5.1920  -5.0045
    -4.7401  -4.6120  -4.5983  -4.5789  -4.2443  -4.1438  -4.1418  -4.0911
    -4.0155  -3.9257  -3.9184  -3.8768  -3.8730  -3.8138  -3.7659  -3.7637
    -3.6310  -3.6307  -3.6274  -3.5789  -3.5656  -3.5534  -3.3693  -3.3562
    -3.2759  -3.2668  -3.2379  -3.2263  -3.2229  -3.1835  -3.0790  -3.0716
    -2.9972  -2.9352  -2.9292  -2.6932  -2.6275  -2.6222  -2.5774  -2.5315
    -2.5232  -2.5134  -2.4632  -2.3979  -2.3863  -2.3571  -2.3548  -2.3302
    -2.3185  -2.3025  -2.2350  -2.1976  -2.1892  -2.1658  -2.1559  -2.1265
    -2.1090  -2.0595  -2.0269  -2.0154  -1.9947  -1.9566  -1.9008  -1.8817
    -1.8737  -1.8651  -1.8609  -1.7919  -0.3621  -0.3512  -0.3053  -0.2689
    -0.0049   0.0195   0.0466   0.0470   1.8278   1.8297   1.8953   1.9023
     1.9055   1.9077   1.9366   2.0223   2.9737   3.0362   3.0399   3.1052
     3.1489   3.1528   3.2406   3.4086   3.5274   4.2386   4.3446   4.3472
     4.4144   4.4418   4.4426   4.4718   4.5680   4.5692   4.6104   4.6272
     4.9854   5.1954   5.1968   5.3383   5.3395   5.3890   5.6623   5.7265
     5.9377   5.9392   5.9417   6.0771   6.3344

 ------ SPIN DOWN ----------


          k = 0.0000 0.0000 0.0000 ( 91663 PWs)   bands (ev):

   -22.4683 -22.4657 -22.4547 -22.4525 -22.3448 -22.3446 -22.3313 -22.3312
   -19.3991 -19.3947 -19.3865 -19.3818 -19.3807 -19.3782 -19.3777 -19.3713
   -19.2191 -19.2118 -19.1963 -19.1947 -19.1134 -19.1093 -19.0962 -19.0942
   -15.4775 -15.4295 -15.4234 -15.4053 -15.3933 -15.3910 -15.3883 -15.3690
   -14.1395 -14.1252 -14.1247 -14.1209 -14.1070 -14.0898 -14.0759 -14.0327
   -11.7362 -11.6368 -11.6318 -11.6022 -11.5765 -11.5586 -11.5572 -11.5547
   -11.0111 -10.9827 -10.9785 -10.9692 -10.9586 -10.9296 -10.9191 -10.9045
    -9.3758  -9.1529  -9.1499  -9.1386  -9.1177  -9.0558  -9.0253  -9.0216
    -8.2575  -7.8487  -7.8443  -7.7610  -7.6840  -7.6600  -7.6523  -7.6260
    -7.4882  -7.4418  -7.4404  -7.4333  -7.4198  -7.3906  -7.3823  -7.3593
    -6.7929  -6.7218  -6.7131  -6.6506  -6.6240  -6.6194  -6.5910  -6.5348
    -6.5180  -6.5169  -6.5081  -6.4832  -6.4823  -6.4762  -6.4173  -6.4153
    -6.3308  -6.3063  -6.2743  -6.2647  -6.2529  -6.2446  -6.1630  -6.1627
    -6.1601  -6.1437  -6.1222  -6.0640  -6.0352  -5.9645  -5.9633  -5.8373
    -5.5980  -5.5509  -5.5378  -5.5336  -5.4936  -5.4887  -5.4814  -5.3747
    -5.2978  -5.2833  -5.2343  -5.2001  -5.1895  -5.1775  -5.1016  -4.9101
    -4.5900  -4.2768  -4.2635  -4.0529  -4.0363  -3.9908  -3.9052  -3.9040
    -3.8968  -3.8779  -3.8172  -3.8127  -3.7109  -3.5709  -3.5413  -3.5314
    -3.4196  -3.3891  -3.3796  -3.3087  -3.1530  -3.1026  -2.9691  -2.9554
    -2.8506  -2.8244  -2.8231  -2.8164  -2.7381  -2.7258  -2.7076  -2.6947
    -2.6412  -2.5568  -2.5538  -2.4202  -2.3726  -2.3658  -2.3522  -2.3353
    -2.3104  -2.2754  -2.1707  -2.1670  -2.1166  -2.0968  -2.0164  -2.0020
    -1.8977  -1.8811  -1.8498  -1.8060  -1.7974  -1.7758  -1.7685  -1.7074
    -1.6554  -1.4608  -1.4559  -1.3416  -1.3382  -1.3352  -1.3273  -1.3221
    -1.2919  -1.2099  -1.2033  -1.1643   0.4291   0.4407   0.4832   0.4961
     0.7051   0.7528   0.7584   0.7595   1.9374   1.9396   2.0018   2.0236
     2.0271   2.0305   2.0766   2.1302   3.0714   3.1346   3.1386   3.2049
     3.2478   3.2520   3.3411   3.5131   3.5629   4.2936   4.3856   4.3880
     4.4881   4.5165   4.5171   4.5337   4.6497   4.6510   4.6939   4.7029
     5.0362   5.2350   5.2371   5.3759   5.3768   5.4376   5.6989   5.7624
     5.9732   5.9742   5.9758   6.1351   6.3720

     the spin up/dw Fermi energies are     0.1836   -0.1786 ev

!    total energy              =   -1622.47653565 Ry
     Harris-Foulkes estimate   =   -1622.47653566 Ry
     estimated scf accuracy    <       0.00000002 Ry

     The total energy is the sum of the following terms:

     one-electron contribution =   -2450.76823386 Ry
     hartree contribution      =    1366.17609577 Ry
     xc contribution           =    -492.93036961 Ry
     ewald contribution        =     -47.24108139 Ry
     Dispersion Correction     =      -0.41806706 Ry
     smearing contrib. (-TS)   =       2.70512050 Ry

     total magnetization       =     8.00 Bohr mag/cell
     absolute magnetization    =     8.22 Bohr mag/cell

     convergence has been achieved in  12 iterations

 %%%%%%%%%%%%%%%%%%%%%%%%%%%%%%%%%%%%%%%%%%%%%%%%%%%%%%%%%%%%%%%%%%%%%%%%%%%%%%
     Error in routine create_directory (1):
     unable to create directory ./QE_relaxation_results/PBESOL_relax/NiPyC2_relax_sc211/NiPyC2_sc211_pbesol_relax.save/
 %%%%%%%%%%%%%%%%%%%%%%%%%%%%%%%%%%%%%%%%%%%%%%%%%%%%%%%%%%%%%%%%%%%%%%%%%%%%%%

     stopping ...

 %%%%%%%%%%%%%%%%%%%%%%%%%%%%%%%%%%%%%%%%%%%%%%%%%%%%%%%%%%%%%%%%%%%%%%%%%%%%%%
     Error in routine create_directory (1):
     unable to create directory ./QE_relaxation_results/PBESOL_relax/NiPyC2_relax_sc211/NiPyC2_sc211_pbesol_relax.save/
 %%%%%%%%%%%%%%%%%%%%%%%%%%%%%%%%%%%%%%%%%%%%%%%%%%%%%%%%%%%%%%%%%%%%%%%%%%%%%%

     stopping ...

 %%%%%%%%%%%%%%%%%%%%%%%%%%%%%%%%%%%%%%%%%%%%%%%%%%%%%%%%%%%%%%%%%%%%%%%%%%%%%%
     Error in routine create_directory (1):
     unable to create directory ./QE_relaxation_results/PBESOL_relax/NiPyC2_relax_sc211/NiPyC2_sc211_pbesol_relax.save/
 %%%%%%%%%%%%%%%%%%%%%%%%%%%%%%%%%%%%%%%%%%%%%%%%%%%%%%%%%%%%%%%%%%%%%%%%%%%%%%

     stopping ...

 %%%%%%%%%%%%%%%%%%%%%%%%%%%%%%%%%%%%%%%%%%%%%%%%%%%%%%%%%%%%%%%%%%%%%%%%%%%%%%
     Error in routine create_directory (1):
     unable to create directory ./QE_relaxation_results/PBESOL_relax/NiPyC2_relax_sc211/NiPyC2_sc211_pbesol_relax.save/
 %%%%%%%%%%%%%%%%%%%%%%%%%%%%%%%%%%%%%%%%%%%%%%%%%%%%%%%%%%%%%%%%%%%%%%%%%%%%%%

     stopping ...

 %%%%%%%%%%%%%%%%%%%%%%%%%%%%%%%%%%%%%%%%%%%%%%%%%%%%%%%%%%%%%%%%%%%%%%%%%%%%%%
     Error in routine create_directory (1):
     unable to create directory ./QE_relaxation_results/PBESOL_relax/NiPyC2_relax_sc211/NiPyC2_sc211_pbesol_relax.save/
 %%%%%%%%%%%%%%%%%%%%%%%%%%%%%%%%%%%%%%%%%%%%%%%%%%%%%%%%%%%%%%%%%%%%%%%%%%%%%%

     stopping ...

 %%%%%%%%%%%%%%%%%%%%%%%%%%%%%%%%%%%%%%%%%%%%%%%%%%%%%%%%%%%%%%%%%%%%%%%%%%%%%%
     Error in routine create_directory (1):
     unable to create directory ./QE_relaxation_results/PBESOL_relax/NiPyC2_relax_sc211/NiPyC2_sc211_pbesol_relax.save/
 %%%%%%%%%%%%%%%%%%%%%%%%%%%%%%%%%%%%%%%%%%%%%%%%%%%%%%%%%%%%%%%%%%%%%%%%%%%%%%

     stopping ...

 %%%%%%%%%%%%%%%%%%%%%%%%%%%%%%%%%%%%%%%%%%%%%%%%%%%%%%%%%%%%%%%%%%%%%%%%%%%%%%
     Error in routine create_directory (1):
     unable to create directory ./QE_relaxation_results/PBESOL_relax/NiPyC2_relax_sc211/NiPyC2_sc211_pbesol_relax.save/
 %%%%%%%%%%%%%%%%%%%%%%%%%%%%%%%%%%%%%%%%%%%%%%%%%%%%%%%%%%%%%%%%%%%%%%%%%%%%%%

     stopping ...

 %%%%%%%%%%%%%%%%%%%%%%%%%%%%%%%%%%%%%%%%%%%%%%%%%%%%%%%%%%%%%%%%%%%%%%%%%%%%%%
     Error in routine create_directory (1):
     unable to create directory ./QE_relaxation_results/PBESOL_relax/NiPyC2_relax_sc211/NiPyC2_sc211_pbesol_relax.save/
 %%%%%%%%%%%%%%%%%%%%%%%%%%%%%%%%%%%%%%%%%%%%%%%%%%%%%%%%%%%%%%%%%%%%%%%%%%%%%%

     stopping ...

 %%%%%%%%%%%%%%%%%%%%%%%%%%%%%%%%%%%%%%%%%%%%%%%%%%%%%%%%%%%%%%%%%%%%%%%%%%%%%%
     Error in routine create_directory (1):
     unable to create directory ./QE_relaxation_results/PBESOL_relax/NiPyC2_relax_sc211/NiPyC2_sc211_pbesol_relax.save/
 %%%%%%%%%%%%%%%%%%%%%%%%%%%%%%%%%%%%%%%%%%%%%%%%%%%%%%%%%%%%%%%%%%%%%%%%%%%%%%

     stopping ...

 %%%%%%%%%%%%%%%%%%%%%%%%%%%%%%%%%%%%%%%%%%%%%%%%%%%%%%%%%%%%%%%%%%%%%%%%%%%%%%
     Error in routine create_directory (1):
     unable to create directory ./QE_relaxation_results/PBESOL_relax/NiPyC2_relax_sc211/NiPyC2_sc211_pbesol_relax.save/
 %%%%%%%%%%%%%%%%%%%%%%%%%%%%%%%%%%%%%%%%%%%%%%%%%%%%%%%%%%%%%%%%%%%%%%%%%%%%%%

     stopping ...

 %%%%%%%%%%%%%%%%%%%%%%%%%%%%%%%%%%%%%%%%%%%%%%%%%%%%%%%%%%%%%%%%%%%%%%%%%%%%%%
     Error in routine create_directory (1):
     unable to create directory ./QE_relaxation_results/PBESOL_relax/NiPyC2_relax_sc211/NiPyC2_sc211_pbesol_relax.save/
 %%%%%%%%%%%%%%%%%%%%%%%%%%%%%%%%%%%%%%%%%%%%%%%%%%%%%%%%%%%%%%%%%%%%%%%%%%%%%%

     stopping ...

 %%%%%%%%%%%%%%%%%%%%%%%%%%%%%%%%%%%%%%%%%%%%%%%%%%%%%%%%%%%%%%%%%%%%%%%%%%%%%%
     Error in routine create_directory (1):
     unable to create directory ./QE_relaxation_results/PBESOL_relax/NiPyC2_relax_sc211/NiPyC2_sc211_pbesol_relax.save/
 %%%%%%%%%%%%%%%%%%%%%%%%%%%%%%%%%%%%%%%%%%%%%%%%%%%%%%%%%%%%%%%%%%%%%%%%%%%%%%

     stopping ...

 %%%%%%%%%%%%%%%%%%%%%%%%%%%%%%%%%%%%%%%%%%%%%%%%%%%%%%%%%%%%%%%%%%%%%%%%%%%%%%
     Error in routine create_directory (1):
     unable to create directory ./QE_relaxation_results/PBESOL_relax/NiPyC2_relax_sc211/NiPyC2_sc211_pbesol_relax.save/
 %%%%%%%%%%%%%%%%%%%%%%%%%%%%%%%%%%%%%%%%%%%%%%%%%%%%%%%%%%%%%%%%%%%%%%%%%%%%%%

     stopping ...

 %%%%%%%%%%%%%%%%%%%%%%%%%%%%%%%%%%%%%%%%%%%%%%%%%%%%%%%%%%%%%%%%%%%%%%%%%%%%%%
     Error in routine create_directory (1):
     unable to create directory ./QE_relaxation_results/PBESOL_relax/NiPyC2_relax_sc211/NiPyC2_sc211_pbesol_relax.save/
 %%%%%%%%%%%%%%%%%%%%%%%%%%%%%%%%%%%%%%%%%%%%%%%%%%%%%%%%%%%%%%%%%%%%%%%%%%%%%%

     stopping ...

 %%%%%%%%%%%%%%%%%%%%%%%%%%%%%%%%%%%%%%%%%%%%%%%%%%%%%%%%%%%%%%%%%%%%%%%%%%%%%%
     Error in routine create_directory (1):
     unable to create directory ./QE_relaxation_results/PBESOL_relax/NiPyC2_relax_sc211/NiPyC2_sc211_pbesol_relax.save/
 %%%%%%%%%%%%%%%%%%%%%%%%%%%%%%%%%%%%%%%%%%%%%%%%%%%%%%%%%%%%%%%%%%%%%%%%%%%%%%

     stopping ...

 %%%%%%%%%%%%%%%%%%%%%%%%%%%%%%%%%%%%%%%%%%%%%%%%%%%%%%%%%%%%%%%%%%%%%%%%%%%%%%
     Error in routine create_directory (1):
     unable to create directory ./QE_relaxation_results/PBESOL_relax/NiPyC2_relax_sc211/NiPyC2_sc211_pbesol_relax.save/
 %%%%%%%%%%%%%%%%%%%%%%%%%%%%%%%%%%%%%%%%%%%%%%%%%%%%%%%%%%%%%%%%%%%%%%%%%%%%%%

     stopping ...

 %%%%%%%%%%%%%%%%%%%%%%%%%%%%%%%%%%%%%%%%%%%%%%%%%%%%%%%%%%%%%%%%%%%%%%%%%%%%%%
     Error in routine create_directory (1):
     unable to create directory ./QE_relaxation_results/PBESOL_relax/NiPyC2_relax_sc211/NiPyC2_sc211_pbesol_relax.save/
 %%%%%%%%%%%%%%%%%%%%%%%%%%%%%%%%%%%%%%%%%%%%%%%%%%%%%%%%%%%%%%%%%%%%%%%%%%%%%%

     stopping ...

 %%%%%%%%%%%%%%%%%%%%%%%%%%%%%%%%%%%%%%%%%%%%%%%%%%%%%%%%%%%%%%%%%%%%%%%%%%%%%%
     Error in routine create_directory (1):
     unable to create directory ./QE_relaxation_results/PBESOL_relax/NiPyC2_relax_sc211/NiPyC2_sc211_pbesol_relax.save/
 %%%%%%%%%%%%%%%%%%%%%%%%%%%%%%%%%%%%%%%%%%%%%%%%%%%%%%%%%%%%%%%%%%%%%%%%%%%%%%

     stopping ...

 %%%%%%%%%%%%%%%%%%%%%%%%%%%%%%%%%%%%%%%%%%%%%%%%%%%%%%%%%%%%%%%%%%%%%%%%%%%%%%
     Error in routine create_directory (1):
     unable to create directory ./QE_relaxation_results/PBESOL_relax/NiPyC2_relax_sc211/NiPyC2_sc211_pbesol_relax.save/
 %%%%%%%%%%%%%%%%%%%%%%%%%%%%%%%%%%%%%%%%%%%%%%%%%%%%%%%%%%%%%%%%%%%%%%%%%%%%%%

     stopping ...

 %%%%%%%%%%%%%%%%%%%%%%%%%%%%%%%%%%%%%%%%%%%%%%%%%%%%%%%%%%%%%%%%%%%%%%%%%%%%%%
     Error in routine create_directory (1):
     unable to create directory ./QE_relaxation_results/PBESOL_relax/NiPyC2_relax_sc211/NiPyC2_sc211_pbesol_relax.save/
 %%%%%%%%%%%%%%%%%%%%%%%%%%%%%%%%%%%%%%%%%%%%%%%%%%%%%%%%%%%%%%%%%%%%%%%%%%%%%%

     stopping ...

 %%%%%%%%%%%%%%%%%%%%%%%%%%%%%%%%%%%%%%%%%%%%%%%%%%%%%%%%%%%%%%%%%%%%%%%%%%%%%%
     Error in routine create_directory (1):
     unable to create directory ./QE_relaxation_results/PBESOL_relax/NiPyC2_relax_sc211/NiPyC2_sc211_pbesol_relax.save/
 %%%%%%%%%%%%%%%%%%%%%%%%%%%%%%%%%%%%%%%%%%%%%%%%%%%%%%%%%%%%%%%%%%%%%%%%%%%%%%

     stopping ...

 %%%%%%%%%%%%%%%%%%%%%%%%%%%%%%%%%%%%%%%%%%%%%%%%%%%%%%%%%%%%%%%%%%%%%%%%%%%%%%
     Error in routine create_directory (1):
     unable to create directory ./QE_relaxation_results/PBESOL_relax/NiPyC2_relax_sc211/NiPyC2_sc211_pbesol_relax.save/
 %%%%%%%%%%%%%%%%%%%%%%%%%%%%%%%%%%%%%%%%%%%%%%%%%%%%%%%%%%%%%%%%%%%%%%%%%%%%%%

     stopping ...

 %%%%%%%%%%%%%%%%%%%%%%%%%%%%%%%%%%%%%%%%%%%%%%%%%%%%%%%%%%%%%%%%%%%%%%%%%%%%%%
     Error in routine create_directory (1):

 %%%%%%%%%%%%%%%%%%%%%%%%%%%%%%%%%%%%%%%%%%%%%%%%%%%%%%%%%%%%%%%%%%%%%%%%%%%%%%
     Error in routine create_directory (1):
     unable to create directory ./QE_relaxation_results/PBESOL_relax/NiPyC2_relax_sc211/NiPyC2_sc211_pbesol_relax.save/
 %%%%%%%%%%%%%%%%%%%%%%%%%%%%%%%%%%%%%%%%%%%%%%%%%%%%%%%%%%%%%%%%%%%%%%%%%%%%%%

     stopping ...

 %%%%%%%%%%%%%%%%%%%%%%%%%%%%%%%%%%%%%%%%%%%%%%%%%%%%%%%%%%%%%%%%%%%%%%%%%%%%%%
     Error in routine create_directory (1):
     unable to create directory ./QE_relaxation_results/PBESOL_relax/NiPyC2_relax_sc211/NiPyC2_sc211_pbesol_relax.save/
 %%%%%%%%%%%%%%%%%%%%%%%%%%%%%%%%%%%%%%%%%%%%%%%%%%%%%%%%%%%%%%%%%%%%%%%%%%%%%%

     stopping ...

 %%%%%%%%%%%%%%%%%%%%%%%%%%%%%%%%%%%%%%%%%%%%%%%%%%%%%%%%%%%%%%%%%%%%%%%%%%%%%%
     Error in routine create_directory (1):
     unable to create directory ./QE_relaxation_results/PBESOL_relax/NiPyC2_relax_sc211/NiPyC2_sc211_pbesol_relax.save/
 %%%%%%%%%%%%%%%%%%%%%%%%%%%%%%%%%%%%%%%%%%%%%%%%%%%%%%%%%%%%%%%%%%%%%%%%%%%%%%

     stopping ...

 %%%%%%%%%%%%%%%%%%%%%%%%%%%%%%%%%%%%%%%%%%%%%%%%%%%%%%%%%%%%%%%%%%%%%%%%%%%%%%
     Error in routine create_directory (1):
     unable to create directory ./QE_relaxation_results/PBESOL_relax/NiPyC2_relax_sc211/NiPyC2_sc211_pbesol_relax.save/
 %%%%%%%%%%%%%%%%%%%%%%%%%%%%%%%%%%%%%%%%%%%%%%%%%%%%%%%%%%%%%%%%%%%%%%%%%%%%%%

     stopping ...

 %%%%%%%%%%%%%%%%%%%%%%%%%%%%%%%%%%%%%%%%%%%%%%%%%%%%%%%%%%%%%%%%%%%%%%%%%%%%%%
     Error in routine create_directory (1):
     unable to create directory ./QE_relaxation_results/PBESOL_relax/NiPyC2_relax_sc211/NiPyC2_sc211_pbesol_relax.save/
 %%%%%%%%%%%%%%%%%%%%%%%%%%%%%%%%%%%%%%%%%%%%%%%%%%%%%%%%%%%%%%%%%%%%%%%%%%%%%%

     stopping ...

 %%%%%%%%%%%%%%%%%%%%%%%%%%%%%%%%%%%%%%%%%%%%%%%%%%%%%%%%%%%%%%%%%%%%%%%%%%%%%%
     Error in routine create_directory (1):
     unable to create directory ./QE_relaxation_results/PBESOL_relax/NiPyC2_relax_sc211/NiPyC2_sc211_pbesol_relax.save/
 %%%%%%%%%%%%%%%%%%%%%%%%%%%%%%%%%%%%%%%%%%%%%%%%%%%%%%%%%%%%%%%%%%%%%%%%%%%%%%

     stopping ...

 %%%%%%%%%%%%%%%%%%%%%%%%%%%%%%%%%%%%%%%%%%%%%%%%%%%%%%%%%%%%%%%%%%%%%%%%%%%%%%
     Error in routine create_directory (1):
     unable to create directory ./QE_relaxation_results/PBESOL_relax/NiPyC2_relax_sc211/NiPyC2_sc211_pbesol_relax.save/
 %%%%%%%%%%%%%%%%%%%%%%%%%%%%%%%%%%%%%%%%%%%%%%%%%%%%%%%%%%%%%%%%%%%%%%%%%%%%%%

     stopping ...

 %%%%%%%%%%%%%%%%%%%%%%%%%%%%%%%%%%%%%%%%%%%%%%%%%%%%%%%%%%%%%%%%%%%%%%%%%%%%%%
     Error in routine create_directory (1):
     unable to create directory ./QE_relaxation_results/PBESOL_relax/NiPyC2_relax_sc211/NiPyC2_sc211_pbesol_relax.save/
 %%%%%%%%%%%%%%%%%%%%%%%%%%%%%%%%%%%%%%%%%%%%%%%%%%%%%%%%%%%%%%%%%%%%%%%%%%%%%%

     stopping ...

 %%%%%%%%%%%%%%%%%%%%%%%%%%%%%%%%%%%%%%%%%%%%%%%%%%%%%%%%%%%%%%%%%%%%%%%%%%%%%%
     Error in routine create_directory (1):
     unable to create directory ./QE_relaxation_results/PBESOL_relax/NiPyC2_relax_sc211/NiPyC2_sc211_pbesol_relax.save/
 %%%%%%%%%%%%%%%%%%%%%%%%%%%%%%%%%%%%%%%%%%%%%%%%%%%%%%%%%%%%%%%%%%%%%%%%%%%%%%

     stopping ...
     unable to create directory ./QE_relaxation_results/PBESOL_relax/NiPyC2_relax_sc211/NiPyC2_sc211_pbesol_relax.save/
 %%%%%%%%%%%%%%%%%%%%%%%%%%%%%%%%%%%%%%%%%%%%%%%%%%%%%%%%%%%%%%%%%%%%%%%%%%%%%%

     stopping ...
QE finished Tue Jun 9 13:54:08 PDT 2020
