/apps/openmpi/3.1_intel-19/bin/mpiexec
starting QE Mon Jun 8 20:14:15 PDT 2020

     Program PWSCF v.6.5 starts on  8Jun2020 at 20:14:16 

     This program is part of the open-source Quantum ESPRESSO suite
     for quantum simulation of materials; please cite
         "P. Giannozzi et al., J. Phys.:Condens. Matter 21 395502 (2009);
         "P. Giannozzi et al., J. Phys.:Condens. Matter 29 465901 (2017);
          URL http://www.quantum-espresso.org", 
     in publications or presentations arising from this work. More details at
     http://www.quantum-espresso.org/quote

     Parallel version (MPI), running on    16 processors

     MPI processes distributed on     1 nodes
     K-points division:     npool     =       2
     R & G space division:  proc/nbgrp/npool/nimage =       8
     Reading input from QE_input_scripts/pw.NiPyC2_relax_meta_functionalized_OH_vdw-df2-relax.in
Warning: card &CELL ignored
Warning: card    CELL_DYNAMICS = 'BFGS' ignored
Warning: card    CELL_DOFREE = 'XYZ' ignored
Warning: card / ignored

     Current dimensions of program PWSCF are:
     Max number of different atomic species (ntypx) = 10
     Max number of k-points (npk) =  40000
     Max angular momentum in pseudopotentials (lmaxx) =  3

     IMPORTANT: XC functional enforced from input :
     Exchange-correlation= VDW-DF2
                           (   1   4  13   0   2   0   0)
     Any further DFT definition will be discarded
     Please, verify this is what you really want


     -------------------------------------------------
     Parameters for Dispersion (Grimme-D2) Correction:
     -------------------------------------------------
       atom      VdW radius       C_6     

        C          2.744         60.710
        H          1.892          4.857
        N          2.640         42.670
        Ni         2.952        374.666
        O          2.536         24.284

     gamma-point specific algorithms are used

     Subspace diagonalization in iterative solution of the eigenvalue problem:
     a serial algorithm will be used

 
     Parallelization info
     --------------------
     sticks:   dense  smooth     PW     G-vecs:    dense   smooth      PW
     Min        1113    1113    276                91690    91690   11450
     Max        1116    1116    278                91692    91692   11458
     Sum        8917    8917   2219               733525   733525   91637
 


     bravais-lattice index     =            0
     lattice parameter (alat)  =      11.8161  a.u.
     unit-cell volume          =    5429.3114 (a.u.)^3
     number of atoms/cell      =           58
     number of atomic types    =            5
     number of electrons       =       224.00 (up: 114.00, down: 110.00)
     number of Kohn-Sham states=          137
     kinetic-energy cutoff     =     100.0000  Ry
     charge density cutoff     =     400.0000  Ry
     convergence threshold     =      1.0E-06
     mixing beta               =       0.7000
     number of iterations used =            8  local-TF  mixing
     Exchange-correlation= VDW-DF2
                           (   1   4  13   0   2   0   0)
     nstep                     =          200


     celldm(1)=  11.816080  celldm(2)=   0.000000  celldm(3)=   0.000000
     celldm(4)=   0.000000  celldm(5)=   0.000000  celldm(6)=   0.000000

     crystal axes: (cart. coord. in units of alat)
               a(1) = (   1.000000   0.000000   0.000000 )  
               a(2) = (   0.000000   2.002847   0.000000 )  
               a(3) = (  -0.036399   0.000000   1.643149 )  

     reciprocal axes: (cart. coord. in units 2 pi/alat)
               b(1) = (  1.000000  0.000000  0.022152 )  
               b(2) = (  0.000000  0.499289  0.000000 )  
               b(3) = (  0.000000  0.000000  0.608588 )  


     PseudoPot. # 1 for C  read from file:
     ./pseudo/C.pbesol-nc.UPF
     MD5 check sum: ce26087537ded160c8d400e183a8bf42
     Pseudo is Norm-conserving, Zval =  4.0
     Generated using "atomic" code by A. Dal Corso v.6.5
     Using radial grid of 1073 points,  1 beta functions with: 
                l(1) =   1

     PseudoPot. # 2 for H  read from file:
     ./pseudo/H.pbesol-n-nc.UPF
     MD5 check sum: 7995ef24074557c85b430109caaacc09
     Pseudo is Norm-conserving, Zval =  1.0
     Generated using "atomic" code by A. Dal Corso v.6.5
     Using radial grid of  929 points,  0 beta functions with: 

     PseudoPot. # 3 for N  read from file:
     ./pseudo/N.pbesol-nc.UPF
     MD5 check sum: e18cc5e4b8a5600c1a19b30c2cab1ca0
     Pseudo is Norm-conserving, Zval =  5.0
     Generated using "atomic" code by A. Dal Corso v.6.5
     Using radial grid of 1085 points,  1 beta functions with: 
                l(1) =   1

     PseudoPot. # 4 for Ni read from file:
     ./pseudo/Ni.pbesol-n-nc.UPF
     MD5 check sum: 623411631e0c2eb7c0b2b9815547d2d9
     Pseudo is Norm-conserving + core correction, Zval = 10.0
     Generated using "atomic" code by A. Dal Corso v.6.5
     Using radial grid of 1195 points,  2 beta functions with: 
                l(1) =   1
                l(2) =   2

     PseudoPot. # 5 for O  read from file:
     ./pseudo/O.pbesol-nc.UPF
     MD5 check sum: 73d10e7e91dbfcbe8a7e362101007f84
     Pseudo is Norm-conserving, Zval =  6.0
     Generated using "atomic" code by A. Dal Corso v.6.5
     Using radial grid of 1095 points,  1 beta functions with: 
                l(1) =   1

     atomic species   valence    mass     pseudopotential
        C              4.00    12.01070     C ( 1.00)
        H              1.00     1.00794     H ( 1.00)
        N              5.00    14.00670     N ( 1.00)
        Ni            10.00    58.69340     Ni( 1.00)
        O              6.00    15.99940     O ( 1.00)

     Starting magnetic structure 
     atomic species   magnetization
        C            0.000
        H            0.000
        N            0.000
        Ni           0.250
        O            0.000

     No symmetry found



   Cartesian axes

     site n.     atom                  positions (alat units)
         1           C   tau(   1) = (   0.5574254   1.9428615   0.8576972  )
         2           C   tau(   2) = (   0.0759460   0.0623006   0.0366554  )
         3           C   tau(   3) = (   0.7613774   0.0235735   0.8979675  )
         4           C   tau(   4) = (   0.2788093   1.9782998   0.0758247  )
         5           C   tau(   5) = (   0.8801573   1.9431659   1.0686561  )
         6           C   tau(   6) = (   0.3995851   0.0567867   0.2462965  )
         7           C   tau(   7) = (   0.3972033   1.0609159   0.8649271  )
         8           C   tau(   8) = (   0.9160753   0.9441600   0.0458504  )
         9           C   tau(   9) = (   0.4682005   1.2284080   0.9964628  )
        10           C   tau(  10) = (   0.9896845   0.7784605   0.1784739  )
        11           C   tau(  11) = (   0.4769962   1.7809433   0.9911521  )
        12           C   tau(  12) = (  -0.0016555   0.2247835   0.1712933  )
        13           C   tau(  13) = (   0.7894720   1.7812978   1.1954760  )
        14           C   tau(  14) = (   0.3115769   0.2194059   0.3743289  )
        15           C   tau(  15) = (   0.1512493   1.2196996   1.1951474  )
        16           C   tau(  16) = (   0.6734303   0.7843809   0.3769284  )
        17           C   tau(  17) = (   0.0701431   1.0516528   1.0702023  )
        18           C   tau(  18) = (   0.5897559   0.9507734   0.2509975  )
        19           C   tau(  19) = (   0.1963045   0.9699186   0.9039223  )
        20           C   tau(  20) = (   0.7138218   1.0327799   0.0832058  )
        21           C   tau(  21) = (   0.8496346   0.1989207   0.7667276  )
        22           C   tau(  22) = (   0.3278858   1.8020013   1.5867425  )
        23           C   tau(  23) = (   0.1176230   0.7900710   0.7733906  )
        24           C   tau(  24) = (   0.5968117   1.2100639   1.5923867  )
        25           H   tau(  25) = (   0.0396097   2.0004533   1.1066934  )
        26           H   tau(  26) = (   0.5583985   2.0001729   0.2836107  )
        27           H   tau(  27) = (   0.5010477   1.0032159   0.7382370  )
        28           H   tau(  28) = (  -0.0173167   1.0022185   1.5618915  )
        29           H   tau(  29) = (   0.6237108   1.3028638   0.9737873  )
        30           H   tau(  30) = (   0.1464781   0.7067065   0.1561451  )
        31           H   tau(  31) = (   0.3188852   1.7126803   0.9670915  )
        32           H   tau(  32) = (   0.8413733   0.2958846   0.1476960  )
        33           H   tau(  33) = (   0.8773021   1.7127804   1.3289144  )
        34           H   tau(  34) = (   0.4012392   0.2866134   0.5073993  )
        35           H   tau(  35) = (   0.0580985   1.2877183   1.3253767  )
        36           H   tau(  36) = (   0.5815079   0.7160698   0.5078167  )
        37           H   tau(  37) = (   0.2962105   1.9589784   0.6635362  )
        38           H   tau(  38) = (   0.7774952   0.0511627   1.4864579  )
        39           H   tau(  39) = (   0.7854180   1.0272921   1.2259958  )
        40           H   tau(  40) = (   0.3057310   0.9731271   0.4085459  )
        41           N   tau(  41) = (   0.5912202   1.7049293   1.1581371  )
        42           N   tau(  42) = (   0.1139590   0.2981378   0.3385740  )
        43           N   tau(  43) = (   0.3473934   1.3024713   1.1597967  )
        44           N   tau(  44) = (   0.8700476   0.7028550   0.3418423  )
        45           Ni  tau(  45) = (   0.4635628   1.5051113   1.3742078  )
        46           Ni  tau(  46) = (   0.9875994   0.4967040   0.5573198  )
        47           O   tau(  47) = (   0.2316209   0.6963678   0.6291172  )
        48           O   tau(  48) = (   0.7103381   1.3038072   1.4480936  )
        49           O   tau(  49) = (   0.7415322   0.2954339   0.6197595  )
        50           O   tau(  50) = (   0.2183012   1.7071304   1.4398270  )
        51           O   tau(  51) = (   0.9285576   0.7133339   0.7936309  )
        52           O   tau(  52) = (   0.4066087   1.2846559   1.6100834  )
        53           O   tau(  53) = (   0.0401684   0.2707008   0.7904826  )
        54           O   tau(  54) = (   0.5177231   1.7279720   1.6092980  )
        55           O   tau(  55) = (   0.4373454   0.0123676   0.6932427  )
        56           O   tau(  56) = (   0.9178632   1.9955023   1.5153986  )
        57           O   tau(  57) = (   0.8739547   0.9721337   1.1116146  )
        58           O   tau(  58) = (   0.3929026   1.0284037   0.2931771  )

     number of k points=     1  Marzari-Vanderbilt smearing, width (Ry)=  0.2000
                       cart. coord. in units 2pi/alat
        k(    1) = (   0.0000000   0.0000000   0.0000000), wk =   1.0000000

     Dense  grid:   366763 G-vectors     FFT dimensions: (  75, 160, 125)

     Estimated max dynamical RAM per process >     188.02 MB

     Estimated total dynamical RAM >       2.94 GB
     Generating pointlists ...
     new r_m :   0.0716 (alat units)  0.8462 (a.u.) for type    1
     new r_m :   0.0639 (alat units)  0.7545 (a.u.) for type    2
     new r_m :   0.0890 (alat units)  1.0514 (a.u.) for type    3
     new r_m :   0.1308 (alat units)  1.5454 (a.u.) for type    4
     new r_m :   0.0639 (alat units)  0.7545 (a.u.) for type    5

     Check: negative core charge=   -0.000145

     Initial potential from superposition of free atoms

     starting charge  223.99834, renormalised to  224.00000


     %%%%%%%%%%%%%%%%%%%%%%%%%%%%%%%%%%%%%%%%%%%%%%%%%%%%%%%%%%%%%%%%%%%%%%%%
     %                                                                      %
     % You are using vdW-DF, which was implemented by the Thonhauser group. %
     % Please cite the following two papers that made this development      %
     % possible and the two reviews that describe the various versions:     %
     %                                                                      %
     %   T. Thonhauser et al., PRL 115, 136402 (2015).                      %
     %   T. Thonhauser et al., PRB 76, 125112 (2007).                       %
     %   K. Berland et al., Rep. Prog. Phys. 78, 066501 (2015).             %
     %   D.C. Langreth et al., J. Phys.: Condens. Matter 21, 084203 (2009). %
     %                                                                      %
     %                                                                      %
     % If you are calculating the stress with vdW-DF, please also cite:     %
     %                                                                      %
     %   R. Sabatini et al., J. Phys.: Condens. Matter 24, 424209 (2012).   %
     %                                                                      %
     %%%%%%%%%%%%%%%%%%%%%%%%%%%%%%%%%%%%%%%%%%%%%%%%%%%%%%%%%%%%%%%%%%%%%%%%


     Starting wfcs are  194 randomized atomic wfcs

     total cpu time spent up to now is        9.5 secs

     Self-consistent Calculation

     iteration #  1     ecut=   100.00 Ry     beta= 0.70
     Davidson diagonalization with overlap
     ethr =  1.00E-02,  avg # of iterations =  5.0

     total cpu time spent up to now is       20.3 secs

     total energy              =    -949.11404625 Ry
     Harris-Foulkes estimate   =    -954.12963816 Ry
     estimated scf accuracy    <      12.45892771 Ry

     total magnetization       =     4.00 Bohr mag/cell
     absolute magnetization    =     4.44 Bohr mag/cell

     iteration #  2     ecut=   100.00 Ry     beta= 0.70
     Davidson diagonalization with overlap
     ethr =  5.56E-03,  avg # of iterations =  2.0

     total cpu time spent up to now is       27.7 secs

     total energy              =    -951.08131716 Ry
     Harris-Foulkes estimate   =    -953.22744493 Ry
     estimated scf accuracy    <       9.95973615 Ry

     total magnetization       =     4.00 Bohr mag/cell
     absolute magnetization    =     4.10 Bohr mag/cell

     iteration #  3     ecut=   100.00 Ry     beta= 0.70
     Davidson diagonalization with overlap
     ethr =  4.45E-03,  avg # of iterations =  1.0

     total cpu time spent up to now is       34.0 secs

     total energy              =    -951.08359991 Ry
     Harris-Foulkes estimate   =    -951.56319692 Ry
     estimated scf accuracy    <       1.39550610 Ry

     total magnetization       =     4.00 Bohr mag/cell
     absolute magnetization    =     4.10 Bohr mag/cell

     iteration #  4     ecut=   100.00 Ry     beta= 0.70
     Davidson diagonalization with overlap
     ethr =  6.23E-04,  avg # of iterations =  7.0

     total cpu time spent up to now is       42.0 secs

     total energy              =    -951.01325397 Ry
     Harris-Foulkes estimate   =    -951.48193614 Ry
     estimated scf accuracy    <       3.42215191 Ry

     total magnetization       =     4.00 Bohr mag/cell
     absolute magnetization    =     4.14 Bohr mag/cell

     iteration #  5     ecut=   100.00 Ry     beta= 0.70
     Davidson diagonalization with overlap
     ethr =  6.23E-04,  avg # of iterations =  2.5

     total cpu time spent up to now is       48.5 secs

     total energy              =    -951.23888383 Ry
     Harris-Foulkes estimate   =    -951.27787786 Ry
     estimated scf accuracy    <       0.32175086 Ry

     total magnetization       =     4.00 Bohr mag/cell
     absolute magnetization    =     4.14 Bohr mag/cell

     iteration #  6     ecut=   100.00 Ry     beta= 0.70
     Davidson diagonalization with overlap
     ethr =  1.44E-04,  avg # of iterations =  3.5

     total cpu time spent up to now is       55.0 secs

     total energy              =    -951.23240600 Ry
     Harris-Foulkes estimate   =    -951.25956121 Ry
     estimated scf accuracy    <       0.49666374 Ry

     total magnetization       =     4.00 Bohr mag/cell
     absolute magnetization    =     4.15 Bohr mag/cell

     iteration #  7     ecut=   100.00 Ry     beta= 0.70
     Davidson diagonalization with overlap
     ethr =  1.44E-04,  avg # of iterations =  2.5

     total cpu time spent up to now is       61.6 secs

     total energy              =    -951.19597012 Ry
     Harris-Foulkes estimate   =    -951.24417877 Ry
     estimated scf accuracy    <       0.25982088 Ry

     total magnetization       =     4.00 Bohr mag/cell
     absolute magnetization    =     4.15 Bohr mag/cell

     iteration #  8     ecut=   100.00 Ry     beta= 0.70
     Davidson diagonalization with overlap
     ethr =  1.16E-04,  avg # of iterations =  6.0

     total cpu time spent up to now is       68.7 secs

     total energy              =    -951.20980674 Ry
     Harris-Foulkes estimate   =    -951.22075782 Ry
     estimated scf accuracy    <       0.05850434 Ry

     total magnetization       =     4.00 Bohr mag/cell
     absolute magnetization    =     4.16 Bohr mag/cell

     iteration #  9     ecut=   100.00 Ry     beta= 0.70
     Davidson diagonalization with overlap
     ethr =  2.61E-05,  avg # of iterations =  6.0

     total cpu time spent up to now is       76.2 secs

     total energy              =    -951.21060681 Ry
     Harris-Foulkes estimate   =    -951.21316835 Ry
     estimated scf accuracy    <       0.00589600 Ry

     total magnetization       =     4.00 Bohr mag/cell
     absolute magnetization    =     4.16 Bohr mag/cell

     iteration # 10     ecut=   100.00 Ry     beta= 0.70
     Davidson diagonalization with overlap
     ethr =  2.63E-06,  avg # of iterations = 14.0

     total cpu time spent up to now is       85.0 secs

     total energy              =    -951.20988339 Ry
     Harris-Foulkes estimate   =    -951.21132445 Ry
     estimated scf accuracy    <       0.00741366 Ry

     total magnetization       =     4.00 Bohr mag/cell
     absolute magnetization    =     4.16 Bohr mag/cell

     iteration # 11     ecut=   100.00 Ry     beta= 0.70
     Davidson diagonalization with overlap
     ethr =  2.63E-06,  avg # of iterations =  2.5

     total cpu time spent up to now is       91.6 secs

     total energy              =    -951.21032845 Ry
     Harris-Foulkes estimate   =    -951.21047063 Ry
     estimated scf accuracy    <       0.00100395 Ry

     total magnetization       =     4.00 Bohr mag/cell
     absolute magnetization    =     4.16 Bohr mag/cell

     iteration # 12     ecut=   100.00 Ry     beta= 0.70
     Davidson diagonalization with overlap
     ethr =  4.48E-07,  avg # of iterations =  3.0

     total cpu time spent up to now is       98.4 secs

     total energy              =    -951.21039201 Ry
     Harris-Foulkes estimate   =    -951.21039527 Ry
     estimated scf accuracy    <       0.00022736 Ry

     total magnetization       =     4.00 Bohr mag/cell
     absolute magnetization    =     4.15 Bohr mag/cell

     iteration # 13     ecut=   100.00 Ry     beta= 0.70
     Davidson diagonalization with overlap
     ethr =  1.02E-07,  avg # of iterations =  4.0

     total cpu time spent up to now is      105.8 secs

     total energy              =    -951.21040363 Ry
     Harris-Foulkes estimate   =    -951.21041510 Ry
     estimated scf accuracy    <       0.00007514 Ry

     total magnetization       =     4.00 Bohr mag/cell
     absolute magnetization    =     4.15 Bohr mag/cell

     iteration # 14     ecut=   100.00 Ry     beta= 0.70
     Davidson diagonalization with overlap
     ethr =  3.35E-08,  avg # of iterations =  4.5

     total cpu time spent up to now is      112.8 secs

     total energy              =    -951.21039845 Ry
     Harris-Foulkes estimate   =    -951.21041116 Ry
     estimated scf accuracy    <       0.00002426 Ry

     total magnetization       =     4.00 Bohr mag/cell
     absolute magnetization    =     4.15 Bohr mag/cell

     iteration # 15     ecut=   100.00 Ry     beta= 0.70
     Davidson diagonalization with overlap
     ethr =  1.08E-08,  avg # of iterations =  5.0

     total cpu time spent up to now is      120.9 secs

     total energy              =    -951.21040332 Ry
     Harris-Foulkes estimate   =    -951.21040203 Ry
     estimated scf accuracy    <       0.00001115 Ry

     total magnetization       =     4.00 Bohr mag/cell
     absolute magnetization    =     4.15 Bohr mag/cell

     iteration # 16     ecut=   100.00 Ry     beta= 0.70
     Davidson diagonalization with overlap
     ethr =  4.98E-09,  avg # of iterations =  4.5

     total cpu time spent up to now is      129.2 secs

     total energy              =    -951.21040690 Ry
     Harris-Foulkes estimate   =    -951.21040551 Ry
     estimated scf accuracy    <       0.00000893 Ry

     total magnetization       =     4.00 Bohr mag/cell
     absolute magnetization    =     4.16 Bohr mag/cell

     iteration # 17     ecut=   100.00 Ry     beta= 0.70
     Davidson diagonalization with overlap
     ethr =  3.99E-09,  avg # of iterations =  3.0

     total cpu time spent up to now is      136.2 secs

     total energy              =    -951.21040882 Ry
     Harris-Foulkes estimate   =    -951.21040792 Ry
     estimated scf accuracy    <       0.00000421 Ry

     total magnetization       =     4.00 Bohr mag/cell
     absolute magnetization    =     4.16 Bohr mag/cell

     iteration # 18     ecut=   100.00 Ry     beta= 0.70
     Davidson diagonalization with overlap
     ethr =  1.88E-09,  avg # of iterations =  3.5
 
     Magnetic moment per site:
     atom:    1    charge:    0.8455    magn:    0.0026    constr:    0.0000
     atom:    2    charge:    0.8448    magn:    0.0025    constr:    0.0000
     atom:    3    charge:    0.8686    magn:    0.0067    constr:    0.0000
     atom:    4    charge:    0.8675    magn:    0.0067    constr:    0.0000
     atom:    5    charge:    0.8606    magn:    0.0048    constr:    0.0000
     atom:    6    charge:    0.8603    magn:    0.0049    constr:    0.0000
     atom:    7    charge:    0.8607    magn:    0.0042    constr:    0.0000
     atom:    8    charge:    0.8603    magn:    0.0043    constr:    0.0000
     atom:    9    charge:    0.8534    magn:    0.0074    constr:    0.0000
     atom:   10    charge:    0.8525    magn:    0.0074    constr:    0.0000
     atom:   11    charge:    0.8566    magn:    0.0093    constr:    0.0000
     atom:   12    charge:    0.8565    magn:    0.0094    constr:    0.0000
     atom:   13    charge:    0.8564    magn:    0.0067    constr:    0.0000
     atom:   14    charge:    0.8563    magn:    0.0067    constr:    0.0000
     atom:   15    charge:    0.8597    magn:    0.0099    constr:    0.0000
     atom:   16    charge:    0.8596    magn:    0.0098    constr:    0.0000
     atom:   17    charge:    0.8457    magn:    0.0021    constr:    0.0000
     atom:   18    charge:    0.8451    magn:    0.0022    constr:    0.0000
     atom:   19    charge:    0.8699    magn:    0.0066    constr:    0.0000
     atom:   20    charge:    0.8679    magn:    0.0066    constr:    0.0000
     atom:   21    charge:    0.8363    magn:   -0.0024    constr:    0.0000
     atom:   22    charge:    0.8356    magn:   -0.0024    constr:    0.0000
     atom:   23    charge:    0.8364    magn:   -0.0021    constr:    0.0000
     atom:   24    charge:    0.8367    magn:   -0.0023    constr:    0.0000
     atom:   25    charge:    0.3958    magn:   -0.0012    constr:    0.0000
     atom:   26    charge:    0.3956    magn:   -0.0012    constr:    0.0000
     atom:   27    charge:    0.3975    magn:   -0.0010    constr:    0.0000
     atom:   28    charge:    0.3976    magn:   -0.0011    constr:    0.0000
     atom:   29    charge:    0.4012    magn:   -0.0011    constr:    0.0000
     atom:   30    charge:    0.4013    magn:   -0.0011    constr:    0.0000
     atom:   31    charge:    0.3969    magn:   -0.0010    constr:    0.0000
     atom:   32    charge:    0.3966    magn:   -0.0010    constr:    0.0000
     atom:   33    charge:    0.3961    magn:   -0.0007    constr:    0.0000
     atom:   34    charge:    0.3966    magn:   -0.0006    constr:    0.0000
     atom:   35    charge:    0.3937    magn:   -0.0011    constr:    0.0000
     atom:   36    charge:    0.3934    magn:   -0.0011    constr:    0.0000
     atom:   37    charge:    0.3950    magn:   -0.0001    constr:    0.0000
     atom:   38    charge:    0.3954    magn:   -0.0001    constr:    0.0000
     atom:   39    charge:    0.3943    magn:   -0.0001    constr:    0.0000
     atom:   40    charge:    0.3946    magn:   -0.0001    constr:    0.0000
     atom:   41    charge:    2.4978    magn:    0.0105    constr:    0.0000
     atom:   42    charge:    2.4975    magn:    0.0105    constr:    0.0000
     atom:   43    charge:    2.5001    magn:    0.0103    constr:    0.0000
     atom:   44    charge:    2.4973    magn:    0.0107    constr:    0.0000
     atom:   45    charge:    7.4614    magn:    1.1712    constr:    0.0000
     atom:   46    charge:    7.4602    magn:    1.1696    constr:    0.0000
     atom:   47    charge:    1.9704    magn:    0.0338    constr:    0.0000
     atom:   48    charge:    1.9702    magn:    0.0350    constr:    0.0000
     atom:   49    charge:    1.9673    magn:    0.0394    constr:    0.0000
     atom:   50    charge:    1.9672    magn:    0.0397    constr:    0.0000
     atom:   51    charge:    1.9669    magn:    0.0396    constr:    0.0000
     atom:   52    charge:    1.9667    magn:    0.0407    constr:    0.0000
     atom:   53    charge:    1.9679    magn:    0.0395    constr:    0.0000
     atom:   54    charge:    1.9671    magn:    0.0395    constr:    0.0000
     atom:   55    charge:    1.9861    magn:    0.0140    constr:    0.0000
     atom:   56    charge:    1.9839    magn:    0.0137    constr:    0.0000
     atom:   57    charge:    1.9825    magn:    0.0161    constr:    0.0000
     atom:   58    charge:    1.9839    magn:    0.0160    constr:    0.0000

     total cpu time spent up to now is      144.1 secs

     End of self-consistent calculation

 ------ SPIN UP ------------


          k = 0.0000 0.0000 0.0000 ( 45819 PWs)   bands (ev):

   -22.0540 -22.0260 -21.9330 -21.9119 -21.4956 -21.4891 -21.4649 -21.4230
   -19.0754 -19.0483 -19.0207 -19.0118 -18.9574 -18.9361 -18.8413 -18.7957
   -15.4025 -15.3666 -15.3147 -15.2952 -14.0958 -14.0807 -14.0452 -13.7729
   -11.7431 -11.6542 -11.6012 -11.5678 -11.3028 -11.2681 -11.1593 -11.1181
    -9.5763  -9.3087  -9.2204  -9.1688  -9.1476  -8.9356  -8.8946  -8.7536
    -7.8698  -7.6894  -7.6829  -7.6048  -7.4955  -7.3410  -7.0086  -6.8623
    -6.6151  -6.5021  -6.4883  -6.3753  -6.2673  -6.2056  -6.1536  -6.1202
    -6.1082  -6.0013  -5.9458  -5.8825  -5.8635  -5.8538  -5.8177  -5.7746
    -5.6447  -5.3988  -5.1649  -4.9334  -4.7455  -4.7371  -4.5888  -4.5474
    -4.5170  -4.3752  -4.3369  -4.2916  -4.2331  -4.1849  -4.1322  -4.1162
    -3.8315  -3.7607  -3.6659  -3.4429  -3.1804  -3.1047  -2.9958  -2.9575
    -2.8984  -2.8149  -2.7460  -2.6780  -2.5516  -2.3576  -2.2453  -2.2148
    -2.1106  -2.0511  -1.9943  -1.8935  -1.8836  -1.7756  -1.7633  -1.7462
    -1.6377  -1.6274  -1.0290  -0.9390  -0.8783  -0.8027   0.0682   0.1028
     0.3011   0.3295   2.0920   2.1343   2.1591   2.3363   2.6796   3.1955
     3.3150   3.3970   3.7293   3.8561   4.0328   4.4995   4.5854   4.6105
     4.8220   4.9017   4.9879   5.0560   5.2057   5.7810   5.8711   5.9979
     6.3030

 ------ SPIN DOWN ----------


          k = 0.0000 0.0000 0.0000 ( 45819 PWs)   bands (ev):

   -21.9590 -21.9273 -21.8397 -21.8161 -21.4487 -21.4436 -21.4185 -21.3728
   -18.9545 -18.9355 -18.9158 -18.9002 -18.8759 -18.8657 -18.8075 -18.7630
   -15.3673 -15.3313 -15.2782 -15.2591 -14.0521 -14.0374 -14.0018 -13.7284
   -11.7032 -11.6170 -11.5643 -11.5319 -11.2815 -11.2442 -11.1376 -11.0912
    -9.5566  -9.2928  -9.2045  -9.1528  -9.1188  -8.9045  -8.8660  -8.7213
    -7.8305  -7.6665  -7.6554  -7.5817  -7.4571  -7.2849  -6.9535  -6.8043
    -6.5454  -6.4016  -6.3880  -6.2675  -6.1468  -6.1339  -6.0773  -6.0529
    -6.0336  -5.9088  -5.8493  -5.8347  -5.8312  -5.7566  -5.7429  -5.6878
    -5.5591  -5.2978  -5.0631  -4.8341  -4.7158  -4.7046  -4.5513  -4.4901
    -4.4100  -4.2539  -4.2380  -4.1933  -4.1190  -4.0357  -3.9863  -3.8996
    -3.6664  -3.5629  -3.3031  -3.2105  -2.8930  -2.7559  -2.6861  -2.5444
    -2.4275  -2.4044  -2.2836  -2.2476  -2.2040  -2.1214  -1.9737  -1.8902
    -1.8030  -1.7683  -1.5125  -1.4935  -1.2672  -1.1095  -0.9754  -0.9641
    -0.9526  -0.9421  -0.7698  -0.7345  -0.6887  -0.6570   0.9398   0.9720
     1.1369   1.1527   2.2207   2.2414   2.2947   2.4451   2.6328   3.1860
     3.3916   3.4942   3.8180   3.9596   4.0087   4.4956   4.5753   4.6795
     4.9108   4.9568   5.0292   5.0621   5.2244   5.7885   5.8609   5.9898
     6.2767

     the spin up/dw Fermi energies are     0.6160    0.2902 ev

!    total energy              =    -951.21040882 Ry
     Harris-Foulkes estimate   =    -951.21040944 Ry
     estimated scf accuracy    <       0.00000098 Ry

     The total energy is the sum of the following terms:

     one-electron contribution =   -1311.27799641 Ry
     hartree contribution      =     741.13795525 Ry
     xc contribution           =    -287.93260350 Ry
     ewald contribution        =     -94.25454948 Ry
     Dispersion Correction     =      -0.24461765 Ry
     smearing contrib. (-TS)   =       1.36140298 Ry

     total magnetization       =     4.00 Bohr mag/cell
     absolute magnetization    =     4.16 Bohr mag/cell

     convergence has been achieved in  18 iterations

     Forces acting on atoms (cartesian axes, Ry/au):

     atom    1 type  1   force =    -0.07758190   -0.01958079   -0.02797582
     atom    2 type  1   force =    -0.07753146    0.02118588   -0.02776729
     atom    3 type  1   force =     0.03883090    0.02749440   -0.00769329
     atom    4 type  1   force =     0.03916244   -0.02780018   -0.00822585
     atom    5 type  1   force =     0.00009571   -0.00158941   -0.00850466
     atom    6 type  1   force =    -0.00108273    0.00210238   -0.00891942
     atom    7 type  1   force =     0.00590756    0.00019666    0.00348484
     atom    8 type  1   force =     0.00639170    0.00050646    0.00192203
     atom    9 type  1   force =     0.01707666    0.00172770   -0.01843808
     atom   10 type  1   force =     0.01749526   -0.00198435   -0.01812986
     atom   11 type  1   force =    -0.01702240   -0.02812841    0.02450440
     atom   12 type  1   force =    -0.01619703    0.02788723    0.02505820
     atom   13 type  1   force =     0.02851949   -0.02840926    0.00964459
     atom   14 type  1   force =     0.02834323    0.03122724    0.00714976
     atom   15 type  1   force =     0.00775196    0.03467239    0.03037276
     atom   16 type  1   force =     0.00774860   -0.03497040    0.03102229
     atom   17 type  1   force =    -0.05878574    0.01944029    0.04714590
     atom   18 type  1   force =    -0.05898717   -0.01806976    0.04714684
     atom   19 type  1   force =     0.00806169   -0.03422533   -0.03847594
     atom   20 type  1   force =     0.00852806    0.03310051   -0.03877879
     atom   21 type  1   force =    -0.01468357   -0.00547489    0.00052877
     atom   22 type  1   force =    -0.01403581    0.00608097    0.00076811
     atom   23 type  1   force =    -0.01139844    0.00984670    0.01881339
     atom   24 type  1   force =    -0.01336463   -0.00849020    0.01969185
     atom   25 type  2   force =    -0.01668324   -0.00244322   -0.00569731
     atom   26 type  2   force =    -0.01617318    0.00255898   -0.00594974
     atom   27 type  2   force =    -0.01032408    0.00294156    0.01224859
     atom   28 type  2   force =    -0.00956147   -0.00265085    0.01178455
     atom   29 type  2   force =    -0.01723801   -0.00595801    0.00085326
     atom   30 type  2   force =    -0.01778850    0.00520268    0.00027468
     atom   31 type  2   force =     0.00964851    0.00716350   -0.00353473
     atom   32 type  2   force =     0.00974742   -0.00774560   -0.00336674
     atom   33 type  2   force =    -0.01680050    0.00361142   -0.03009189
     atom   34 type  2   force =    -0.01817602   -0.00248475   -0.03266270
     atom   35 type  2   force =     0.00797029   -0.00761104   -0.01260131
     atom   36 type  2   force =     0.00680747    0.00811939   -0.01269428
     atom   37 type  2   force =     0.00158234   -0.02598376    0.03862301
     atom   38 type  2   force =     0.00225376    0.02598698    0.03799661
     atom   39 type  2   force =     0.03370348    0.03718203    0.01405952
     atom   40 type  2   force =     0.03448551   -0.03657465    0.01388426
     atom   41 type  3   force =    -0.00432388    0.00801958   -0.01923820
     atom   42 type  3   force =    -0.00524273   -0.00710901   -0.02139899
     atom   43 type  3   force =    -0.01729814   -0.00044580   -0.00171874
     atom   44 type  3   force =    -0.01740732    0.00088428   -0.00195047
     atom   45 type  4   force =    -0.00662070    0.03061912    0.00413543
     atom   46 type  4   force =     0.00203129   -0.03255834    0.00599933
     atom   47 type  5   force =     0.03527624    0.01034340   -0.01733921
     atom   48 type  5   force =     0.03081959   -0.00937245   -0.01555765
     atom   49 type  5   force =    -0.01449244    0.00069666   -0.00447111
     atom   50 type  5   force =    -0.01500830    0.00036642   -0.00707176
     atom   51 type  5   force =    -0.00797469    0.00322704    0.00802819
     atom   52 type  5   force =    -0.00818207   -0.00483033    0.00709185
     atom   53 type  5   force =     0.02144255   -0.01131571    0.01814810
     atom   54 type  5   force =     0.02077128    0.01082553    0.01842793
     atom   55 type  5   force =     0.06059266    0.00319747    0.01564873
     atom   56 type  5   force =     0.06052219   -0.01079148    0.01773319
     atom   57 type  5   force =     0.01435679   -0.04830118   -0.04854079
     atom   58 type  5   force =     0.01404150    0.04848433   -0.04539638

     Total force =     0.304778     Total SCF correction =     0.002039

     BFGS Geometry Optimization

     number of scf cycles    =   1
     number of bfgs steps    =   0

     energy   new            =    -951.2104088189 Ry

     new trust radius        =       0.0850352348 bohr
     new conv_thr            =       0.0000010000 Ry


ATOMIC_POSITIONS (crystal)
C             0.5698067633        0.9692226122        0.5205431041
C             0.0701444225        0.0320012108        0.0208778446
C             0.7845408532        0.0129317780        0.5460957567
C             0.2837879136        0.9865693012        0.0457223271
C             0.9038221564        0.9701348392        0.6499329673
C             0.4049326465        0.0284418363        0.1494336050
C             0.4168694925        0.5297123100        0.5265634870
C             0.9176355360        0.4714304003        0.0280029944
C             0.4916846388        0.6134040043        0.6054853459
C             0.9950846428        0.3885931511        0.1076832205
C             0.4975573259        0.8880174318        0.6044651005
C             0.0008152150        0.1134103769        0.1055376237
C             0.8183856981        0.8881825646        0.7280487450
C             0.3222811035        0.1108665094        0.2281802488
C             0.1784369922        0.6104480843        0.7289163504
C             0.6824939258        0.3901553233        0.2309918046
C             0.0889633219        0.5259004511        0.6537402518
C             0.5904122768        0.4739474607        0.1551823000
C             0.2169381331        0.4828238061        0.5481342948
C             0.7163140341        0.5170546646        0.0486406964
C             0.8653773144        0.0990876580        0.4666482345
C             0.3618485834        0.8999769520        0.9657115613
C             0.1338256152        0.3948900730        0.4716449845
C             0.6309918624        0.6038132459        0.9701212298
H             0.0627024092        0.9987017614        0.6732265598
H             0.5633011030        0.9987731298        0.1722955585
H             0.5165502313        0.5010192959        0.4499128641
H             0.0164949010        0.5002849881        0.9511549640
H             0.6438247391        0.6502542437        0.5926789470
H             0.1484320665        0.3530708398        0.0950421475
H             0.3411179306        0.8554256944        0.5883779435
H             0.8454636169        0.1474047093        0.0897125959
H             0.9052617523        0.8553256008        0.8072111160
H             0.4108795224        0.1429980067        0.3071147059
H             0.0881089050        0.6426223947        0.8059589691
H             0.5933093213        0.3578690855        0.3083971804
H             0.3111153218        0.9769990542        0.4058092800
H             0.8106849698        0.0266430820        0.9065970169
H             0.8154546976        0.5144871293        0.7468501361
H             0.3177255526        0.4843265355        0.2493511096
N             0.6164730015        0.8515918678        0.7038371357
N             0.1209751883        0.1485566084        0.2049498439
N             0.3716178288        0.6502911626        0.7057494764
N             0.8761431547        0.3509653654        0.2079405409
Ni            0.4934514400        0.7527798130        0.8365389956
Ni            1.0001281564        0.2466232449        0.3394869958
O             0.2485099377        0.3481260611        0.3819799434
O             0.7449951095        0.6505809663        0.8804907027
O             0.7540261160        0.1475364375        0.3769477155
O             0.2489125831        0.8523674832        0.8758967688
O             0.9454781489        0.3562963587        0.4834074924
O             0.4415958434        0.6412108938        0.9802422662
O             0.0595277153        0.1346798537        0.4820127185
O             0.5551644301        0.8632154336        0.9803481315
O             0.4578593200        0.0063101094        0.4227049886
O             0.9565872644        0.9958770052        0.9231663487
O             0.8997030210        0.4833350298        0.6740149045
O             0.4005002331        0.5155197092        0.1760858575



     Writing output data file ./QE_relaxation_results/VDW_relax/NiPyC2_relax/NiPyC2_relax_meta_functionalized_OH_vdw-df2_relax.save/
     NEW-OLD atomic charge density approx. for the potential

     Check: negative core charge=   -0.000145

     total cpu time spent up to now is      151.5 secs

     Self-consistent Calculation

     iteration #  1     ecut=   100.00 Ry     beta= 0.70
     Davidson diagonalization with overlap
     ethr =  1.00E-06,  avg # of iterations = 10.5

     total cpu time spent up to now is      177.4 secs

     total energy              =    -951.22857048 Ry
     Harris-Foulkes estimate   =    -951.24063388 Ry
     estimated scf accuracy    <       0.04460130 Ry

     total magnetization       =     4.00 Bohr mag/cell
     absolute magnetization    =     4.15 Bohr mag/cell

     iteration #  2     ecut=   100.00 Ry     beta= 0.70
     Davidson diagonalization with overlap
     ethr =  1.99E-05,  avg # of iterations =  3.0

     total cpu time spent up to now is      184.4 secs

     total energy              =    -951.22678234 Ry
     Harris-Foulkes estimate   =    -951.23756961 Ry
     estimated scf accuracy    <       0.06152823 Ry

     total magnetization       =     4.00 Bohr mag/cell
     absolute magnetization    =     4.16 Bohr mag/cell

     iteration #  3     ecut=   100.00 Ry     beta= 0.70
     Davidson diagonalization with overlap
     ethr =  1.99E-05,  avg # of iterations =  1.5

     total cpu time spent up to now is      190.9 secs

     total energy              =    -951.23206090 Ry
     Harris-Foulkes estimate   =    -951.23585744 Ry
     estimated scf accuracy    <       0.03298663 Ry

     total magnetization       =     4.00 Bohr mag/cell
     absolute magnetization    =     4.15 Bohr mag/cell

     iteration #  4     ecut=   100.00 Ry     beta= 0.70
     Davidson diagonalization with overlap
     ethr =  1.47E-05,  avg # of iterations =  1.0

     total cpu time spent up to now is      197.1 secs

     total energy              =    -951.23352068 Ry
     Harris-Foulkes estimate   =    -951.23387335 Ry
     estimated scf accuracy    <       0.00171705 Ry

     total magnetization       =     4.00 Bohr mag/cell
     absolute magnetization    =     4.15 Bohr mag/cell

     iteration #  5     ecut=   100.00 Ry     beta= 0.70
     Davidson diagonalization with overlap
     ethr =  7.67E-07,  avg # of iterations =  4.0

     total cpu time spent up to now is      204.6 secs

     total energy              =    -951.23348321 Ry
     Harris-Foulkes estimate   =    -951.23400988 Ry
     estimated scf accuracy    <       0.00687496 Ry

     total magnetization       =     4.00 Bohr mag/cell
     absolute magnetization    =     4.15 Bohr mag/cell

     iteration #  6     ecut=   100.00 Ry     beta= 0.70
     Davidson diagonalization with overlap
     ethr =  7.67E-07,  avg # of iterations =  1.5

     total cpu time spent up to now is      210.9 secs

     total energy              =    -951.23369932 Ry
     Harris-Foulkes estimate   =    -951.23375583 Ry
     estimated scf accuracy    <       0.00027244 Ry

     total magnetization       =     4.00 Bohr mag/cell
     absolute magnetization    =     4.15 Bohr mag/cell

     iteration #  7     ecut=   100.00 Ry     beta= 0.70
     Davidson diagonalization with overlap
     ethr =  1.22E-07,  avg # of iterations =  2.5

     total cpu time spent up to now is      217.6 secs

     total energy              =    -951.23371469 Ry
     Harris-Foulkes estimate   =    -951.23372690 Ry
     estimated scf accuracy    <       0.00007349 Ry

     total magnetization       =     4.00 Bohr mag/cell
     absolute magnetization    =     4.15 Bohr mag/cell

     iteration #  8     ecut=   100.00 Ry     beta= 0.70
     Davidson diagonalization with overlap
     ethr =  3.28E-08,  avg # of iterations =  3.0

     total cpu time spent up to now is      224.7 secs

     total energy              =    -951.23372433 Ry
     Harris-Foulkes estimate   =    -951.23372372 Ry
     estimated scf accuracy    <       0.00002448 Ry

     total magnetization       =     4.00 Bohr mag/cell
     absolute magnetization    =     4.15 Bohr mag/cell

     iteration #  9     ecut=   100.00 Ry     beta= 0.70
     Davidson diagonalization with overlap
     ethr =  1.09E-08,  avg # of iterations =  3.5

     total cpu time spent up to now is      232.3 secs

     total energy              =    -951.23373290 Ry
     Harris-Foulkes estimate   =    -951.23372783 Ry
     estimated scf accuracy    <       0.00000636 Ry

     total magnetization       =     4.00 Bohr mag/cell
     absolute magnetization    =     4.15 Bohr mag/cell

     iteration # 10     ecut=   100.00 Ry     beta= 0.70
     Davidson diagonalization with overlap
     ethr =  2.84E-09,  avg # of iterations =  4.0

     total cpu time spent up to now is      240.7 secs

     total energy              =    -951.23373552 Ry
     Harris-Foulkes estimate   =    -951.23373410 Ry
     estimated scf accuracy    <       0.00000316 Ry

     total magnetization       =     4.00 Bohr mag/cell
     absolute magnetization    =     4.15 Bohr mag/cell

     iteration # 11     ecut=   100.00 Ry     beta= 0.70
     Davidson diagonalization with overlap
     ethr =  1.41E-09,  avg # of iterations =  3.5

     total cpu time spent up to now is      248.4 secs

     total energy              =    -951.23374046 Ry
     Harris-Foulkes estimate   =    -951.23373591 Ry
     estimated scf accuracy    <       0.00000154 Ry

     total magnetization       =     4.00 Bohr mag/cell
     absolute magnetization    =     4.15 Bohr mag/cell

     iteration # 12     ecut=   100.00 Ry     beta= 0.70
     Davidson diagonalization with overlap
     ethr =  6.86E-10,  avg # of iterations =  4.5
 
     Magnetic moment per site:
     atom:    1    charge:    0.8422    magn:    0.0033    constr:    0.0000
     atom:    2    charge:    0.8416    magn:    0.0033    constr:    0.0000
     atom:    3    charge:    0.8600    magn:    0.0073    constr:    0.0000
     atom:    4    charge:    0.8590    magn:    0.0073    constr:    0.0000
     atom:    5    charge:    0.8610    magn:    0.0038    constr:    0.0000
     atom:    6    charge:    0.8606    magn:    0.0039    constr:    0.0000
     atom:    7    charge:    0.8624    magn:    0.0034    constr:    0.0000
     atom:    8    charge:    0.8619    magn:    0.0035    constr:    0.0000
     atom:    9    charge:    0.8529    magn:    0.0080    constr:    0.0000
     atom:   10    charge:    0.8519    magn:    0.0080    constr:    0.0000
     atom:   11    charge:    0.8635    magn:    0.0085    constr:    0.0000
     atom:   12    charge:    0.8637    magn:    0.0085    constr:    0.0000
     atom:   13    charge:    0.8557    magn:    0.0074    constr:    0.0000
     atom:   14    charge:    0.8558    magn:    0.0075    constr:    0.0000
     atom:   15    charge:    0.8645    magn:    0.0089    constr:    0.0000
     atom:   16    charge:    0.8641    magn:    0.0089    constr:    0.0000
     atom:   17    charge:    0.8378    magn:    0.0029    constr:    0.0000
     atom:   18    charge:    0.8372    magn:    0.0030    constr:    0.0000
     atom:   19    charge:    0.8609    magn:    0.0074    constr:    0.0000
     atom:   20    charge:    0.8588    magn:    0.0074    constr:    0.0000
     atom:   21    charge:    0.8351    magn:   -0.0023    constr:    0.0000
     atom:   22    charge:    0.8343    magn:   -0.0023    constr:    0.0000
     atom:   23    charge:    0.8347    magn:   -0.0023    constr:    0.0000
     atom:   24    charge:    0.8353    magn:   -0.0025    constr:    0.0000
     atom:   25    charge:    0.3963    magn:   -0.0010    constr:    0.0000
     atom:   26    charge:    0.3957    magn:   -0.0010    constr:    0.0000
     atom:   27    charge:    0.3991    magn:   -0.0009    constr:    0.0000
     atom:   28    charge:    0.3996    magn:   -0.0009    constr:    0.0000
     atom:   29    charge:    0.4055    magn:   -0.0011    constr:    0.0000
     atom:   30    charge:    0.4057    magn:   -0.0011    constr:    0.0000
     atom:   31    charge:    0.4038    magn:   -0.0008    constr:    0.0000
     atom:   32    charge:    0.4033    magn:   -0.0007    constr:    0.0000
     atom:   33    charge:    0.4045    magn:   -0.0010    constr:    0.0000
     atom:   34    charge:    0.4048    magn:   -0.0009    constr:    0.0000
     atom:   35    charge:    0.4031    magn:   -0.0008    constr:    0.0000
     atom:   36    charge:    0.4030    magn:   -0.0008    constr:    0.0000
     atom:   37    charge:    0.3686    magn:   -0.0000    constr:    0.0000
     atom:   38    charge:    0.3680    magn:   -0.0001    constr:    0.0000
     atom:   39    charge:    0.3683    magn:   -0.0001    constr:    0.0000
     atom:   40    charge:    0.3694    magn:   -0.0001    constr:    0.0000
     atom:   41    charge:    2.4990    magn:    0.0106    constr:    0.0000
     atom:   42    charge:    2.4995    magn:    0.0105    constr:    0.0000
     atom:   43    charge:    2.4968    magn:    0.0111    constr:    0.0000
     atom:   44    charge:    2.4939    magn:    0.0115    constr:    0.0000
     atom:   45    charge:    7.4582    magn:    1.1825    constr:    0.0000
     atom:   46    charge:    7.4570    magn:    1.1827    constr:    0.0000
     atom:   47    charge:    1.9598    magn:    0.0366    constr:    0.0000
     atom:   48    charge:    1.9607    magn:    0.0379    constr:    0.0000
     atom:   49    charge:    1.9659    magn:    0.0373    constr:    0.0000
     atom:   50    charge:    1.9655    magn:    0.0376    constr:    0.0000
     atom:   51    charge:    1.9660    magn:    0.0386    constr:    0.0000
     atom:   52    charge:    1.9663    magn:    0.0395    constr:    0.0000
     atom:   53    charge:    1.9616    magn:    0.0402    constr:    0.0000
     atom:   54    charge:    1.9610    magn:    0.0401    constr:    0.0000
     atom:   55    charge:    1.9798    magn:    0.0092    constr:    0.0000
     atom:   56    charge:    1.9767    magn:    0.0090    constr:    0.0000
     atom:   57    charge:    1.9658    magn:    0.0116    constr:    0.0000
     atom:   58    charge:    1.9687    magn:    0.0115    constr:    0.0000

     total cpu time spent up to now is      257.3 secs

     End of self-consistent calculation

 ------ SPIN UP ------------


          k = 0.0000 0.0000 0.0000 ( 45819 PWs)   bands (ev):

   -22.2327 -22.2199 -21.9406 -21.8797 -21.7114 -21.6877 -21.6013 -21.5521
   -18.9328 -18.9140 -18.8933 -18.8850 -18.8707 -18.8584 -18.8037 -18.7872
   -15.1720 -15.1346 -15.1130 -15.0762 -14.0766 -14.0282 -13.9920 -13.7645
   -11.7880 -11.6888 -11.6432 -11.6085 -11.3786 -11.2263 -11.1786 -11.0724
    -9.5316  -9.3223  -9.2778  -9.2263  -9.1167  -9.1134  -9.0460  -8.8834
    -7.8287  -7.7242  -7.5667  -7.5089  -7.4645  -7.3030  -6.9681  -6.8261
    -6.5831  -6.4730  -6.4173  -6.3171  -6.1780  -6.1501  -6.1166  -6.0662
    -6.0311  -5.9586  -5.8941  -5.8881  -5.8858  -5.8608  -5.8087  -5.7884
    -5.6052  -5.3698  -5.2292  -4.9371  -4.8857  -4.7210  -4.6784  -4.6016
    -4.5641  -4.5482  -4.4591  -4.3984  -4.3797  -4.2853  -4.2020  -4.1663
    -4.0056  -3.9738  -3.6046  -3.4319  -3.1481  -3.0510  -3.0385  -2.9174
    -2.8322  -2.7836  -2.7354  -2.6199  -2.4813  -2.3229  -2.1864  -2.1592
    -2.0867  -2.0195  -1.9499  -1.8444  -1.8219  -1.7290  -1.7202  -1.6813
    -1.6076  -1.5912  -0.9291  -0.8713  -0.7799  -0.7293   0.1102   0.1467
     0.3339   0.3547   2.0248   2.0678   2.1029   2.2796   2.6585   3.1797
     3.3657   3.4521   3.7239   3.8795   3.9985   4.4794   4.5913   4.6340
     4.8435   4.8962   5.0279   5.0720   5.1728   5.7600   5.8659   6.0019
     6.3052

 ------ SPIN DOWN ----------


          k = 0.0000 0.0000 0.0000 ( 45819 PWs)   bands (ev):

   -22.2036 -22.1916 -21.8891 -21.8345 -21.6206 -21.5957 -21.5067 -21.4659
   -18.8957 -18.8656 -18.7946 -18.7779 -18.7479 -18.7428 -18.7322 -18.7191
   -15.1350 -15.0975 -15.0754 -15.0391 -14.0348 -13.9847 -13.9485 -13.7208
   -11.7484 -11.6513 -11.6060 -11.5750 -11.3601 -11.2007 -11.1558 -11.0522
    -9.5127  -9.2980  -9.2609  -9.2056  -9.0963  -9.0933  -9.0258  -8.8582
    -7.7917  -7.6952  -7.5431  -7.4826  -7.4248  -7.2501  -6.9164  -6.7700
    -6.5299  -6.3834  -6.3313  -6.2137  -6.1012  -6.0525  -6.0358  -6.0189
    -5.9737  -5.8970  -5.8506  -5.8074  -5.7933  -5.7839  -5.7039  -5.6907
    -5.5098  -5.2677  -5.1312  -4.8695  -4.8246  -4.6941  -4.6481  -4.5465
    -4.5019  -4.4603  -4.3893  -4.2866  -4.2675  -4.1644  -4.0985  -4.0860
    -3.9300  -3.5100  -3.2104  -3.1259  -2.9623  -2.7093  -2.6309  -2.5052
    -2.4107  -2.3818  -2.2295  -2.1822  -2.1206  -2.0682  -1.9171  -1.8570
    -1.7666  -1.7249  -1.4777  -1.4534  -1.1878  -1.0710  -0.9083  -0.9065
    -0.8975  -0.8751  -0.7065  -0.6391  -0.5913  -0.5706   0.9853   1.0192
     1.1678   1.1929   2.1555   2.1778   2.2410   2.3882   2.6106   3.1647
     3.4439   3.5457   3.8140   3.9502   4.0064   4.4699   4.5755   4.7041
     4.9332   4.9649   5.0466   5.0948   5.1992   5.7485   5.8754   5.9919
     6.2790

     the spin up/dw Fermi energies are     0.6719    0.3524 ev

!    total energy              =    -951.23374702 Ry
     Harris-Foulkes estimate   =    -951.23374096 Ry
     estimated scf accuracy    <       0.00000046 Ry

     The total energy is the sum of the following terms:

     one-electron contribution =   -1305.43562343 Ry
     hartree contribution      =     738.21663835 Ry
     xc contribution           =    -287.83041097 Ry
     ewald contribution        =     -97.22484274 Ry
     Dispersion Correction     =      -0.24480670 Ry
     smearing contrib. (-TS)   =       1.28529847 Ry

     total magnetization       =     4.00 Bohr mag/cell
     absolute magnetization    =     4.15 Bohr mag/cell

     convergence has been achieved in  12 iterations

     Forces acting on atoms (cartesian axes, Ry/au):

     atom    1 type  1   force =     0.05757519   -0.00907259    0.04829486
     atom    2 type  1   force =     0.05990665    0.00627849    0.04838462
     atom    3 type  1   force =    -0.04452661   -0.02562093   -0.00060784
     atom    4 type  1   force =    -0.04383089    0.02572649   -0.00072143
     atom    5 type  1   force =     0.00052164   -0.01127437   -0.00050013
     atom    6 type  1   force =     0.00134250    0.01105585   -0.00051897
     atom    7 type  1   force =    -0.00276291   -0.00842537   -0.00157978
     atom    8 type  1   force =    -0.00258009    0.00674789   -0.00150604
     atom    9 type  1   force =    -0.02993146   -0.00955497    0.00285979
     atom   10 type  1   force =    -0.03085600    0.00919882    0.00235792
     atom   11 type  1   force =    -0.00660600    0.00938433   -0.01334459
     atom   12 type  1   force =    -0.00869730   -0.00987273   -0.01487257
     atom   13 type  1   force =    -0.01476654    0.01350105   -0.05564406
     atom   14 type  1   force =    -0.01534497   -0.01285334   -0.05809835
     atom   15 type  1   force =    -0.01115911   -0.01067246   -0.00816511
     atom   16 type  1   force =    -0.01129635    0.01019678   -0.00876403
     atom   17 type  1   force =     0.03677223   -0.00358797   -0.03312883
     atom   18 type  1   force =     0.03701950    0.00239789   -0.03209331
     atom   19 type  1   force =    -0.01590283    0.02873167    0.04167245
     atom   20 type  1   force =    -0.01611324   -0.02778813    0.04110800
     atom   21 type  1   force =     0.01437603    0.01329083   -0.00357583
     atom   22 type  1   force =     0.01427555   -0.01433458   -0.00445643
     atom   23 type  1   force =     0.00646908   -0.01987626   -0.02188889
     atom   24 type  1   force =     0.00651326    0.01819043   -0.02059474
     atom   25 type  2   force =    -0.00458740    0.00043152   -0.00205188
     atom   26 type  2   force =    -0.00509136   -0.00076172   -0.00249911
     atom   27 type  2   force =    -0.00010551   -0.00044958    0.00328193
     atom   28 type  2   force =     0.00083516    0.00020749    0.00232425
     atom   29 type  2   force =     0.00567805    0.00488668   -0.00226199
     atom   30 type  2   force =     0.00587561   -0.00628081   -0.00269602
     atom   31 type  2   force =    -0.01458900   -0.00914197    0.00055776
     atom   32 type  2   force =    -0.01425412    0.00805501    0.00082261
     atom   33 type  2   force =     0.00736835   -0.01781191    0.00866192
     atom   34 type  2   force =     0.00691686    0.01803197    0.00661976
     atom   35 type  2   force =    -0.00582695    0.01219467    0.01834755
     atom   36 type  2   force =    -0.00674474   -0.01279881    0.01874652
     atom   37 type  2   force =     0.04179537    0.00051624    0.03379502
     atom   38 type  2   force =     0.04365091   -0.00306146    0.03305102
     atom   39 type  2   force =     0.04686847    0.00621418   -0.02659510
     atom   40 type  2   force =     0.04629304   -0.00737070   -0.02551481
     atom   41 type  3   force =     0.01545857   -0.01158463    0.01386796
     atom   42 type  3   force =     0.01581986    0.01225434    0.01421233
     atom   43 type  3   force =     0.01191268    0.01156957   -0.00747951
     atom   44 type  3   force =     0.01344803   -0.01289041   -0.00638145
     atom   45 type  4   force =     0.01418180   -0.00845909    0.00152101
     atom   46 type  4   force =    -0.00393665    0.02025556   -0.00008673
     atom   47 type  5   force =    -0.00088824    0.01572649    0.00205182
     atom   48 type  5   force =    -0.00295370   -0.01522118    0.00416850
     atom   49 type  5   force =    -0.00346609   -0.00301362    0.00368412
     atom   50 type  5   force =    -0.00392216    0.00364314    0.00312268
     atom   51 type  5   force =     0.00175859    0.00008811    0.00145799
     atom   52 type  5   force =    -0.00084557   -0.00156607    0.00237522
     atom   53 type  5   force =    -0.00324082   -0.01168552    0.00582752
     atom   54 type  5   force =    -0.00499526    0.01189774    0.00382974
     atom   55 type  5   force =    -0.04368660   -0.00884432   -0.03539198
     atom   56 type  5   force =    -0.05178058    0.00779471   -0.03618718
     atom   57 type  5   force =    -0.04498296   -0.00585127    0.03187213
     atom   58 type  5   force =    -0.04236099    0.01125883    0.02832968

     Total force =     0.268200     Total SCF correction =     0.001488

     number of scf cycles    =   2
     number of bfgs steps    =   1

     energy   old            =    -951.2104088189 Ry
     energy   new            =    -951.2337470168 Ry

     CASE: energy  _new < energy  _old

     new trust radius        =       0.0438479490 bohr
     new conv_thr            =       0.0000005991 Ry


ATOMIC_POSITIONS (crystal)
C             0.5715600669        0.9687704919        0.5218656647
C             0.0720308930        0.0323904216        0.0222060378
C             0.7827941285        0.0124826449        0.5459810749
C             0.2820868239        0.9870183602        0.0455972433
C             0.9038491968        0.9698003603        0.6498121087
C             0.4049823415        0.0287752685        0.1493070433
C             0.4168309709        0.5294761931        0.5265515375
C             0.9176164538        0.4716261444        0.0279745416
C             0.4903279547        0.6131512730        0.6053591734
C             0.9936835221        0.3888332529        0.1075435173
C             0.4968367614        0.8880014148        0.6043040578
C            -0.0000088538        0.1134101817        0.1053306997
C             0.8180555119        0.8882800697        0.7262496781
C             0.3219104675        0.1108154785        0.2262662463
C             0.1779638763        0.6104931212        0.7290052163
C             0.6820125128        0.3900938654        0.2310679563
C             0.0898468375        0.5259934062        0.6531736605
C             0.5913070528        0.4738345774        0.1546513874
C             0.2162346877        0.4832935531        0.5491008071
C             0.7156071757        0.5166003352        0.0495840763
C             0.8658926950        0.0994084963        0.4665315129
C             0.3623702490        0.8996326785        0.9655674247
C             0.1339444188        0.3944268492        0.4711202971
C             0.6310758111        0.6042423928        0.9696518221
H             0.0621036430        0.9986895304        0.6730864616
H             0.5626833545        0.9987771873        0.1721369803
H             0.5163470944        0.5010359985        0.4501751594
H             0.0163588654        0.5002643508        0.9513786190
H             0.6437984920        0.6503327689        0.5926114328
H             0.1484051778        0.3529453683        0.0949526335
H             0.3404845660        0.8552389750        0.5883540831
H             0.8448515924        0.1475548943        0.0896999048
H             0.9053399002        0.8548583773        0.8071427845
H             0.4109008757        0.1434827119        0.3069447086
H             0.0879561193        0.6428909029        0.8064373761
H             0.5930817685        0.3575885875        0.3088881964
H             0.3135719623        0.9767538839        0.4074439423
H             0.8132588595        0.0268163623        0.9081984199
H             0.8187549909        0.5150344355        0.7461054215
H             0.3210102133        0.4837526205        0.2486414688
N             0.6172701771        0.8513446820        0.7040803759
N             0.1217738873        0.1488318216        0.2051786153
N             0.3719355522        0.6506136373        0.7054709105
N             0.8765468612        0.3506099501        0.2076969727
Ni            0.4941252548        0.7528468747        0.8366417766
Ni            0.9999485806        0.2468701399        0.3395571125
O             0.2491608620        0.3486738607        0.3818393312
O             0.7454433478        0.6500571521        0.8804447058
O             0.7535424113        0.1474582435        0.3770201284
O             0.2483908808        0.8524740936        0.8759181539
O             0.9454233946        0.3563311091        0.4835555374
O             0.4413902863        0.6411183514        0.9804104943
O             0.0597889829        0.1342365232        0.4824345811
O             0.5553105824        0.8636598607        0.9807045932
O             0.4565626019        0.0060921526        0.4216766415
O             0.9548309746        0.9959893854        0.9221360119
O             0.8974630425        0.4826868210        0.6745212130
O             0.3983992887        0.5163225551        0.1765084665



     Writing output data file ./QE_relaxation_results/VDW_relax/NiPyC2_relax/NiPyC2_relax_meta_functionalized_OH_vdw-df2_relax.save/
     NEW-OLD atomic charge density approx. for the potential

     Check: negative core charge=   -0.000145

     total cpu time spent up to now is      264.8 secs

     Self-consistent Calculation

     iteration #  1     ecut=   100.00 Ry     beta= 0.70
     Davidson diagonalization with overlap
     ethr =  1.00E-06,  avg # of iterations = 10.0

     total cpu time spent up to now is      285.2 secs

     total energy              =    -951.25493113 Ry
     Harris-Foulkes estimate   =    -951.25718581 Ry
     estimated scf accuracy    <       0.01141779 Ry

     total magnetization       =     4.00 Bohr mag/cell
     absolute magnetization    =     4.16 Bohr mag/cell

     iteration #  2     ecut=   100.00 Ry     beta= 0.70
     Davidson diagonalization with overlap
     ethr =  5.10E-06,  avg # of iterations =  4.5

     total cpu time spent up to now is      292.6 secs

     total energy              =    -951.25471269 Ry
     Harris-Foulkes estimate   =    -951.25750353 Ry
     estimated scf accuracy    <       0.01666359 Ry

     total magnetization       =     4.00 Bohr mag/cell
     absolute magnetization    =     4.16 Bohr mag/cell

     iteration #  3     ecut=   100.00 Ry     beta= 0.70
     Davidson diagonalization with overlap
     ethr =  5.10E-06,  avg # of iterations =  2.0

     total cpu time spent up to now is      299.0 secs

     total energy              =    -951.25624066 Ry
     Harris-Foulkes estimate   =    -951.25706202 Ry
     estimated scf accuracy    <       0.00828761 Ry

     total magnetization       =     4.00 Bohr mag/cell
     absolute magnetization    =     4.16 Bohr mag/cell

     iteration #  4     ecut=   100.00 Ry     beta= 0.70
     Davidson diagonalization with overlap
     ethr =  3.70E-06,  avg # of iterations =  1.5

     total cpu time spent up to now is      305.3 secs

     total energy              =    -951.25663776 Ry
     Harris-Foulkes estimate   =    -951.25672532 Ry
     estimated scf accuracy    <       0.00027883 Ry

     total magnetization       =     4.00 Bohr mag/cell
     absolute magnetization    =     4.16 Bohr mag/cell

     iteration #  5     ecut=   100.00 Ry     beta= 0.70
     Davidson diagonalization with overlap
     ethr =  1.24E-07,  avg # of iterations =  3.5

     total cpu time spent up to now is      313.2 secs

     total energy              =    -951.25665617 Ry
     Harris-Foulkes estimate   =    -951.25669265 Ry
     estimated scf accuracy    <       0.00035187 Ry

     total magnetization       =     4.00 Bohr mag/cell
     absolute magnetization    =     4.16 Bohr mag/cell

     iteration #  6     ecut=   100.00 Ry     beta= 0.70
     Davidson diagonalization with overlap
     ethr =  1.24E-07,  avg # of iterations =  1.5

     total cpu time spent up to now is      319.6 secs

     total energy              =    -951.25665049 Ry
     Harris-Foulkes estimate   =    -951.25668165 Ry
     estimated scf accuracy    <       0.00020543 Ry

     total magnetization       =     4.00 Bohr mag/cell
     absolute magnetization    =     4.16 Bohr mag/cell

     iteration #  7     ecut=   100.00 Ry     beta= 0.70
     Davidson diagonalization with overlap
     ethr =  9.17E-08,  avg # of iterations =  2.0

     total cpu time spent up to now is      326.0 secs

     total energy              =    -951.25665074 Ry
     Harris-Foulkes estimate   =    -951.25666098 Ry
     estimated scf accuracy    <       0.00001804 Ry

     total magnetization       =     4.00 Bohr mag/cell
     absolute magnetization    =     4.16 Bohr mag/cell

     iteration #  8     ecut=   100.00 Ry     beta= 0.70
     Davidson diagonalization with overlap
     ethr =  8.06E-09,  avg # of iterations =  4.0

     total cpu time spent up to now is      333.6 secs

     total energy              =    -951.25664915 Ry
     Harris-Foulkes estimate   =    -951.25665305 Ry
     estimated scf accuracy    <       0.00000505 Ry

     total magnetization       =     4.00 Bohr mag/cell
     absolute magnetization    =     4.16 Bohr mag/cell

     iteration #  9     ecut=   100.00 Ry     beta= 0.70
     Davidson diagonalization with overlap
     ethr =  2.25E-09,  avg # of iterations =  3.5

     total cpu time spent up to now is      341.7 secs

     total energy              =    -951.25664683 Ry
     Harris-Foulkes estimate   =    -951.25664998 Ry
     estimated scf accuracy    <       0.00000135 Ry

     total magnetization       =     4.00 Bohr mag/cell
     absolute magnetization    =     4.16 Bohr mag/cell

     iteration # 10     ecut=   100.00 Ry     beta= 0.70
     Davidson diagonalization with overlap
     ethr =  6.03E-10,  avg # of iterations =  4.0

     total cpu time spent up to now is      350.8 secs

     total energy              =    -951.25664556 Ry
     Harris-Foulkes estimate   =    -951.25664729 Ry
     estimated scf accuracy    <       0.00000071 Ry

     total magnetization       =     4.00 Bohr mag/cell
     absolute magnetization    =     4.16 Bohr mag/cell

     iteration # 11     ecut=   100.00 Ry     beta= 0.70
     Davidson diagonalization with overlap
     ethr =  3.19E-10,  avg # of iterations =  4.0
 
     Magnetic moment per site:
     atom:    1    charge:    0.8416    magn:    0.0028    constr:    0.0000
     atom:    2    charge:    0.8405    magn:    0.0028    constr:    0.0000
     atom:    3    charge:    0.8618    magn:    0.0073    constr:    0.0000
     atom:    4    charge:    0.8609    magn:    0.0072    constr:    0.0000
     atom:    5    charge:    0.8632    magn:    0.0042    constr:    0.0000
     atom:    6    charge:    0.8628    magn:    0.0042    constr:    0.0000
     atom:    7    charge:    0.8635    magn:    0.0037    constr:    0.0000
     atom:    8    charge:    0.8629    magn:    0.0037    constr:    0.0000
     atom:    9    charge:    0.8530    magn:    0.0076    constr:    0.0000
     atom:   10    charge:    0.8520    magn:    0.0076    constr:    0.0000
     atom:   11    charge:    0.8629    magn:    0.0086    constr:    0.0000
     atom:   12    charge:    0.8629    magn:    0.0086    constr:    0.0000
     atom:   13    charge:    0.8577    magn:    0.0068    constr:    0.0000
     atom:   14    charge:    0.8577    magn:    0.0068    constr:    0.0000
     atom:   15    charge:    0.8619    magn:    0.0090    constr:    0.0000
     atom:   16    charge:    0.8614    magn:    0.0090    constr:    0.0000
     atom:   17    charge:    0.8374    magn:    0.0026    constr:    0.0000
     atom:   18    charge:    0.8368    magn:    0.0026    constr:    0.0000
     atom:   19    charge:    0.8622    magn:    0.0072    constr:    0.0000
     atom:   20    charge:    0.8600    magn:    0.0073    constr:    0.0000
     atom:   21    charge:    0.8338    magn:   -0.0024    constr:    0.0000
     atom:   22    charge:    0.8331    magn:   -0.0024    constr:    0.0000
     atom:   23    charge:    0.8336    magn:   -0.0023    constr:    0.0000
     atom:   24    charge:    0.8344    magn:   -0.0026    constr:    0.0000
     atom:   25    charge:    0.3954    magn:   -0.0011    constr:    0.0000
     atom:   26    charge:    0.3949    magn:   -0.0011    constr:    0.0000
     atom:   27    charge:    0.3992    magn:   -0.0009    constr:    0.0000
     atom:   28    charge:    0.3997    magn:   -0.0009    constr:    0.0000
     atom:   29    charge:    0.4014    magn:   -0.0011    constr:    0.0000
     atom:   30    charge:    0.4016    magn:   -0.0011    constr:    0.0000
     atom:   31    charge:    0.4057    magn:   -0.0008    constr:    0.0000
     atom:   32    charge:    0.4056    magn:   -0.0008    constr:    0.0000
     atom:   33    charge:    0.3966    magn:   -0.0008    constr:    0.0000
     atom:   34    charge:    0.3965    magn:   -0.0008    constr:    0.0000
     atom:   35    charge:    0.4043    magn:   -0.0008    constr:    0.0000
     atom:   36    charge:    0.4042    magn:   -0.0008    constr:    0.0000
     atom:   37    charge:    0.3777    magn:   -0.0001    constr:    0.0000
     atom:   38    charge:    0.3788    magn:   -0.0001    constr:    0.0000
     atom:   39    charge:    0.3760    magn:   -0.0001    constr:    0.0000
     atom:   40    charge:    0.3756    magn:   -0.0002    constr:    0.0000
     atom:   41    charge:    2.4996    magn:    0.0107    constr:    0.0000
     atom:   42    charge:    2.4995    magn:    0.0107    constr:    0.0000
     atom:   43    charge:    2.4963    magn:    0.0110    constr:    0.0000
     atom:   44    charge:    2.4937    magn:    0.0113    constr:    0.0000
     atom:   45    charge:    7.4577    magn:    1.1878    constr:    0.0000
     atom:   46    charge:    7.4569    magn:    1.1880    constr:    0.0000
     atom:   47    charge:    1.9585    magn:    0.0358    constr:    0.0000
     atom:   48    charge:    1.9604    magn:    0.0371    constr:    0.0000
     atom:   49    charge:    1.9651    magn:    0.0376    constr:    0.0000
     atom:   50    charge:    1.9646    magn:    0.0380    constr:    0.0000
     atom:   51    charge:    1.9658    magn:    0.0384    constr:    0.0000
     atom:   52    charge:    1.9659    magn:    0.0396    constr:    0.0000
     atom:   53    charge:    1.9601    magn:    0.0398    constr:    0.0000
     atom:   54    charge:    1.9601    magn:    0.0394    constr:    0.0000
     atom:   55    charge:    1.9821    magn:    0.0105    constr:    0.0000
     atom:   56    charge:    1.9803    magn:    0.0104    constr:    0.0000
     atom:   57    charge:    1.9624    magn:    0.0124    constr:    0.0000
     atom:   58    charge:    1.9633    magn:    0.0123    constr:    0.0000

     total cpu time spent up to now is      359.2 secs

     End of self-consistent calculation

 ------ SPIN UP ------------


          k = 0.0000 0.0000 0.0000 ( 45819 PWs)   bands (ev):

   -21.9898 -21.9615 -21.8766 -21.8183 -21.6668 -21.6623 -21.5801 -21.5076
   -18.9932 -18.9822 -18.9713 -18.9664 -18.9354 -18.9066 -18.8347 -18.8127
   -15.2235 -15.1853 -15.1649 -15.1341 -14.1113 -14.0602 -14.0220 -13.8196
   -11.7655 -11.6698 -11.6208 -11.6121 -11.3134 -11.1791 -11.1415 -11.0569
    -9.5295  -9.2528  -9.1732  -9.1430  -9.0561  -9.0369  -9.0206  -8.8735
    -7.8273  -7.6552  -7.5556  -7.4931  -7.4650  -7.3254  -6.9733  -6.8451
    -6.5982  -6.4726  -6.4596  -6.3421  -6.1988  -6.1818  -6.1097  -6.1017
    -6.0708  -5.9906  -5.9271  -5.9181  -5.8922  -5.8265  -5.7963  -5.7747
    -5.6227  -5.3724  -5.1647  -4.8936  -4.8070  -4.6952  -4.6301  -4.5519
    -4.5137  -4.4967  -4.4077  -4.3919  -4.3637  -4.2645  -4.1821  -4.1429
    -3.9793  -3.9441  -3.6333  -3.5147  -3.2166  -3.0697  -3.0555  -2.9441
    -2.8708  -2.8085  -2.7714  -2.6535  -2.5358  -2.3485  -2.2066  -2.1928
    -2.1278  -2.0585  -1.9890  -1.8812  -1.8720  -1.7712  -1.7610  -1.7297
    -1.6666  -1.6487  -0.9847  -0.9239  -0.8353  -0.7799   0.0489   0.0816
     0.2834   0.3030   2.0372   2.0754   2.1023   2.2758   2.6791   3.1966
     3.3499   3.4338   3.7409   3.8970   4.0363   4.5397   4.6055   4.6115
     4.8199   4.8866   5.0254   5.0750   5.2138   5.8333   5.8774   6.0203
     6.3198

 ------ SPIN DOWN ----------


          k = 0.0000 0.0000 0.0000 ( 45819 PWs)   bands (ev):

   -21.9414 -21.9114 -21.8060 -21.7399 -21.5935 -21.5822 -21.5154 -21.4445
   -18.9241 -18.8950 -18.8554 -18.8432 -18.8296 -18.8240 -18.7911 -18.7763
   -15.1870 -15.1486 -15.1274 -15.0972 -14.0703 -14.0176 -13.9792 -13.7768
   -11.7260 -11.6328 -11.5841 -11.5772 -11.2946 -11.1549 -11.1176 -11.0364
    -9.5103  -9.2269  -9.1584  -9.1275  -9.0336  -9.0199  -8.9948  -8.8462
    -7.7849  -7.6310  -7.5319  -7.4655  -7.4242  -7.2746  -6.9225  -6.7920
    -6.5442  -6.3798  -6.3735  -6.2382  -6.1348  -6.0695  -6.0602  -6.0270
    -6.0160  -5.9072  -5.8866  -5.8289  -5.8197  -5.7159  -5.7108  -5.6855
    -5.5256  -5.2711  -5.0659  -4.7978  -4.7736  -4.6690  -4.6041  -4.4922
    -4.4324  -4.4161  -4.3034  -4.2821  -4.2798  -4.1443  -4.0864  -4.0297
    -3.8837  -3.5549  -3.2274  -3.2030  -2.9833  -2.7232  -2.6886  -2.5192
    -2.4241  -2.3947  -2.2690  -2.2175  -2.1583  -2.0877  -1.9609  -1.9096
    -1.8074  -1.7603  -1.5375  -1.5125  -1.2288  -1.1088  -0.9530  -0.9495
    -0.9445  -0.9243  -0.7576  -0.6940  -0.6447  -0.6320   0.9276   0.9593
     1.1200   1.1421   2.1660   2.1839   2.2391   2.3850   2.6295   3.1805
     3.4257   3.5293   3.8264   3.9882   4.0203   4.5313   4.5951   4.6800
     4.9077   4.9553   5.0484   5.0972   5.2233   5.8302   5.8750   6.0101
     6.2953

     the spin up/dw Fermi energies are     0.6198    0.3019 ev

!    total energy              =    -951.25664010 Ry
     Harris-Foulkes estimate   =    -951.25664575 Ry
     estimated scf accuracy    <       0.00000031 Ry

     The total energy is the sum of the following terms:

     one-electron contribution =   -1303.37216208 Ry
     hartree contribution      =     737.17485180 Ry
     xc contribution           =    -287.84863123 Ry
     ewald contribution        =     -98.30089042 Ry
     Dispersion Correction     =      -0.24455857 Ry
     smearing contrib. (-TS)   =       1.33475040 Ry

     total magnetization       =     4.00 Bohr mag/cell
     absolute magnetization    =     4.16 Bohr mag/cell

     convergence has been achieved in  11 iterations

     Forces acting on atoms (cartesian axes, Ry/au):

     atom    1 type  1   force =     0.01251740    0.00861395   -0.00267637
     atom    2 type  1   force =     0.01084359   -0.01043366   -0.00531893
     atom    3 type  1   force =    -0.01615905   -0.01343318    0.00359251
     atom    4 type  1   force =    -0.01591583    0.01335567    0.00319680
     atom    5 type  1   force =    -0.00240023    0.00153382   -0.01716429
     atom    6 type  1   force =    -0.00204394   -0.00124695   -0.01766422
     atom    7 type  1   force =    -0.01246127   -0.00674151    0.00534591
     atom    8 type  1   force =    -0.01260440    0.00649759    0.00468810
     atom    9 type  1   force =    -0.00530078    0.00370904    0.00192613
     atom   10 type  1   force =    -0.00457243   -0.00423400    0.00146964
     atom   11 type  1   force =     0.00156636    0.00060591    0.00224182
     atom   12 type  1   force =     0.00213580   -0.00105672    0.00197229
     atom   13 type  1   force =     0.00443743   -0.01221467   -0.00842645
     atom   14 type  1   force =     0.00452912    0.01275146   -0.00965089
     atom   15 type  1   force =    -0.00477082   -0.00578227   -0.00786538
     atom   16 type  1   force =    -0.00537169    0.00549491   -0.00771034
     atom   17 type  1   force =    -0.00017123   -0.01006623   -0.01435480
     atom   18 type  1   force =     0.00070027    0.01014088   -0.01460645
     atom   19 type  1   force =    -0.00760238    0.00939361    0.01637584
     atom   20 type  1   force =    -0.00701754   -0.00970782    0.01678882
     atom   21 type  1   force =     0.00197590    0.00055960    0.00171907
     atom   22 type  1   force =    -0.00005386   -0.00029884    0.00050122
     atom   23 type  1   force =     0.00687659   -0.00250201   -0.00635238
     atom   24 type  1   force =     0.00481852    0.00189029   -0.00465323
     atom   25 type  2   force =    -0.00255579    0.00064294   -0.00120034
     atom   26 type  2   force =    -0.00288270   -0.00048155   -0.00152077
     atom   27 type  2   force =     0.00193581   -0.00266989    0.00020522
     atom   28 type  2   force =     0.00254767    0.00259940   -0.00028212
     atom   29 type  2   force =    -0.00523146   -0.00084599   -0.00184597
     atom   30 type  2   force =    -0.00567963    0.00009209   -0.00226714
     atom   31 type  2   force =    -0.01277344   -0.00748926    0.00023898
     atom   32 type  2   force =    -0.01346216    0.00718272    0.00019332
     atom   33 type  2   force =    -0.00277713   -0.00609263   -0.01310427
     atom   34 type  2   force =    -0.00324329    0.00723647   -0.01467937
     atom   35 type  2   force =    -0.00338768    0.00964740    0.01399434
     atom   36 type  2   force =    -0.00394967   -0.00948976    0.01389204
     atom   37 type  2   force =     0.00802633   -0.01279845    0.02716092
     atom   38 type  2   force =     0.00639236    0.01331608    0.02630091
     atom   39 type  2   force =     0.02737520    0.01647668   -0.00335454
     atom   40 type  2   force =     0.02856701   -0.01532439   -0.00498923
     atom   41 type  3   force =    -0.00142038   -0.00737489   -0.00193633
     atom   42 type  3   force =    -0.00225257    0.00881089   -0.00253532
     atom   43 type  3   force =    -0.00139784    0.00675809   -0.00281338
     atom   44 type  3   force =    -0.00168313   -0.00559713   -0.00311147
     atom   45 type  4   force =    -0.00902342   -0.01126611   -0.00391963
     atom   46 type  4   force =     0.00713751    0.01024328   -0.00356868
     atom   47 type  5   force =    -0.00209424    0.01251324    0.00082694
     atom   48 type  5   force =    -0.00232825   -0.01314301    0.00290666
     atom   49 type  5   force =     0.00231577    0.00051594    0.00358848
     atom   50 type  5   force =     0.00200385    0.00044278    0.00300508
     atom   51 type  5   force =     0.00314386   -0.00304129   -0.00260520
     atom   52 type  5   force =     0.00150597    0.00236493   -0.00186422
     atom   53 type  5   force =    -0.00393010   -0.00780429    0.00441123
     atom   54 type  5   force =    -0.00359809    0.00943316    0.00244469
     atom   55 type  5   force =     0.01553745   -0.01086531    0.00539090
     atom   56 type  5   force =     0.01511248    0.00756168    0.00983750
     atom   57 type  5   force =     0.00521832   -0.00131972    0.00357786
     atom   58 type  5   force =     0.00289582    0.00293702    0.00424848

     Total force =     0.112624     Total SCF correction =     0.001182

     number of scf cycles    =   3
     number of bfgs steps    =   2

     energy   old            =    -951.2337470168 Ry
     energy   new            =    -951.2566401006 Ry

     CASE: energy  _new < energy  _old

     new trust radius        =       0.0682309906 bohr
     new conv_thr            =       0.0000002857 Ry


ATOMIC_POSITIONS (crystal)
C             0.5729428406        0.9689358635        0.5221222092
C             0.0732840178        0.0321034562        0.0222882404
C             0.7806023717        0.0116732355        0.5461215839
C             0.2799455600        0.9878218600        0.0457028624
C             0.9035525697        0.9697217554        0.6485443119
C             0.4047221650        0.0288719247        0.1480002513
C             0.4155070162        0.5289944916        0.5269286636
C             0.9162887085        0.4720792510        0.0282897537
C             0.4892884348        0.6132482033        0.6053140259
C             0.9927074111        0.3887000747        0.1074632411
C             0.4965103034        0.8878816772        0.6045354061
C            -0.0003121963        0.1134961926        0.1055260677
[...]
     absolute magnetization    =     4.16 Bohr mag/cell

     iteration #  9     ecut=   100.00 Ry     beta= 0.70
     Davidson diagonalization with overlap
     ethr =  1.73E-11,  avg # of iterations =  3.5

     total cpu time spent up to now is     5951.1 secs

     total energy              =    -951.32618341 Ry
     Harris-Foulkes estimate   =    -951.32618339 Ry
     estimated scf accuracy    <       0.00000002 Ry

     total magnetization       =     4.00 Bohr mag/cell
     absolute magnetization    =     4.16 Bohr mag/cell

     iteration # 10     ecut=   100.00 Ry     beta= 0.70
     Davidson diagonalization with overlap
     ethr =  7.56E-12,  avg # of iterations =  4.0
 
     Magnetic moment per site:
     atom:    1    charge:    0.8076    magn:    0.0021    constr:    0.0000
     atom:    2    charge:    0.8191    magn:    0.0022    constr:    0.0000
     atom:    3    charge:    0.7461    magn:    0.0069    constr:    0.0000
     atom:    4    charge:    0.7548    magn:    0.0068    constr:    0.0000
     atom:    5    charge:    0.6422    magn:    0.0048    constr:    0.0000
     atom:    6    charge:    0.6358    magn:    0.0048    constr:    0.0000
     atom:    7    charge:    0.8346    magn:    0.0030    constr:    0.0000
     atom:    8    charge:    0.8383    magn:    0.0031    constr:    0.0000
     atom:    9    charge:    0.8293    magn:    0.0072    constr:    0.0000
     atom:   10    charge:    0.8261    magn:    0.0072    constr:    0.0000
     atom:   11    charge:    0.8348    magn:    0.0081    constr:    0.0000
     atom:   12    charge:    0.8426    magn:    0.0082    constr:    0.0000
     atom:   13    charge:    0.6464    magn:    0.0072    constr:    0.0000
     atom:   14    charge:    0.6294    magn:    0.0074    constr:    0.0000
     atom:   15    charge:    0.8266    magn:    0.0084    constr:    0.0000
     atom:   16    charge:    0.8305    magn:    0.0084    constr:    0.0000
     atom:   17    charge:    0.8229    magn:    0.0018    constr:    0.0000
     atom:   18    charge:    0.8244    magn:    0.0019    constr:    0.0000
     atom:   19    charge:    0.8461    magn:    0.0058    constr:    0.0000
     atom:   20    charge:    0.8483    magn:    0.0060    constr:    0.0000
     atom:   21    charge:    0.7619    magn:   -0.0022    constr:    0.0000
     atom:   22    charge:    0.7648    magn:   -0.0023    constr:    0.0000
     atom:   23    charge:    0.8170    magn:   -0.0018    constr:    0.0000
     atom:   24    charge:    0.8152    magn:   -0.0020    constr:    0.0000
     atom:   25    charge:    0.2334    magn:   -0.0004    constr:    0.0000
     atom:   26    charge:    0.2181    magn:   -0.0003    constr:    0.0000
     atom:   27    charge:    0.3037    magn:   -0.0007    constr:    0.0000
     atom:   28    charge:    0.3179    magn:   -0.0008    constr:    0.0000
     atom:   29    charge:    0.3302    magn:   -0.0008    constr:    0.0000
     atom:   30    charge:    0.3274    magn:   -0.0008    constr:    0.0000
     atom:   31    charge:    0.3761    magn:   -0.0008    constr:    0.0000
     atom:   32    charge:    0.3831    magn:   -0.0008    constr:    0.0000
     atom:   33    charge:    0.2465    magn:   -0.0002    constr:    0.0000
     atom:   34    charge:    0.2257    magn:   -0.0001    constr:    0.0000
     atom:   35    charge:    0.4564    magn:   -0.0007    constr:    0.0000
     atom:   36    charge:    0.4539    magn:   -0.0007    constr:    0.0000
     atom:   37    charge:    0.2773    magn:   -0.0001    constr:    0.0000
     atom:   38    charge:    0.2561    magn:   -0.0000    constr:    0.0000
     atom:   39    charge:    0.5438    magn:    0.0003    constr:    0.0000
     atom:   40    charge:    0.5172    magn:    0.0001    constr:    0.0000
     atom:   41    charge:    2.3039    magn:    0.0087    constr:    0.0000
     atom:   42    charge:    2.2912    magn:    0.0084    constr:    0.0000
     atom:   43    charge:    2.3944    magn:    0.0095    constr:    0.0000
     atom:   44    charge:    2.4034    magn:    0.0099    constr:    0.0000
     atom:   45    charge:    7.4554    magn:    1.2311    constr:    0.0000
     atom:   46    charge:    7.4544    magn:    1.2296    constr:    0.0000
     atom:   47    charge:    1.6223    magn:    0.0265    constr:    0.0000
     atom:   48    charge:    1.6429    magn:    0.0272    constr:    0.0000
     atom:   49    charge:    1.8072    magn:    0.0328    constr:    0.0000
     atom:   50    charge:    1.6670    magn:    0.0303    constr:    0.0000
     atom:   51    charge:    1.8107    magn:    0.0316    constr:    0.0000
     atom:   52    charge:    1.8569    magn:    0.0338    constr:    0.0000
     atom:   53    charge:    1.6860    magn:    0.0343    constr:    0.0000
     atom:   54    charge:    1.7835    magn:    0.0367    constr:    0.0000
     atom:   55    charge:    1.9433    magn:    0.0094    constr:    0.0000
     atom:   56    charge:    1.9241    magn:    0.0091    constr:    0.0000
     atom:   57    charge:    1.7406    magn:    0.0095    constr:    0.0000
     atom:   58    charge:    1.8039    magn:    0.0100    constr:    0.0000

     total cpu time spent up to now is     5959.1 secs

     End of self-consistent calculation

 ------ SPIN UP ------------


          k = 0.0000 0.0000 0.0000 ( 45819 PWs)   bands (ev):

   -22.0600 -22.0469 -21.9672 -21.8367 -21.7808 -21.7199 -21.6973 -21.6066
   -19.0811 -19.0563 -19.0509 -19.0227 -19.0005 -18.9903 -18.8846 -18.8692
   -15.3359 -15.2845 -15.2521 -15.2462 -14.0362 -14.0169 -13.9530 -13.8601
   -11.7584 -11.6927 -11.6642 -11.6336 -11.2285 -11.1711 -11.1042 -11.0591
    -9.5121  -9.3325  -9.1661  -9.0646  -9.0566  -8.9998  -8.9822  -8.9142
    -7.9609  -7.6031  -7.5758  -7.5293  -7.5107  -7.4315  -7.0355  -6.9276
    -6.6722  -6.4766  -6.4738  -6.3807  -6.2407  -6.1968  -6.1766  -6.1729
    -6.1259  -6.0126  -5.9758  -5.9403  -5.9088  -5.8616  -5.8135  -5.7873
    -5.6322  -5.4266  -5.2018  -5.0166  -4.7934  -4.7636  -4.7286  -4.7074
    -4.6053  -4.5751  -4.5126  -4.4540  -4.4177  -4.3429  -4.2813  -4.2749
    -4.1292  -4.0189  -3.6744  -3.6155  -3.2562  -3.2040  -3.0851  -2.9785
    -2.9140  -2.8795  -2.8600  -2.7059  -2.6085  -2.3558  -2.2880  -2.2462
    -2.2234  -2.0782  -2.0480  -1.9255  -1.8818  -1.8632  -1.8573  -1.7925
    -1.7532  -1.7075  -1.0364  -0.9527  -0.8065  -0.7408  -0.0937  -0.0771
     0.0638   0.0826   2.0491   2.0737   2.0767   2.2263   2.7887   3.2191
     3.3987   3.4215   3.7499   3.7745   4.1587   4.5162   4.5569   4.7491
     4.7805   4.9289   5.0356   5.1812   5.3576   5.7975   6.0934   6.0952
     6.3440

 ------ SPIN DOWN ----------


          k = 0.0000 0.0000 0.0000 ( 45819 PWs)   bands (ev):

   -22.0179 -22.0064 -21.9104 -21.7806 -21.7177 -21.6392 -21.6109 -21.5393
   -19.0131 -18.9918 -18.9401 -18.9318 -18.8909 -18.8805 -18.8485 -18.8379
   -15.3022 -15.2505 -15.2178 -15.2113 -13.9948 -13.9757 -13.9125 -13.8196
   -11.7216 -11.6582 -11.6311 -11.5997 -11.2085 -11.1481 -11.0822 -11.0398
    -9.4908  -9.3075  -9.1527  -9.0507  -9.0348  -8.9803  -8.9581  -8.8956
    -7.9178  -7.5800  -7.5413  -7.5057  -7.4887  -7.3792  -6.9973  -6.8710
    -6.6085  -6.3956  -6.3883  -6.2821  -6.1872  -6.1378  -6.1028  -6.0927
    -6.0368  -5.9792  -5.9031  -5.8463  -5.8037  -5.7870  -5.7527  -5.7149
    -5.5570  -5.3291  -5.1086  -4.9316  -4.7674  -4.7342  -4.6755  -4.6592
    -4.5523  -4.5129  -4.4526  -4.3380  -4.3333  -4.2754  -4.2100  -4.1367
    -4.0189  -3.5513  -3.2734  -3.2464  -3.1287  -2.7775  -2.6999  -2.5654
    -2.4819  -2.4545  -2.3532  -2.2699  -2.2231  -2.1606  -2.0160  -1.9756
    -1.8429  -1.8304  -1.6068  -1.5714  -1.2336  -1.1054  -1.0057  -1.0020
    -0.9497  -0.9350  -0.8132  -0.7559  -0.6249  -0.6138   0.8037   0.8320
     0.9341   0.9625   2.1712   2.1798   2.2080   2.3341   2.7502   3.2603
     3.4360   3.5091   3.8311   3.8523   4.1385   4.5241   4.6247   4.8109
     4.8631   4.9419   5.0931   5.1722   5.3635   5.8175   6.0812   6.0922
     6.3256

     the spin up/dw Fermi energies are     0.5533    0.2558 ev

!    total energy              =    -951.32618340 Ry
     Harris-Foulkes estimate   =    -951.32618342 Ry
     estimated scf accuracy    <          2.9E-09 Ry

     The total energy is the sum of the following terms:

     one-electron contribution =   -1297.56474675 Ry
     hartree contribution      =     733.91657198 Ry
     xc contribution           =    -287.95803136 Ry
     ewald contribution        =    -100.80440136 Ry
     Dispersion Correction     =      -0.24911245 Ry
     smearing contrib. (-TS)   =       1.33353653 Ry

     total magnetization       =     4.00 Bohr mag/cell
     absolute magnetization    =     4.16 Bohr mag/cell

     convergence has been achieved in  10 iterations

     Forces acting on atoms (cartesian axes, Ry/au):

     atom    1 type  1   force =     0.00009541    0.00009166    0.00003221
     atom    2 type  1   force =     0.00016758    0.00004134    0.00023954
     atom    3 type  1   force =    -0.00018505   -0.00015092    0.00055135
     atom    4 type  1   force =     0.00026110    0.00003854    0.00018400
     atom    5 type  1   force =    -0.00024084   -0.00020448    0.00024692
     atom    6 type  1   force =     0.00040028   -0.00010881   -0.00008029
     atom    7 type  1   force =     0.00046576    0.00023553   -0.00041385
     atom    8 type  1   force =    -0.00031037   -0.00021745    0.00009461
     atom    9 type  1   force =    -0.00034730    0.00011633    0.00061966
     atom   10 type  1   force =     0.00015762   -0.00010629    0.00030053
     atom   11 type  1   force =    -0.00018176   -0.00023070   -0.00047362
     atom   12 type  1   force =     0.00074311    0.00062063   -0.00034137
     atom   13 type  1   force =    -0.00024112   -0.00063138   -0.00005697
     atom   14 type  1   force =    -0.00029534    0.00040707   -0.00022903
     atom   15 type  1   force =    -0.00009942    0.00013678    0.00030664
     atom   16 type  1   force =     0.00071889    0.00038381   -0.00024849
     atom   17 type  1   force =    -0.00022265   -0.00047141   -0.00042909
     atom   18 type  1   force =     0.00012198   -0.00038950    0.00031411
     atom   19 type  1   force =     0.00041259   -0.00001702    0.00018234
     atom   20 type  1   force =    -0.00027140   -0.00010436    0.00002025
     atom   21 type  1   force =     0.00056744   -0.00047687   -0.00031851
     atom   22 type  1   force =     0.00017896    0.00053543   -0.00049356
     atom   23 type  1   force =     0.00038566   -0.00021798    0.00046564
     atom   24 type  1   force =     0.00014117    0.00014055    0.00005887
     atom   25 type  2   force =     0.00021602   -0.00040422    0.00026323
     atom   26 type  2   force =     0.00032687    0.00000477    0.00004428
     atom   27 type  2   force =     0.00024125    0.00011325   -0.00071379
     atom   28 type  2   force =    -0.00054392    0.00013893   -0.00016655
     atom   29 type  2   force =    -0.00013096   -0.00001381   -0.00030670
     atom   30 type  2   force =    -0.00004014    0.00011729   -0.00030975
     atom   31 type  2   force =    -0.00031237   -0.00054728    0.00004736
     atom   32 type  2   force =     0.00017745   -0.00007680   -0.00042750
     atom   33 type  2   force =     0.00040558   -0.00014075    0.00005352
     atom   34 type  2   force =    -0.00018808   -0.00006166    0.00004605
     atom   35 type  2   force =     0.00015279   -0.00012357   -0.00058242
     atom   36 type  2   force =    -0.00009904    0.00004933    0.00045846
     atom   37 type  2   force =     0.00003222   -0.00028576    0.00041050
     atom   38 type  2   force =    -0.00002380    0.00044845   -0.00003027
     atom   39 type  2   force =     0.00015207   -0.00029223   -0.00022955
     atom   40 type  2   force =     0.00024281    0.00006960   -0.00009528
     atom   41 type  3   force =    -0.00054976    0.00044378    0.00024417
     atom   42 type  3   force =    -0.00013298   -0.00005343    0.00029756
     atom   43 type  3   force =    -0.00009553    0.00027638   -0.00040848
     atom   44 type  3   force =    -0.00035374   -0.00060223    0.00034172
     atom   45 type  4   force =     0.00013583    0.00009802    0.00064618
     atom   46 type  4   force =    -0.00000740    0.00019134   -0.00009758
     atom   47 type  5   force =    -0.00004764   -0.00060280    0.00011650
     atom   48 type  5   force =    -0.00047064    0.00024025   -0.00021157
     atom   49 type  5   force =     0.00021394   -0.00011238   -0.00018246
     atom   50 type  5   force =    -0.00030569   -0.00061279   -0.00007547
     atom   51 type  5   force =    -0.00013880    0.00088658   -0.00040176
     atom   52 type  5   force =     0.00003663    0.00026709    0.00009224
     atom   53 type  5   force =    -0.00036470    0.00055245    0.00000382
     atom   54 type  5   force =    -0.00013290    0.00017088    0.00024625
     atom   55 type  5   force =    -0.00044633    0.00016833   -0.00045177
     atom   56 type  5   force =     0.00026399   -0.00004579    0.00037652
     atom   57 type  5   force =    -0.00023269   -0.00022210   -0.00013928
     atom   58 type  5   force =    -0.00040263    0.00054038    0.00060996

     Total force =     0.004237     Total SCF correction =     0.000142

     bfgs converged in  60 scf cycles and  59 bfgs steps
     (criteria: energy <  1.0E-04 Ry, force <  1.0E-03 Ry/Bohr)

     End of BFGS Geometry Optimization

     Final energy   =    -951.3261834014 Ry
Begin final coordinates

ATOMIC_POSITIONS (crystal)
C             0.5865642203        0.9602388646        0.5184509029
C             0.0844713057        0.0394149653        0.0206714006
C             0.8020394224       -0.0034879998        0.5332405075
C             0.3002196023        1.0028071058        0.0343406287
C             0.9295298370        0.9483981125        0.6295254729
C             0.4294776791        0.0515113685        0.1293440635
C             0.3941176845        0.5290694627        0.5346207988
C             0.8957399932        0.4712674389        0.0341626081
C             0.4682258499        0.6163558321        0.6061518991
C             0.9715587553        0.3852173559        0.1077579610
C             0.5108952057        0.8807550083        0.6034561804
C             0.0112177926        0.1198592886        0.1053072633
C             0.8448273459        0.8686657787        0.7089645100
C             0.3472516885        0.1322268346        0.2082720644
C             0.1607969278        0.6186016233        0.7319282370
C             0.6648754969        0.3832435290        0.2335889508
C             0.0718381732        0.5307331445        0.6606571671
C             0.5736947838        0.4697075761        0.1602483923
C             0.1933496320        0.4852672214        0.5584688072
C             0.6939605378        0.5144878673        0.0569615704
C             0.8830763087        0.0869268180        0.4579052226
C             0.3806608609        0.9122407200        0.9587120816
C             0.1163679667        0.3971069302        0.4769054278
C             0.6129800718        0.6010609358        0.9736934897
H             0.0908107383        0.9747856532        0.6486046050
H             0.5909105414        1.0248867882        0.1476841822
H             0.4952544667        0.4959386469        0.4619456363
H            -0.0035528708        0.5033119748        0.9604774138
H             0.6205734845        0.6523941394        0.5887057957
H             0.1241073462        0.3493962355        0.0903486636
H             0.3479987359        0.8531338897        0.5945795947
H             0.8484566418        0.1479333556        0.0974569710
H             0.9379570630        0.8316860791        0.7848194923
H             0.4423733881        0.1695805431        0.2830062311
H             0.0768681768        0.6527790766        0.8121895155
H             0.5808884563        0.3492787642        0.3138963067
H             0.3125671309        0.9799623021        0.4388927185
H             0.8082520628        0.0202727279        0.9443179456
H             0.8241628863        0.5353374915        0.7618776240
H             0.3259174921        0.4651244713        0.2615281948
N             0.6364568190        0.8391476535        0.6976603980
N             0.1390246801        0.1620584077        0.1979698305
N             0.3528811886        0.6582741150        0.7046719360
N             0.8579499896        0.3440399050        0.2074246644
Ni            0.4940837956        0.7528801445        0.8367664867
Ni            1.0004197941        0.2469783455        0.3398420368
O             0.2299892325        0.3646151395        0.3789939634
O             0.7260458120        0.6351592248        0.8763182777
O             0.7685343360        0.1381083109        0.3718702101
O             0.2688184989        0.8652431935        0.8679932655
O             0.9403177148        0.3473317570        0.4929716933
O             0.4334388276        0.6477813036        0.9882828173
O             0.0751866571        0.1218092821        0.4756704367
O             0.5687919213        0.8733299297        0.9797118954
O             0.4596051493        0.0028252029        0.4273224268
O             0.9542815286        0.9964187523        0.9313321608
O             0.8837841690        0.4902603713        0.6924141026
O             0.3841330034        0.5093460400        0.1909128996
End final coordinates



     Writing output data file ./QE_relaxation_results/VDW_relax/NiPyC2_relax/NiPyC2_relax_meta_functionalized_OH_vdw-df2_relax.save/
 
     init_run     :      8.52s CPU      9.11s WALL (       1 calls)
     electrons    :   4822.70s CPU   5517.40s WALL (      60 calls)
     update_pot   :    187.69s CPU    202.24s WALL (      59 calls)
     forces       :    212.28s CPU    227.07s WALL (      60 calls)

     Called by init_run:
     wfcinit      :      2.69s CPU      2.90s WALL (       1 calls)
     potinit      :      4.40s CPU      4.73s WALL (       1 calls)
     hinit0       :      1.09s CPU      1.13s WALL (       1 calls)

     Called by electrons:
     c_bands      :   3968.04s CPU   4453.61s WALL (     653 calls)
     sum_band     :    192.33s CPU    245.65s WALL (     653 calls)
     v_of_rho     :    597.14s CPU    719.09s WALL (     701 calls)
     mix_rho      :    101.90s CPU    129.34s WALL (     653 calls)
     vdW_kernel   :      2.50s CPU      2.58s WALL (       1 calls)

     Called by c_bands:
     init_us_2    :      5.05s CPU      5.18s WALL (    1307 calls)
     regterg      :   3922.37s CPU   4174.29s WALL (     653 calls)

     Called by sum_band:

     Called by *egterg:
     h_psi        :   1399.07s CPU   1615.81s WALL (    2655 calls)
     g_psi        :      1.90s CPU      1.92s WALL (    2001 calls)
     rdiaghg      :    170.21s CPU    173.22s WALL (    2583 calls)

     Called by h_psi:
     h_psi:calbec :    445.92s CPU    448.51s WALL (    2655 calls)
     vloc_psi     :    650.09s CPU    863.38s WALL (    2655 calls)
     add_vuspsi   :    297.14s CPU    297.93s WALL (    2655 calls)

     General routines
     calbec       :    513.65s CPU    516.66s WALL (    2895 calls)
     fft          :    348.68s CPU    465.69s WALL (   59902 calls)
     ffts         :     65.80s CPU     87.58s WALL (   11185 calls)
     fftw         :    688.07s CPU    939.31s WALL (  264989 calls)
 
     Parallel routines
     fft_scatt_xy :    220.43s CPU    223.93s WALL (  336076 calls)
     fft_scatt_yz :    235.53s CPU    603.84s WALL (  336076 calls)
 
     PWSCF        :      1h27m CPU      1h39m WALL

 
   This run was terminated on:  21:53:41   8Jun2020            

=------------------------------------------------------------------------------=
   JOB DONE.
=------------------------------------------------------------------------------=
QE finished Mon Jun 8 21:53:41 PDT 2020
