/apps/openmpi/3.1_intel-19/bin/mpiexec
starting QE Mon Jun 8 19:51:59 PDT 2020

     Program PWSCF v.6.5 starts on  8Jun2020 at 19:52: 1 

     This program is part of the open-source Quantum ESPRESSO suite
     for quantum simulation of materials; please cite
         "P. Giannozzi et al., J. Phys.:Condens. Matter 21 395502 (2009);
         "P. Giannozzi et al., J. Phys.:Condens. Matter 29 465901 (2017);
          URL http://www.quantum-espresso.org", 
     in publications or presentations arising from this work. More details at
     http://www.quantum-espresso.org/quote

     Parallel version (MPI), running on    16 processors

     MPI processes distributed on     1 nodes
     K-points division:     npool     =       2
     R & G space division:  proc/nbgrp/npool/nimage =       8
     Reading input from QE_input_scripts/pw.NiPyC2_vdw-df2-relax.in
Warning: card &CELL ignored
Warning: card    CELL_DYNAMICS = 'BFGS' ignored
Warning: card    CELL_DOFREE = 'XYZ' ignored
Warning: card / ignored

     Current dimensions of program PWSCF are:
     Max number of different atomic species (ntypx) = 10
     Max number of k-points (npk) =  40000
     Max angular momentum in pseudopotentials (lmaxx) =  3

     IMPORTANT: XC functional enforced from input :
     Exchange-correlation= VDW-DF2
                           (   1   4  13   0   2   0   0)
     Any further DFT definition will be discarded
     Please, verify this is what you really want


     -------------------------------------------------
     Parameters for Dispersion (Grimme-D2) Correction:
     -------------------------------------------------
       atom      VdW radius       C_6     

        C          2.744         60.710
        H          1.892          4.857
        N          2.640         42.670
        Ni         2.952        374.666
        O          2.536         24.284

     gamma-point specific algorithms are used

     Subspace diagonalization in iterative solution of the eigenvalue problem:
     a serial algorithm will be used

     Message from routine setup:
     using ibrav=0 with symmetry is DISCOURAGED, use correct ibrav instead
 
     Parallelization info
     --------------------
     sticks:   dense  smooth     PW     G-vecs:    dense   smooth      PW
     Min        1113    1113    276                91690    91690   11450
     Max        1116    1116    278                91692    91692   11458
     Sum        8917    8917   2219               733525   733525   91637
 


     bravais-lattice index     =            0
     lattice parameter (alat)  =      11.8161  a.u.
     unit-cell volume          =    5429.3114 (a.u.)^3
     number of atoms/cell      =           54
     number of atomic types    =            5
     number of electrons       =       200.00 (up: 102.00, down:  98.00)
     number of Kohn-Sham states=          122
     kinetic-energy cutoff     =     100.0000  Ry
     charge density cutoff     =     400.0000  Ry
     convergence threshold     =      1.0E-06
     mixing beta               =       0.7000
     number of iterations used =            8  local-TF  mixing
     Exchange-correlation= VDW-DF2
                           (   1   4  13   0   2   0   0)
     nstep                     =          200


     celldm(1)=  11.816080  celldm(2)=   0.000000  celldm(3)=   0.000000
     celldm(4)=   0.000000  celldm(5)=   0.000000  celldm(6)=   0.000000

     crystal axes: (cart. coord. in units of alat)
               a(1) = (   1.000000   0.000000   0.000000 )  
               a(2) = (   0.000000   2.002847   0.000000 )  
               a(3) = (  -0.036399   0.000000   1.643149 )  

     reciprocal axes: (cart. coord. in units 2 pi/alat)
               b(1) = (  1.000000  0.000000  0.022152 )  
               b(2) = (  0.000000  0.499289  0.000000 )  
               b(3) = (  0.000000  0.000000  0.608588 )  


     PseudoPot. # 1 for C  read from file:
     ./pseudo/C.pbesol-nc.UPF
     MD5 check sum: ce26087537ded160c8d400e183a8bf42
     Pseudo is Norm-conserving, Zval =  4.0
     Generated using "atomic" code by A. Dal Corso v.6.5
     Using radial grid of 1073 points,  1 beta functions with: 
                l(1) =   1

     PseudoPot. # 2 for H  read from file:
     ./pseudo/H.pbesol-n-nc.UPF
     MD5 check sum: 7995ef24074557c85b430109caaacc09
     Pseudo is Norm-conserving, Zval =  1.0
     Generated using "atomic" code by A. Dal Corso v.6.5
     Using radial grid of  929 points,  0 beta functions with: 

     PseudoPot. # 3 for N  read from file:
     ./pseudo/N.pbesol-nc.UPF
     MD5 check sum: e18cc5e4b8a5600c1a19b30c2cab1ca0
     Pseudo is Norm-conserving, Zval =  5.0
     Generated using "atomic" code by A. Dal Corso v.6.5
     Using radial grid of 1085 points,  1 beta functions with: 
                l(1) =   1

     PseudoPot. # 4 for Ni read from file:
     ./pseudo/Ni.pbesol-n-nc.UPF
     MD5 check sum: 623411631e0c2eb7c0b2b9815547d2d9
     Pseudo is Norm-conserving + core correction, Zval = 10.0
     Generated using "atomic" code by A. Dal Corso v.6.5
     Using radial grid of 1195 points,  2 beta functions with: 
                l(1) =   1
                l(2) =   2

     PseudoPot. # 5 for O  read from file:
     ./pseudo/O.pbesol-nc.UPF
     MD5 check sum: 73d10e7e91dbfcbe8a7e362101007f84
     Pseudo is Norm-conserving, Zval =  6.0
     Generated using "atomic" code by A. Dal Corso v.6.5
     Using radial grid of 1095 points,  1 beta functions with: 
                l(1) =   1

     atomic species   valence    mass     pseudopotential
        C              4.00    12.01070     C ( 1.00)
        H              1.00     1.00794     H ( 1.00)
        N              5.00    14.00670     N ( 1.00)
        Ni            10.00    58.69340     Ni( 1.00)
        O              6.00    15.99940     O ( 1.00)

     Starting magnetic structure 
     atomic species   magnetization
        C            0.000
        H            0.000
        N            0.000
        Ni           0.250
        O            0.000

      2 Sym. Ops. (no inversion) found ( 1 have fractional translation)



   Cartesian axes

     site n.     atom                  positions (alat units)
         1           C   tau(   1) = (   0.5691129   1.9213309   0.8435924  )
         2           C   tau(   2) = (   0.7737740   1.9988410   0.8769484  )
         3           C   tau(   3) = (   0.8939722   1.9119175   1.0440566  )
         4           C   tau(   4) = (   0.3878954   1.0396777   0.8940371  )
         5           C   tau(   5) = (   0.4576709   1.2081171   1.0215454  )
         6           C   tau(   6) = (   0.4898428   1.7643077   0.9776734  )
         7           C   tau(   7) = (   0.8025222   1.7578986   1.1727151  )
         8           C   tau(   8) = (   0.1377615   1.2107208   1.2070569  )
         9           C   tau(   9) = (   0.0584822   1.0420812   1.0887502  )
        10           C   tau(  10) = (   0.1873493   0.9553579   0.9277216  )
        11           C   tau(  11) = (   0.8614386   0.1788542   0.7476326  )
        12           C   tau(  12) = (   0.1044740   0.7734994   0.7911760  )
        13           C   tau(  13) = (   0.0873123   0.0815159   0.0220182  )
        14           C   tau(  14) = (   0.2919734   0.0040057   0.0553741  )
        15           C   tau(  15) = (   0.4121716   0.0909292   0.2224823  )
        16           C   tau(  16) = (   0.9060948   0.9631690   0.0724628  )
        17           C   tau(  17) = (   0.9758703   0.7947296   0.1999712  )
        18           C   tau(  18) = (   0.0080421   0.2385390   0.1560991  )
        19           C   tau(  19) = (   0.3207216   0.2449482   0.3511408  )
        20           C   tau(  20) = (   0.6559609   0.7921259   0.3854826  )
        21           C   tau(  21) = (   0.5766816   0.9607656   0.2671759  )
        22           C   tau(  22) = (   0.7055486   1.0474888   0.1061474  )
        23           C   tau(  23) = (   0.3432392   1.8239925   1.5692068  )
        24           C   tau(  24) = (   0.5862746   1.2293473   1.6127503  )
        25           H   tau(  25) = (   0.4840353   1.9752074   0.7297223  )
        26           H   tau(  26) = (   0.0365226   1.9583835   1.0688681  )
        27           H   tau(  27) = (   0.4777087   0.9833977   0.7850964  )
        28           H   tau(  28) = (   0.5969732   1.2643971   0.9988700  )
        29           H   tau(  29) = (   0.3510215   1.7084283   0.9515473  )
        30           H   tau(  30) = (   0.8848144   1.6990149   1.2859280  )
        31           H   tau(  31) = (   0.0501555   1.2710065   1.3156690  )
        32           H   tau(  32) = (   0.9198816   0.9864020   1.1158622  )
        33           H   tau(  33) = (  -0.0341640   0.0276393   1.5512965  )
        34           H   tau(  34) = (   0.5547220   0.0444632   0.2472939  )
        35           H   tau(  35) = (   0.9595093   1.0194490   1.6066706  )
        36           H   tau(  36) = (   0.1151726   0.7384496   0.1772957  )
        37           H   tau(  37) = (   0.8692209   0.2944185   0.1299730  )
        38           H   tau(  38) = (   0.4030137   0.3038318   0.4643538  )
        39           H   tau(  39) = (   0.5683549   0.7318402   0.4940948  )
        40           H   tau(  40) = (   0.4380810   1.0164447   0.2942879  )
        41           N   tau(  41) = (   0.6025592   1.6881995   1.1439600  )
        42           N   tau(  42) = (   0.3350713   1.2940393   1.1750155  )
        43           N   tau(  43) = (   0.1207586   0.3146472   0.3223857  )
        44           N   tau(  44) = (   0.8532706   0.7088075   0.3534412  )
        45           Ni  tau(  45) = (   0.4642458   1.5100663   1.3793082  )
        46           Ni  tau(  46) = (   0.9824452   0.4927804   0.5577339  )
        47           O   tau(  47) = (   0.2269989   0.7002353   0.6455930  )
        48           O   tau(  48) = (   0.7414252   0.2665388   0.6082936  )
        49           O   tau(  49) = (   0.9187989   0.7054627   0.8171378  )
        50           O   tau(  50) = (   0.0492397   0.2399410   0.7791810  )
        51           O   tau(  51) = (   0.7087996   1.3026115   1.4671673  )
        52           O   tau(  52) = (   0.2232258   1.7363079   1.4298678  )
        53           O   tau(  53) = (   0.4005995   1.2973840   1.6387120  )
        54           O   tau(  54) = (   0.5310404   1.7629057   1.6007553  )

     number of k points=     1  Marzari-Vanderbilt smearing, width (Ry)=  0.2000
                       cart. coord. in units 2pi/alat
        k(    1) = (   0.0000000   0.0000000   0.0000000), wk =   1.0000000

     Dense  grid:   366763 G-vectors     FFT dimensions: (  80, 160, 128)

     Estimated max dynamical RAM per process >     175.09 MB

     Estimated total dynamical RAM >       2.74 GB
     Generating pointlists ...
     new r_m :   0.0626 (alat units)  0.7399 (a.u.) for type    1
     new r_m :   0.0626 (alat units)  0.7399 (a.u.) for type    2
     new r_m :   0.0882 (alat units)  1.0416 (a.u.) for type    3
     new r_m :   0.1337 (alat units)  1.5801 (a.u.) for type    4
     new r_m :   0.0823 (alat units)  0.9721 (a.u.) for type    5

     Check: negative core charge=   -0.000145

     Initial potential from superposition of free atoms

     starting charge  199.99835, renormalised to  200.00000


     %%%%%%%%%%%%%%%%%%%%%%%%%%%%%%%%%%%%%%%%%%%%%%%%%%%%%%%%%%%%%%%%%%%%%%%%
     %                                                                      %
     % You are using vdW-DF, which was implemented by the Thonhauser group. %
     % Please cite the following two papers that made this development      %
     % possible and the two reviews that describe the various versions:     %
     %                                                                      %
     %   T. Thonhauser et al., PRL 115, 136402 (2015).                      %
     %   T. Thonhauser et al., PRB 76, 125112 (2007).                       %
     %   K. Berland et al., Rep. Prog. Phys. 78, 066501 (2015).             %
     %   D.C. Langreth et al., J. Phys.: Condens. Matter 21, 084203 (2009). %
     %                                                                      %
     %                                                                      %
     % If you are calculating the stress with vdW-DF, please also cite:     %
     %                                                                      %
     %   R. Sabatini et al., J. Phys.: Condens. Matter 24, 424209 (2012).   %
     %                                                                      %
     %%%%%%%%%%%%%%%%%%%%%%%%%%%%%%%%%%%%%%%%%%%%%%%%%%%%%%%%%%%%%%%%%%%%%%%%


     Starting wfcs are  178 randomized atomic wfcs

     total cpu time spent up to now is       21.7 secs

     Self-consistent Calculation

     iteration #  1     ecut=   100.00 Ry     beta= 0.70
     Davidson diagonalization with overlap
     ethr =  1.00E-02,  avg # of iterations =  4.0

     total cpu time spent up to now is       39.7 secs

     total energy              =    -818.73951009 Ry
     Harris-Foulkes estimate   =    -824.94765362 Ry
     estimated scf accuracy    <      16.07152434 Ry

     total magnetization       =     4.00 Bohr mag/cell
     absolute magnetization    =     4.64 Bohr mag/cell

     iteration #  2     ecut=   100.00 Ry     beta= 0.70
     Davidson diagonalization with overlap
     ethr =  8.04E-03,  avg # of iterations =  2.0

     total cpu time spent up to now is       52.5 secs

     total energy              =    -821.67339106 Ry
     Harris-Foulkes estimate   =    -824.32095799 Ry
     estimated scf accuracy    <      11.64957027 Ry

     total magnetization       =     4.00 Bohr mag/cell
     absolute magnetization    =     4.15 Bohr mag/cell

     iteration #  3     ecut=   100.00 Ry     beta= 0.70
     Davidson diagonalization with overlap
     ethr =  5.82E-03,  avg # of iterations =  1.0

     total cpu time spent up to now is       64.2 secs

     total energy              =    -821.12817203 Ry
     Harris-Foulkes estimate   =    -822.08586317 Ry
     estimated scf accuracy    <       3.57678817 Ry

     total magnetization       =     4.00 Bohr mag/cell
     absolute magnetization    =     4.16 Bohr mag/cell

     iteration #  4     ecut=   100.00 Ry     beta= 0.70
     Davidson diagonalization with overlap
     ethr =  1.79E-03,  avg # of iterations =  4.0

     total cpu time spent up to now is       77.1 secs

     total energy              =    -821.24037519 Ry
     Harris-Foulkes estimate   =    -822.04536503 Ry
     estimated scf accuracy    <       6.49602451 Ry

     total magnetization       =     4.00 Bohr mag/cell
     absolute magnetization    =     4.17 Bohr mag/cell

     iteration #  5     ecut=   100.00 Ry     beta= 0.70
     Davidson diagonalization with overlap
     ethr =  1.79E-03,  avg # of iterations =  6.5

     total cpu time spent up to now is       90.1 secs

     total energy              =    -821.53493987 Ry
     Harris-Foulkes estimate   =    -821.57557100 Ry
     estimated scf accuracy    <       0.13392876 Ry

     total magnetization       =     4.00 Bohr mag/cell
     absolute magnetization    =     4.18 Bohr mag/cell

     iteration #  6     ecut=   100.00 Ry     beta= 0.70
     Davidson diagonalization with overlap
     ethr =  6.70E-05,  avg # of iterations =  5.5

     total cpu time spent up to now is      105.9 secs

     total energy              =    -821.48445608 Ry
     Harris-Foulkes estimate   =    -821.57673062 Ry
     estimated scf accuracy    <       0.60314500 Ry

     total magnetization       =     4.00 Bohr mag/cell
     absolute magnetization    =     4.18 Bohr mag/cell

     iteration #  7     ecut=   100.00 Ry     beta= 0.70
     Davidson diagonalization with overlap
     ethr =  6.70E-05,  avg # of iterations =  2.0

     total cpu time spent up to now is      118.1 secs

     total energy              =    -821.52727153 Ry
     Harris-Foulkes estimate   =    -821.53415386 Ry
     estimated scf accuracy    <       0.07726585 Ry

     total magnetization       =     4.00 Bohr mag/cell
     absolute magnetization    =     4.17 Bohr mag/cell

     iteration #  8     ecut=   100.00 Ry     beta= 0.70
     Davidson diagonalization with overlap
     ethr =  3.86E-05,  avg # of iterations =  3.0

     total cpu time spent up to now is      130.1 secs

     total energy              =    -821.51851156 Ry
     Harris-Foulkes estimate   =    -821.53208852 Ry
     estimated scf accuracy    <       0.14010718 Ry

     total magnetization       =     4.00 Bohr mag/cell
     absolute magnetization    =     4.16 Bohr mag/cell

     iteration #  9     ecut=   100.00 Ry     beta= 0.70
     Davidson diagonalization with overlap
     ethr =  3.86E-05,  avg # of iterations =  2.0

     total cpu time spent up to now is      142.0 secs

     total energy              =    -821.51793265 Ry
     Harris-Foulkes estimate   =    -821.52293765 Ry
     estimated scf accuracy    <       0.01724624 Ry

     total magnetization       =     4.00 Bohr mag/cell
     absolute magnetization    =     4.15 Bohr mag/cell

     iteration # 10     ecut=   100.00 Ry     beta= 0.70
     Davidson diagonalization with overlap
     ethr =  8.62E-06,  avg # of iterations =  3.5

     total cpu time spent up to now is      155.4 secs

     total energy              =    -821.51988704 Ry
     Harris-Foulkes estimate   =    -821.52181735 Ry
     estimated scf accuracy    <       0.02689182 Ry

     total magnetization       =     4.00 Bohr mag/cell
     absolute magnetization    =     4.14 Bohr mag/cell

     iteration # 11     ecut=   100.00 Ry     beta= 0.70
     Davidson diagonalization with overlap
     ethr =  8.62E-06,  avg # of iterations =  2.0

     total cpu time spent up to now is      167.7 secs

     total energy              =    -821.51961353 Ry
     Harris-Foulkes estimate   =    -821.52036334 Ry
     estimated scf accuracy    <       0.00784112 Ry

     total magnetization       =     4.00 Bohr mag/cell
     absolute magnetization    =     4.13 Bohr mag/cell

     iteration # 12     ecut=   100.00 Ry     beta= 0.70
     Davidson diagonalization with overlap
     ethr =  3.92E-06,  avg # of iterations =  2.0

     total cpu time spent up to now is      180.7 secs

     total energy              =    -821.52014552 Ry
     Harris-Foulkes estimate   =    -821.52000554 Ry
     estimated scf accuracy    <       0.00032564 Ry

     total magnetization       =     4.00 Bohr mag/cell
     absolute magnetization    =     4.13 Bohr mag/cell

     iteration # 13     ecut=   100.00 Ry     beta= 0.70
     Davidson diagonalization with overlap
     ethr =  1.63E-07,  avg # of iterations =  4.5

     total cpu time spent up to now is      201.5 secs

     total energy              =    -821.52019244 Ry
     Harris-Foulkes estimate   =    -821.52018499 Ry
     estimated scf accuracy    <       0.00012969 Ry

     total magnetization       =     4.00 Bohr mag/cell
     absolute magnetization    =     4.12 Bohr mag/cell

     iteration # 14     ecut=   100.00 Ry     beta= 0.70
     Davidson diagonalization with overlap
     ethr =  6.48E-08,  avg # of iterations =  4.0

     total cpu time spent up to now is      223.9 secs

     total energy              =    -821.52021623 Ry
     Harris-Foulkes estimate   =    -821.52020220 Ry
     estimated scf accuracy    <       0.00003434 Ry

     total magnetization       =     4.00 Bohr mag/cell
     absolute magnetization    =     4.12 Bohr mag/cell

     iteration # 15     ecut=   100.00 Ry     beta= 0.70
     Davidson diagonalization with overlap
     ethr =  1.72E-08,  avg # of iterations =  4.0

     total cpu time spent up to now is      246.1 secs

     total energy              =    -821.52022202 Ry
     Harris-Foulkes estimate   =    -821.52022011 Ry
     estimated scf accuracy    <       0.00000970 Ry

     total magnetization       =     4.00 Bohr mag/cell
     absolute magnetization    =     4.13 Bohr mag/cell

     iteration # 16     ecut=   100.00 Ry     beta= 0.70
     Davidson diagonalization with overlap
     ethr =  4.85E-09,  avg # of iterations =  5.0

     total cpu time spent up to now is      273.4 secs

     total energy              =    -821.52022494 Ry
     Harris-Foulkes estimate   =    -821.52022484 Ry
     estimated scf accuracy    <       0.00000263 Ry

     total magnetization       =     4.00 Bohr mag/cell
     absolute magnetization    =     4.13 Bohr mag/cell

     iteration # 17     ecut=   100.00 Ry     beta= 0.70
     Davidson diagonalization with overlap
     ethr =  1.32E-09,  avg # of iterations =  4.5

     total cpu time spent up to now is      300.3 secs

     total energy              =    -821.52022606 Ry
     Harris-Foulkes estimate   =    -821.52022567 Ry
     estimated scf accuracy    <       0.00000111 Ry

     total magnetization       =     4.00 Bohr mag/cell
     absolute magnetization    =     4.13 Bohr mag/cell

     iteration # 18     ecut=   100.00 Ry     beta= 0.70
     Davidson diagonalization with overlap
     ethr =  5.55E-10,  avg # of iterations =  5.0
 
     Magnetic moment per site:
     atom:    1    charge:    0.6090    magn:    0.0037    constr:    0.0000
     atom:    2    charge:    0.5859    magn:    0.0037    constr:    0.0000
     atom:    3    charge:    0.6082    magn:    0.0039    constr:    0.0000
     atom:    4    charge:    0.6092    magn:    0.0037    constr:    0.0000
     atom:    5    charge:    0.6013    magn:    0.0033    constr:    0.0000
     atom:    6    charge:    0.6019    magn:    0.0034    constr:    0.0000
     atom:    7    charge:    0.6033    magn:    0.0032    constr:    0.0000
     atom:    8    charge:    0.6004    magn:    0.0034    constr:    0.0000
     atom:    9    charge:    0.6079    magn:    0.0037    constr:    0.0000
     atom:   10    charge:    0.5861    magn:    0.0036    constr:    0.0000
     atom:   11    charge:    0.5683    magn:   -0.0017    constr:    0.0000
     atom:   12    charge:    0.5684    magn:   -0.0016    constr:    0.0000
     atom:   13    charge:    0.6090    magn:    0.0037    constr:    0.0000
     atom:   14    charge:    0.5859    magn:    0.0037    constr:    0.0000
     atom:   15    charge:    0.6082    magn:    0.0039    constr:    0.0000
     atom:   16    charge:    0.6092    magn:    0.0037    constr:    0.0000
     atom:   17    charge:    0.6013    magn:    0.0033    constr:    0.0000
     atom:   18    charge:    0.6019    magn:    0.0034    constr:    0.0000
     atom:   19    charge:    0.6033    magn:    0.0032    constr:    0.0000
     atom:   20    charge:    0.6004    magn:    0.0034    constr:    0.0000
     atom:   21    charge:    0.6079    magn:    0.0037    constr:    0.0000
     atom:   22    charge:    0.5861    magn:    0.0036    constr:    0.0000
     atom:   23    charge:    0.5683    magn:   -0.0017    constr:    0.0000
     atom:   24    charge:    0.5684    magn:   -0.0016    constr:    0.0000
     atom:   25    charge:    0.4690    magn:   -0.0007    constr:    0.0000
     atom:   26    charge:    0.4691    magn:   -0.0008    constr:    0.0000
     atom:   27    charge:    0.4695    magn:   -0.0007    constr:    0.0000
     atom:   28    charge:    0.4729    magn:   -0.0005    constr:    0.0000
     atom:   29    charge:    0.4731    magn:   -0.0005    constr:    0.0000
     atom:   30    charge:    0.4715    magn:   -0.0005    constr:    0.0000
     atom:   31    charge:    0.4708    magn:   -0.0005    constr:    0.0000
     atom:   32    charge:    0.4696    magn:   -0.0008    constr:    0.0000
     atom:   33    charge:    0.4690    magn:   -0.0007    constr:    0.0000
     atom:   34    charge:    0.4691    magn:   -0.0008    constr:    0.0000
     atom:   35    charge:    0.4695    magn:   -0.0007    constr:    0.0000
     atom:   36    charge:    0.4729    magn:   -0.0005    constr:    0.0000
     atom:   37    charge:    0.4731    magn:   -0.0005    constr:    0.0000
     atom:   38    charge:    0.4715    magn:   -0.0005    constr:    0.0000
     atom:   39    charge:    0.4708    magn:   -0.0005    constr:    0.0000
     atom:   40    charge:    0.4696    magn:   -0.0008    constr:    0.0000
     atom:   41    charge:    2.4605    magn:    0.0129    constr:    0.0000
     atom:   42    charge:    2.4549    magn:    0.0120    constr:    0.0000
     atom:   43    charge:    2.4605    magn:    0.0128    constr:    0.0000
     atom:   44    charge:    2.4549    magn:    0.0120    constr:    0.0000
     atom:   45    charge:    7.5443    magn:    1.3018    constr:    0.0000
     atom:   46    charge:    7.5433    magn:    1.3021    constr:    0.0000
     atom:   47    charge:    3.1700    magn:    0.0511    constr:    0.0000
     atom:   48    charge:    3.1690    magn:    0.0520    constr:    0.0000
     atom:   49    charge:    3.1776    magn:    0.0492    constr:    0.0000
     atom:   50    charge:    3.1757    magn:    0.0513    constr:    0.0000
     atom:   51    charge:    3.1700    magn:    0.0511    constr:    0.0000
     atom:   52    charge:    3.1689    magn:    0.0520    constr:    0.0000
     atom:   53    charge:    3.1776    magn:    0.0492    constr:    0.0000
     atom:   54    charge:    3.1756    magn:    0.0513    constr:    0.0000

     total cpu time spent up to now is      326.0 secs

     End of self-consistent calculation

 ------ SPIN UP ------------


          k = 0.0000 0.0000 0.0000 ( 45819 PWs)   bands (ev):

   -22.7416 -22.7391 -22.6439 -22.6418 -20.1103 -20.1102 -20.0898 -20.0886
   -19.5969 -19.5834 -19.4749 -19.4678 -15.8888 -15.8269 -15.8226 -15.7960
   -14.9660 -14.9272 -14.9271 -14.8818 -12.0942 -12.0703 -12.0509 -12.0161
   -11.8517 -11.8141 -11.7869 -11.7239 -10.2762 -10.0137  -9.9888  -9.9164
    -8.5523  -8.3847  -8.3231  -8.2858  -8.0264  -8.0123  -7.9517  -7.8908
    -7.8654  -7.6879  -7.4913  -7.4421  -7.1452  -7.0095  -7.0027  -6.8903
    -6.8747  -6.8633  -6.7681  -6.7065  -6.7041  -6.6042  -6.5693  -6.5673
    -6.5601  -6.5000  -6.4520  -6.2697  -5.9148  -5.7170  -5.5201  -5.3146
    -4.9743  -4.9386  -4.9026  -4.9018  -4.8039  -4.7790  -4.4182  -4.3753
    -4.0580  -3.7664  -3.7595  -3.5837  -3.5583  -3.5234  -3.4793  -3.4146
    -3.3507  -3.0338  -2.8687  -2.8643  -2.7914  -2.7585  -2.7503  -2.7349
    -2.6681  -2.6316  -2.5913  -2.5813  -2.4599  -2.4497  -2.3968  -2.2834
    -2.2580  -2.1354  -0.9318  -0.9170  -0.6894  -0.6774   1.7395   1.8036
     1.8317   1.8705   2.2552   2.7405   2.8023   3.0355   3.0707   3.2349
     3.6782   4.0448   4.2319   4.4330   4.4549   4.6397   4.6616   4.7375
     4.9065   5.2788

 ------ SPIN DOWN ----------


          k = 0.0000 0.0000 0.0000 ( 45819 PWs)   bands (ev):

   -22.6518 -22.6492 -22.5537 -22.5514 -19.9924 -19.9923 -19.9687 -19.9676
   -19.5676 -19.5537 -19.4464 -19.4390 -15.8528 -15.7910 -15.7868 -15.7590
   -14.9319 -14.8929 -14.8928 -14.8474 -12.0573 -12.0352 -12.0168 -11.9830
   -11.8286 -11.7900 -11.7634 -11.7003 -10.2548  -9.9937  -9.9676  -9.8914
    -8.5063  -8.3534  -8.2882  -8.2480  -8.0013  -7.9858  -7.9239  -7.8718
    -7.8506  -7.6576  -7.4569  -7.4045  -7.0558  -6.9452  -6.9260  -6.8128
    -6.7769  -6.7663  -6.6973  -6.6351  -6.6125  -6.5518  -6.5207  -6.5152
    -6.4656  -6.3983  -6.3889  -6.1804  -5.8285  -5.6305  -5.4416  -5.2339
    -4.9536  -4.9312  -4.8866  -4.8846  -4.6783  -4.1585  -3.9197  -3.9014
    -3.5979  -3.4128  -3.2681  -3.2414  -3.0357  -3.0093  -2.9444  -2.9171
    -2.8927  -2.7197  -2.6942  -2.6344  -2.6089  -2.5900  -2.5095  -2.4652
    -2.3643  -2.2295  -2.1800  -2.0291  -1.8949  -1.6699  -1.6633  -1.6269
    -1.6051  -1.4949   0.0135   0.0240   0.1974   0.2215   1.8209   1.9109
     1.9445   1.9641   2.2270   2.8311   2.8490   3.0958   3.1280   3.3360
     3.6627   4.0368   4.2833   4.4879   4.5083   4.6561   4.6712   4.7680
     4.9193   5.3040

     the spin up/dw Fermi energies are    -0.2073   -0.4828 ev

!    total energy              =    -821.52022528 Ry
     Harris-Foulkes estimate   =    -821.52022657 Ry
     estimated scf accuracy    <       0.00000086 Ry

     The total energy is the sum of the following terms:

     one-electron contribution =   -1217.91417974 Ry
     hartree contribution      =     681.15950076 Ry
     xc contribution           =    -260.41171440 Ry
     ewald contribution        =     -25.36061178 Ry
     Dispersion Correction     =      -0.20316514 Ry
     smearing contrib. (-TS)   =       1.20994502 Ry

     total magnetization       =     4.00 Bohr mag/cell
     absolute magnetization    =     4.13 Bohr mag/cell

     convergence has been achieved in  18 iterations

     Forces acting on atoms (cartesian axes, Ry/au):

     atom    1 type  1   force =     0.13881069   -0.06254497    0.14835491
     atom    2 type  1   force =     0.01554303    0.01365916    0.00968495
     atom    3 type  1   force =    -0.20531713   -0.04021981   -0.07195577
     atom    4 type  1   force =    -0.13361226    0.07539285    0.15140204
     atom    5 type  1   force =    -0.19494333   -0.08634919    0.02012805
     atom    6 type  1   force =     0.19044929    0.07693997    0.03474890
     atom    7 type  1   force =    -0.10270226    0.07679188   -0.14825132
     atom    8 type  1   force =     0.12623401   -0.07092137   -0.14124969
     atom    9 type  1   force =     0.21920504    0.05926031   -0.07111192
     atom   10 type  1   force =    -0.03618638   -0.02204880    0.00000894
     atom   11 type  1   force =    -0.05139672   -0.08870869    0.03997183
     atom   12 type  1   force =     0.06090528    0.09080386    0.04960688
     atom   13 type  1   force =     0.13881069    0.06254497    0.14835491
     atom   14 type  1   force =     0.01554303   -0.01365916    0.00968495
     atom   15 type  1   force =    -0.20531713    0.04021981   -0.07195577
     atom   16 type  1   force =    -0.13361226   -0.07539285    0.15140204
     atom   17 type  1   force =    -0.19494333    0.08634919    0.02012805
     atom   18 type  1   force =     0.19044929   -0.07693997    0.03474890
     atom   19 type  1   force =    -0.10270226   -0.07679188   -0.14825132
     atom   20 type  1   force =     0.12623401    0.07092137   -0.14124969
     atom   21 type  1   force =     0.21920504   -0.05926031   -0.07111192
     atom   22 type  1   force =    -0.03618638    0.02204880    0.00000894
     atom   23 type  1   force =    -0.05139672    0.08870869    0.03997183
     atom   24 type  1   force =     0.06090528   -0.09080386    0.04960688
     atom   25 type  2   force =    -0.14642544    0.08455989   -0.18165488
     atom   26 type  2   force =     0.23216560    0.07273300    0.05122079
     atom   27 type  2   force =     0.15428082   -0.08744984   -0.17317431
     atom   28 type  2   force =     0.22865605    0.10246674   -0.02924715
     atom   29 type  2   force =    -0.23191848   -0.09876972   -0.03098557
     atom   30 type  2   force =     0.12482378   -0.10205042    0.19189641
     atom   31 type  2   force =    -0.13227744    0.10757683    0.18106369
     atom   32 type  2   force =    -0.23050525   -0.08685107    0.05277658
     atom   33 type  2   force =    -0.14642544   -0.08455989   -0.18165488
     atom   34 type  2   force =     0.23216560   -0.07273300    0.05122079
     atom   35 type  2   force =     0.15428082    0.08744984   -0.17317431
     atom   36 type  2   force =     0.22865605   -0.10246674   -0.02924715
     atom   37 type  2   force =    -0.23191848    0.09876972   -0.03098557
     atom   38 type  2   force =     0.12482378    0.10205042    0.19189641
     atom   39 type  2   force =    -0.13227744   -0.10757683    0.18106369
     atom   40 type  2   force =    -0.23050525    0.08685107    0.05277658
     atom   41 type  3   force =    -0.01579187   -0.01764001    0.01115713
     atom   42 type  3   force =    -0.00475426    0.00353443    0.01140039
     atom   43 type  3   force =    -0.01579187    0.01764001    0.01115713
     atom   44 type  3   force =    -0.00475426   -0.00353443    0.01140039
     atom   45 type  4   force =    -0.00832492   -0.02176942   -0.03788232
     atom   46 type  4   force =    -0.00832492    0.02176942   -0.03788232
     atom   47 type  5   force =     0.00574446   -0.03266010   -0.02918335
     atom   48 type  5   force =    -0.00122918    0.03584488   -0.02616884
     atom   49 type  5   force =    -0.05273268   -0.03724449   -0.00614057
     atom   50 type  5   force =     0.05129954    0.04188032   -0.00641581
     atom   51 type  5   force =     0.00574446    0.03266010   -0.02918335
     atom   52 type  5   force =    -0.00122918   -0.03584488   -0.02616884
     atom   53 type  5   force =    -0.05273268    0.03724449   -0.00614057
     atom   54 type  5   force =     0.05129954   -0.04188032   -0.00641581

     Total force =     1.349936     Total SCF correction =     0.002000

     BFGS Geometry Optimization

     number of scf cycles    =   1
     number of bfgs steps    =   0

     energy   new            =    -821.5202252802 Ry

     new trust radius        =       0.2539719402 bohr
     new conv_thr            =       0.0000010000 Ry


ATOMIC_POSITIONS (crystal)
C             0.5998257334        0.9566571576        0.5210410264
C             0.7945335702        0.9985771690        0.5341988236
C             0.8995890248        0.9529005087        0.6316939150
C             0.3966761716        0.5222857305        0.5518979690
C             0.4638395947        0.5995513085        0.6227366961
C             0.5276829517        0.8841511042        0.5967897436
C             0.8195303333        0.8809448468        0.7060643090
C             0.1749184366        0.6015032123        0.7273249285
C             0.1010181040        0.5228040489        0.6589373773
C             0.2048375475        0.4760683265        0.5646004606
C             0.8737252086        0.0855516078        0.4570587508
C             0.1272474393        0.3900369240        0.4840550048
C             0.0998257334        0.0433428424        0.0210410264
C             0.2945335702        0.0014228310        0.0341988236
C             0.3995890248        0.0470994913        0.1316939150
C             0.8966761716        0.4777142695        0.0518979690
C             0.9638395947        0.4004486915        0.1227366961
C             0.0276829517        0.1158488958        0.0967897436
C             0.3195303333        0.1190551532        0.2060643090
C             0.6749184366        0.3984967877        0.2273249285
C             0.6010181040        0.4771959511        0.1589373773
C             0.7048375475        0.5239316735        0.0646004606
C             0.3737252086        0.9144483922        0.9570587508
C             0.6272474393        0.6099630760        0.9840550048
H             0.4874673991        0.9897730843        0.4347438572
H             0.0799443012        0.9808733385        0.6531381291
H             0.5078322001        0.4873048003        0.4688806495
H             0.6383964318        0.6356297399        0.6063936241
H             0.3524145477        0.8488264780        0.5775040867
H             0.9242236434        0.8439878516        0.7924836335
H             0.0684447456        0.6391456670        0.8100256937
H             0.9251911810        0.4888301014        0.6818182604
H            -0.0125326009        0.0102269157        0.9347438572
H             0.5799443012        0.0191266615        0.1531381291
H             1.0078322001        0.5126951997        0.9688806495
H             0.1383964318        0.3643702601        0.1063936241
H             0.8524145477        0.1511735220        0.0775040867
H             0.4242236434        0.1560121484        0.2924836335
H             0.5684447456        0.3608543330        0.3100256937
H             0.4251911810        0.5111698986        0.1818182604
N             0.6265844439        0.8421546201        0.6967746484
N             0.3607190172        0.6462493476        0.7156871776
N             0.1265844439        0.1578453799        0.1967746484
N             0.8607190172        0.3537506524        0.2156871776
Ni            0.4940244394        0.7530401315        0.8374788692
Ni            0.9940244394        0.2469598685        0.3374788692
O             0.2417314460        0.3482399449        0.3913969104
O             0.7547469146        0.1345946281        0.3688521725
O             0.9324256983        0.3506562313        0.4969837296
O             0.0708294748        0.1215696559        0.4738695535
O             0.7417314460        0.6517600551        0.8913969104
O             0.2547469146        0.8654053719        0.8688521725
O             0.4324256983        0.6493437687        0.9969837296
O             0.5708294748        0.8784303441        0.9738695535



     Writing output data file ./QE_relaxation_results/VDW_relax/NiPyC2_vdw-df2_relax.save/
     NEW-OLD atomic charge density approx. for the potential

     Check: negative core charge=   -0.000145

     total cpu time spent up to now is      348.7 secs

     Self-consistent Calculation

     iteration #  1     ecut=   100.00 Ry     beta= 0.70
     Davidson diagonalization with overlap
     ethr =  1.00E-06,  avg # of iterations = 15.0

     total cpu time spent up to now is      427.6 secs

     total energy              =    -821.19107933 Ry
     Harris-Foulkes estimate   =    -821.35141059 Ry
     estimated scf accuracy    <       0.58518523 Ry

     total magnetization       =     4.00 Bohr mag/cell
     absolute magnetization    =     4.08 Bohr mag/cell

     iteration #  2     ecut=   100.00 Ry     beta= 0.70
     Davidson diagonalization with overlap
     ethr =  2.93E-04,  avg # of iterations =  3.0

     total cpu time spent up to now is      449.3 secs

     total energy              =    -821.21437819 Ry
     Harris-Foulkes estimate   =    -821.25195271 Ry
     estimated scf accuracy    <       0.13715828 Ry

     total magnetization       =     4.00 Bohr mag/cell
     absolute magnetization    =     4.08 Bohr mag/cell

     iteration #  3     ecut=   100.00 Ry     beta= 0.70
     Davidson diagonalization with overlap
     ethr =  6.86E-05,  avg # of iterations =  2.0

     total cpu time spent up to now is      470.8 secs

     total energy              =    -821.20651668 Ry
     Harris-Foulkes estimate   =    -821.25829149 Ry
     estimated scf accuracy    <       0.44060979 Ry

     total magnetization       =     4.00 Bohr mag/cell
     absolute magnetization    =     4.09 Bohr mag/cell

     iteration #  4     ecut=   100.00 Ry     beta= 0.70
     Davidson diagonalization with overlap
     ethr =  6.86E-05,  avg # of iterations =  2.0

     total cpu time spent up to now is      492.6 secs

     total energy              =    -821.23271873 Ry
     Harris-Foulkes estimate   =    -821.24393145 Ry
     estimated scf accuracy    <       0.11689668 Ry

     total magnetization       =     4.00 Bohr mag/cell
     absolute magnetization    =     4.09 Bohr mag/cell

     iteration #  5     ecut=   100.00 Ry     beta= 0.70
     Davidson diagonalization with overlap
     ethr =  5.84E-05,  avg # of iterations =  1.0

     total cpu time spent up to now is      512.2 secs

     total energy              =    -821.23558643 Ry
     Harris-Foulkes estimate   =    -821.24123162 Ry
     estimated scf accuracy    <       0.06385876 Ry

     total magnetization       =     4.00 Bohr mag/cell
     absolute magnetization    =     4.09 Bohr mag/cell

     iteration #  6     ecut=   100.00 Ry     beta= 0.70
     Davidson diagonalization with overlap
     ethr =  3.19E-05,  avg # of iterations =  1.0

     total cpu time spent up to now is      531.9 secs

     total energy              =    -821.23827710 Ry
     Harris-Foulkes estimate   =    -821.23852165 Ry
     estimated scf accuracy    <       0.00135349 Ry

     total magnetization       =     4.00 Bohr mag/cell
     absolute magnetization    =     4.09 Bohr mag/cell

     iteration #  7     ecut=   100.00 Ry     beta= 0.70
     Davidson diagonalization with overlap
     ethr =  6.77E-07,  avg # of iterations =  6.0

     total cpu time spent up to now is      555.2 secs

     total energy              =    -821.23834751 Ry
     Harris-Foulkes estimate   =    -821.23842944 Ry
     estimated scf accuracy    <       0.00038478 Ry

     total magnetization       =     4.00 Bohr mag/cell
     absolute magnetization    =     4.09 Bohr mag/cell

     iteration #  8     ecut=   100.00 Ry     beta= 0.70
     Davidson diagonalization with overlap
     ethr =  1.92E-07,  avg # of iterations =  2.0

     total cpu time spent up to now is      577.7 secs

     total energy              =    -821.23835415 Ry
     Harris-Foulkes estimate   =    -821.23838232 Ry
     estimated scf accuracy    <       0.00013254 Ry

     total magnetization       =     4.00 Bohr mag/cell
     absolute magnetization    =     4.10 Bohr mag/cell

     iteration #  9     ecut=   100.00 Ry     beta= 0.70
     Davidson diagonalization with overlap
     ethr =  6.63E-08,  avg # of iterations =  3.0

     total cpu time spent up to now is      601.6 secs

     total energy              =    -821.23837225 Ry
     Harris-Foulkes estimate   =    -821.23837184 Ry
     estimated scf accuracy    <       0.00003603 Ry

     total magnetization       =     4.00 Bohr mag/cell
     absolute magnetization    =     4.10 Bohr mag/cell

     iteration # 10     ecut=   100.00 Ry     beta= 0.70
     Davidson diagonalization with overlap
     ethr =  1.80E-08,  avg # of iterations =  3.5

     total cpu time spent up to now is      624.4 secs

     total energy              =    -821.23837782 Ry
     Harris-Foulkes estimate   =    -821.23837714 Ry
     estimated scf accuracy    <       0.00001138 Ry

     total magnetization       =     4.00 Bohr mag/cell
     absolute magnetization    =     4.10 Bohr mag/cell

     iteration # 11     ecut=   100.00 Ry     beta= 0.70
     Davidson diagonalization with overlap
     ethr =  5.69E-09,  avg # of iterations =  4.0

     total cpu time spent up to now is      647.2 secs

     total energy              =    -821.23838041 Ry
     Harris-Foulkes estimate   =    -821.23837936 Ry
     estimated scf accuracy    <       0.00000633 Ry

     total magnetization       =     4.00 Bohr mag/cell
     absolute magnetization    =     4.10 Bohr mag/cell

     iteration # 12     ecut=   100.00 Ry     beta= 0.70
     Davidson diagonalization with overlap
     ethr =  3.17E-09,  avg # of iterations =  5.0

     total cpu time spent up to now is      673.2 secs

     total energy              =    -821.23838200 Ry
     Harris-Foulkes estimate   =    -821.23838133 Ry
     estimated scf accuracy    <       0.00000183 Ry

     total magnetization       =     4.00 Bohr mag/cell
     absolute magnetization    =     4.10 Bohr mag/cell

     iteration # 13     ecut=   100.00 Ry     beta= 0.70
     Davidson diagonalization with overlap
     ethr =  9.13E-10,  avg # of iterations =  5.0
 
     Magnetic moment per site:
     atom:    1    charge:    0.5824    magn:    0.0039    constr:    0.0000
     atom:    2    charge:    0.6171    magn:    0.0033    constr:    0.0000
     atom:    3    charge:    0.5827    magn:    0.0038    constr:    0.0000
     atom:    4    charge:    0.5815    magn:    0.0039    constr:    0.0000
     atom:    5    charge:    0.5761    magn:    0.0031    constr:    0.0000
     atom:    6    charge:    0.5762    magn:    0.0031    constr:    0.0000
     atom:    7    charge:    0.5790    magn:    0.0037    constr:    0.0000
     atom:    8    charge:    0.5792    magn:    0.0035    constr:    0.0000
     atom:    9    charge:    0.5780    magn:    0.0036    constr:    0.0000
     atom:   10    charge:    0.6170    magn:    0.0033    constr:    0.0000
     atom:   11    charge:    0.5528    magn:   -0.0023    constr:    0.0000
     atom:   12    charge:    0.5525    magn:   -0.0021    constr:    0.0000
     atom:   13    charge:    0.5824    magn:    0.0039    constr:    0.0000
     atom:   14    charge:    0.6171    magn:    0.0033    constr:    0.0000
     atom:   15    charge:    0.5827    magn:    0.0038    constr:    0.0000
     atom:   16    charge:    0.5815    magn:    0.0039    constr:    0.0000
     atom:   17    charge:    0.5761    magn:    0.0031    constr:    0.0000
     atom:   18    charge:    0.5762    magn:    0.0031    constr:    0.0000
     atom:   19    charge:    0.5790    magn:    0.0037    constr:    0.0000
     atom:   20    charge:    0.5792    magn:    0.0035    constr:    0.0000
     atom:   21    charge:    0.5780    magn:    0.0036    constr:    0.0000
     atom:   22    charge:    0.6170    magn:    0.0033    constr:    0.0000
     atom:   23    charge:    0.5528    magn:   -0.0023    constr:    0.0000
     atom:   24    charge:    0.5525    magn:   -0.0021    constr:    0.0000
     atom:   25    charge:    0.3825    magn:    0.0005    constr:    0.0000
     atom:   26    charge:    0.3816    magn:    0.0006    constr:    0.0000
     atom:   27    charge:    0.3818    magn:    0.0006    constr:    0.0000
     atom:   28    charge:    0.3874    magn:    0.0006    constr:    0.0000
     atom:   29    charge:    0.3894    magn:    0.0005    constr:    0.0000
     atom:   30    charge:    0.3880    magn:    0.0010    constr:    0.0000
     atom:   31    charge:    0.3861    magn:    0.0010    constr:    0.0000
     atom:   32    charge:    0.3771    magn:    0.0007    constr:    0.0000
     atom:   33    charge:    0.3825    magn:    0.0005    constr:    0.0000
     atom:   34    charge:    0.3816    magn:    0.0006    constr:    0.0000
     atom:   35    charge:    0.3818    magn:    0.0006    constr:    0.0000
     atom:   36    charge:    0.3874    magn:    0.0006    constr:    0.0000
     atom:   37    charge:    0.3894    magn:    0.0005    constr:    0.0000
     atom:   38    charge:    0.3880    magn:    0.0010    constr:    0.0000
     atom:   39    charge:    0.3861    magn:    0.0010    constr:    0.0000
     atom:   40    charge:    0.3771    magn:    0.0007    constr:    0.0000
     atom:   41    charge:    2.5103    magn:    0.0135    constr:    0.0000
     atom:   42    charge:    2.5098    magn:    0.0131    constr:    0.0000
     atom:   43    charge:    2.5103    magn:    0.0135    constr:    0.0000
     atom:   44    charge:    2.5098    magn:    0.0131    constr:    0.0000
     atom:   45    charge:    7.5276    magn:    1.2560    constr:    0.0000
     atom:   46    charge:    7.5274    magn:    1.2564    constr:    0.0000
     atom:   47    charge:    3.1473    magn:    0.0522    constr:    0.0000
     atom:   48    charge:    3.1451    magn:    0.0544    constr:    0.0000
     atom:   49    charge:    3.1346    magn:    0.0612    constr:    0.0000
     atom:   50    charge:    3.1346    magn:    0.0633    constr:    0.0000
     atom:   51    charge:    3.1472    magn:    0.0522    constr:    0.0000
     atom:   52    charge:    3.1450    magn:    0.0544    constr:    0.0000
     atom:   53    charge:    3.1346    magn:    0.0612    constr:    0.0000
     atom:   54    charge:    3.1347    magn:    0.0633    constr:    0.0000

     total cpu time spent up to now is      699.0 secs

     End of self-consistent calculation

 ------ SPIN UP ------------


          k = 0.0000 0.0000 0.0000 ( 45819 PWs)   bands (ev):

   -22.3032 -22.2956 -22.2044 -22.1991 -20.6047 -20.5848 -20.5255 -20.5130
   -19.6792 -19.6785 -19.6688 -19.6677 -16.7744 -16.7151 -16.7127 -16.6888
   -14.7725 -14.7413 -14.7158 -14.6872 -12.8053 -12.7058 -12.6562 -12.6397
   -11.2829 -11.2593 -11.2299 -11.1678  -9.9766  -9.8451  -9.8197  -9.7285
    -8.8112  -8.5723  -8.5341  -8.4991  -8.4356  -8.3353  -8.0687  -7.9619
    -7.4465  -7.2931  -7.2591  -7.0990  -7.0414  -6.8389  -6.7881  -6.6084
    -6.5919  -6.5836  -6.5070  -6.4583  -6.4142  -6.1375  -5.8499  -5.6956
    -5.6023  -5.5804  -5.5539  -5.4645  -5.3854  -5.2881  -5.2239  -5.1742
    -5.0724  -5.0060  -4.7757  -4.5843  -4.3131  -4.1932  -4.1703  -4.0111
    -3.8659  -3.8470  -3.7830  -3.7419  -3.6975  -3.5605  -3.4549  -3.4214
    -3.2963  -3.2793  -3.1682  -3.1173  -3.0871  -2.9860  -2.9758  -2.9024
    -2.8398  -2.7491  -2.7221  -2.6465  -2.6322  -2.6092  -2.5811  -2.4749
    -2.4382  -2.3486  -1.0912  -1.0566  -0.9353  -0.9200   1.3759   1.4090
     1.4471   1.5213   2.2302   2.8693   3.4741   3.5648   3.6243   3.7442
     3.9202   3.9860   4.0920   4.1393   4.3284   4.4803   4.5073   4.6081
     4.6843   4.8233

 ------ SPIN DOWN ----------


          k = 0.0000 0.0000 0.0000 ( 45819 PWs)   bands (ev):

   -22.2011 -22.1929 -22.1028 -22.0970 -20.5745 -20.5538 -20.4948 -20.4816
   -19.5388 -19.5382 -19.5283 -19.5270 -16.7394 -16.6802 -16.6775 -16.6528
   -14.7331 -14.7017 -14.6752 -14.6465 -12.7705 -12.6711 -12.6228 -12.6035
   -11.2522 -11.2287 -11.2003 -11.1383  -9.9462  -9.8144  -9.7893  -9.6989
    -8.7677  -8.5463  -8.5036  -8.4696  -8.4100  -8.2779  -8.0091  -7.8899
    -7.3730  -7.1731  -7.1486  -7.0017  -6.9483  -6.7532  -6.6885  -6.5177
    -6.4680  -6.4295  -6.4231  -6.3837  -6.2934  -6.0331  -5.7598  -5.6650
    -5.5494  -5.5431  -5.4880  -5.4440  -5.3475  -5.2649  -5.1777  -5.1375
    -4.9531  -4.4798  -4.3204  -4.2479  -4.1122  -3.7694  -3.7474  -3.6441
    -3.5996  -3.5617  -3.4221  -3.3900  -3.3554  -3.2218  -3.2025  -3.1039
    -3.0533  -3.0310  -2.8850  -2.7758  -2.7660  -2.7012  -2.5400  -2.4719
    -2.4598  -2.4276  -2.3775  -2.2467  -2.1879  -1.9063  -1.8973  -1.8838
    -1.8560  -1.7406  -0.1893  -0.1813  -0.0711  -0.0290   1.4865   1.4973
     1.5660   1.6164   2.2069   2.8502   3.5448   3.5613   3.6995   3.8191
     3.9194   4.0603   4.1378   4.1899   4.3862   4.4857   4.5627   4.6277
     4.7160   4.8533

     the spin up/dw Fermi energies are    -0.4837   -0.7438 ev

!    total energy              =    -821.23838276 Ry
     Harris-Foulkes estimate   =    -821.23838271 Ry
     estimated scf accuracy    <       0.00000039 Ry

     The total energy is the sum of the following terms:

     one-electron contribution =   -1223.51692458 Ry
     hartree contribution      =     683.38312168 Ry
     xc contribution           =    -259.12755968 Ry
     ewald contribution        =     -23.25602594 Ry
     Dispersion Correction     =      -0.20030300 Ry
     smearing contrib. (-TS)   =       1.47930876 Ry

     total magnetization       =     4.00 Bohr mag/cell
     absolute magnetization    =     4.10 Bohr mag/cell

     convergence has been achieved in  13 iterations

     Forces acting on atoms (cartesian axes, Ry/au):

     atom    1 type  1   force =    -0.13966719    0.18087809   -0.29785937
     atom    2 type  1   force =     0.00746443    0.06208041   -0.05618815
     atom    3 type  1   force =     0.35161668    0.15116249    0.02651792
     atom    4 type  1   force =     0.13057032   -0.21425582   -0.29310027
     atom    5 type  1   force =     0.33240526    0.22681927    0.02877723
     atom    6 type  1   force =    -0.33887048   -0.20657350    0.01982980
     atom    7 type  1   force =     0.11144531   -0.19888444    0.29565763
     atom    8 type  1   force =    -0.13957701    0.20603225    0.28260893
     atom    9 type  1   force =    -0.34517021   -0.17929496    0.03274183
     atom   10 type  1   force =     0.01606502   -0.04775455   -0.05556595
     atom   11 type  1   force =     0.04498738    0.04782721   -0.02731191
     atom   12 type  1   force =    -0.04731286   -0.05038369   -0.03058421
     atom   13 type  1   force =    -0.13966719   -0.18087809   -0.29785937
     atom   14 type  1   force =     0.00746443   -0.06208041   -0.05618815
     atom   15 type  1   force =     0.35161668   -0.15116249    0.02651792
     atom   16 type  1   force =     0.13057032    0.21425582   -0.29310027
     atom   17 type  1   force =     0.33240526   -0.22681927    0.02877723
     atom   18 type  1   force =    -0.33887048    0.20657350    0.01982980
     atom   19 type  1   force =     0.11144531    0.19888444    0.29565763
     atom   20 type  1   force =    -0.13957701   -0.20603225    0.28260893
     atom   21 type  1   force =    -0.34517021    0.17929496    0.03274183
     atom   22 type  1   force =     0.01606502    0.04775455   -0.05556595
     atom   23 type  1   force =     0.04498738   -0.04782721   -0.02731191
     atom   24 type  1   force =    -0.04731286    0.05038369   -0.03058421
     atom   25 type  2   force =     0.05864447   -0.04380652    0.08754502
     atom   26 type  2   force =    -0.10819678   -0.03830819   -0.01370795
     atom   27 type  2   force =    -0.06115034    0.04820349    0.08546190
     atom   28 type  2   force =    -0.10191369   -0.04725887    0.01205601
     atom   29 type  2   force =     0.09823770    0.04743272    0.01607364
     atom   30 type  2   force =    -0.05412612    0.04762408   -0.08142807
     atom   31 type  2   force =     0.05942846   -0.04632192   -0.07801678
     atom   32 type  2   force =     0.10734029    0.04979452   -0.01553591
     atom   33 type  2   force =     0.05864447    0.04380652    0.08754502
     atom   34 type  2   force =    -0.10819678    0.03830819   -0.01370795
     atom   35 type  2   force =    -0.06115034   -0.04820349    0.08546190
     atom   36 type  2   force =    -0.10191369    0.04725887    0.01205601
     atom   37 type  2   force =     0.09823770   -0.04743272    0.01607364
     atom   38 type  2   force =    -0.05412612   -0.04762408   -0.08142807
     atom   39 type  2   force =     0.05942846    0.04632192   -0.07801678
     atom   40 type  2   force =     0.10734029   -0.04979452   -0.01553591
     atom   41 type  3   force =    -0.01071424   -0.02696131    0.03071236
     atom   42 type  3   force =     0.01886762    0.03264448    0.02042893
     atom   43 type  3   force =    -0.01071424    0.02696131    0.03071236
     atom   44 type  3   force =     0.01886762   -0.03264448    0.02042893
     atom   45 type  4   force =     0.00700471   -0.00531917   -0.01822878
     atom   46 type  4   force =     0.00700471    0.00531917   -0.01822878
     atom   47 type  5   force =    -0.03781895    0.00751814    0.03498014
     atom   48 type  5   force =     0.04156906   -0.01212070    0.03437772
     atom   49 type  5   force =     0.06781395    0.01394894   -0.02016094
     atom   50 type  5   force =    -0.06894278   -0.00657010   -0.02008080
     atom   51 type  5   force =    -0.03781895   -0.00751814    0.03498014
     atom   52 type  5   force =     0.04156906    0.01212070    0.03437772
     atom   53 type  5   force =     0.06781395   -0.01394894   -0.02016094
     atom   54 type  5   force =    -0.06894278    0.00657010   -0.02008080

     Total force =     1.635471     Total SCF correction =     0.001151

     number of scf cycles    =   2
     number of bfgs steps    =   1

     energy   old            =    -821.5202252802 Ry
     energy   new            =    -821.2383827603 Ry

     CASE: energy  _new > energy  _old

     new trust radius        =       0.1099768616 bohr
     new conv_thr            =       0.0000010000 Ry


ATOMIC_POSITIONS (crystal)
C             0.5930074746        0.9581555763        0.5167087754
C             0.7937774727        0.9982499301        0.5339160044
C             0.9095172643        0.9538640734        0.6337951629
C             0.4029263780        0.5204795092        0.5474767359
C             0.4731721901        0.6016200158        0.6221489180
C             0.5185076648        0.8823078179        0.5957750084
C             0.8246158867        0.8791051083        0.7103935350
C             0.1690114707        0.6032023082        0.7314496932
C             0.0905755475        0.5213843223        0.6610139833
C             0.2065738735        0.4765965596        0.5646001994
C             0.8761488973        0.0876768427        0.4558914959
C             0.1242722861        0.3878614940        0.4826063876
C             0.0930074746        0.0418444237        0.0167087754
C             0.2937774727        0.0017500699        0.0339160044
C             0.4095172643        0.0461359266        0.1337951629
C             0.9029263780        0.4795204908        0.0474767359
C             0.9731721901        0.3983799842        0.1221489180
C             0.0185076648        0.1176921821        0.0957750084
C             0.3246158867        0.1208948917        0.2103935350
C             0.6690114707        0.3967976918        0.2314496932
C             0.5905755475        0.4786156777        0.1610139833
C             0.7065738735        0.5234034404        0.0646001994
C             0.3761488973        0.9123231573        0.9558914959
C             0.6242722861        0.6121385060        0.9826063876
H             0.4946864323        0.9877472442        0.4400485319
H             0.0687498275        0.9791308404        0.6516423827
H             0.5006133941        0.4893998765        0.4739376750
H             0.6274558877        0.6331748969        0.6072476976
H             0.3635756557        0.8511927498        0.5784089255
H             0.9180302391        0.8464327207        0.7868798862
H             0.0745993752        0.6365683993        0.8047382828
H             0.9361954456        0.4909108326        0.6802770818
H            -0.0053135677        0.0122527558        0.9400485319
H             0.5687498275        0.0208691596        0.1516423827
H             1.0006133941        0.5106001235        0.9739376750
H             0.1274558877        0.3668251031        0.1072476976
H             0.8635756557        0.1488072502        0.0784089255
H             0.4180302391        0.1535672793        0.2868798862
H             0.5745993752        0.3634316007        0.3047382828
H             0.4361954456        0.5090891674        0.1802770818
N             0.6273303279        0.8425772299        0.6964488386
N             0.3609350239        0.6461646716        0.7153542641
N             0.1273303279        0.1574227701        0.1964488386
N             0.8609350239        0.3538353284        0.2153542641
Ni            0.4944641609        0.7535616715        0.8385851065
Ni            0.9944641609        0.2464383285        0.3385851065
O             0.2414868280        0.3490223981        0.3922491207
O             0.7548337098        0.1337358758        0.3696163535
O             0.9349625038        0.3515485147        0.4971630462
O             0.0683747821        0.1205663099        0.4740569076
O             0.7414868280        0.6509776019        0.8922491207
O             0.2548337098        0.8662641242        0.8696163535
O             0.4349625038        0.6484514853        0.9971630462
O             0.5683747821        0.8794336901        0.9740569076



     Writing output data file ./QE_relaxation_results/VDW_relax/NiPyC2_vdw-df2_relax.save/
     NEW-OLD atomic charge density approx. for the potential

     Check: negative core charge=   -0.000145

     total cpu time spent up to now is      721.8 secs

     Self-consistent Calculation

     iteration #  1     ecut=   100.00 Ry     beta= 0.70
     Davidson diagonalization with overlap
     ethr =  1.00E-06,  avg # of iterations = 13.0

     total cpu time spent up to now is      795.3 secs

     total energy              =    -821.82488987 Ry
     Harris-Foulkes estimate   =    -821.86540897 Ry
     estimated scf accuracy    <       0.16801759 Ry

     total magnetization       =     4.00 Bohr mag/cell
     absolute magnetization    =     4.13 Bohr mag/cell

     iteration #  2     ecut=   100.00 Ry     beta= 0.70
     Davidson diagonalization with overlap
     ethr =  8.40E-05,  avg # of iterations =  4.0

     total cpu time spent up to now is      817.4 secs

     total energy              =    -821.83374007 Ry
     Harris-Foulkes estimate   =    -821.84116926 Ry
     estimated scf accuracy    <       0.02839622 Ry

     total magnetization       =     4.00 Bohr mag/cell
     absolute magnetization    =     4.14 Bohr mag/cell

     iteration #  3     ecut=   100.00 Ry     beta= 0.70
     Davidson diagonalization with overlap
     ethr =  1.42E-05,  avg # of iterations =  3.0

     total cpu time spent up to now is      843.1 secs

     total energy              =    -821.83438828 Ry
     Harris-Foulkes estimate   =    -821.84056332 Ry
     estimated scf accuracy    <       0.03673466 Ry

     total magnetization       =     4.00 Bohr mag/cell
     absolute magnetization    =     4.13 Bohr mag/cell

     iteration #  4     ecut=   100.00 Ry     beta= 0.70
     Davidson diagonalization with overlap
     ethr =  1.42E-05,  avg # of iterations =  2.0

     total cpu time spent up to now is      863.5 secs

     total energy              =    -821.83666911 Ry
     Harris-Foulkes estimate   =    -821.83994517 Ry
     estimated scf accuracy    <       0.03089638 Ry

     total magnetization       =     4.00 Bohr mag/cell
     absolute magnetization    =     4.14 Bohr mag/cell

     iteration #  5     ecut=   100.00 Ry     beta= 0.70
     Davidson diagonalization with overlap
     ethr =  1.42E-05,  avg # of iterations =  1.0

     total cpu time spent up to now is      881.7 secs

     total energy              =    -821.83790183 Ry
     Harris-Foulkes estimate   =    -821.83854194 Ry
     estimated scf accuracy    <       0.00730094 Ry

     total magnetization       =     4.00 Bohr mag/cell
     absolute magnetization    =     4.13 Bohr mag/cell

     iteration #  6     ecut=   100.00 Ry     beta= 0.70
     Davidson diagonalization with overlap
     ethr =  3.65E-06,  avg # of iterations =  1.0

     total cpu time spent up to now is      902.0 secs

     total energy              =    -821.83819709 Ry
     Harris-Foulkes estimate   =    -821.83833095 Ry
     estimated scf accuracy    <       0.00110302 Ry

     total magnetization       =     4.00 Bohr mag/cell
     absolute magnetization    =     4.13 Bohr mag/cell

     iteration #  7     ecut=   100.00 Ry     beta= 0.70
     Davidson diagonalization with overlap
     ethr =  5.52E-07,  avg # of iterations =  3.0

     total cpu time spent up to now is      924.0 secs

     total energy              =    -821.83823505 Ry
     Harris-Foulkes estimate   =    -821.83825504 Ry
     estimated scf accuracy    <       0.00009015 Ry

     total magnetization       =     4.00 Bohr mag/cell
     absolute magnetization    =     4.13 Bohr mag/cell

     iteration #  8     ecut=   100.00 Ry     beta= 0.70
     Davidson diagonalization with overlap
     ethr =  4.51E-08,  avg # of iterations =  3.0

     total cpu time spent up to now is      946.5 secs

     total energy              =    -821.83823128 Ry
     Harris-Foulkes estimate   =    -821.83824453 Ry
     estimated scf accuracy    <       0.00004491 Ry

     total magnetization       =     4.00 Bohr mag/cell
     absolute magnetization    =     4.13 Bohr mag/cell

     iteration #  9     ecut=   100.00 Ry     beta= 0.70
     Davidson diagonalization with overlap
     ethr =  2.25E-08,  avg # of iterations =  3.0

     total cpu time spent up to now is      971.1 secs

     total energy              =    -821.83823596 Ry
     Harris-Foulkes estimate   =    -821.83823829 Ry
     estimated scf accuracy    <       0.00001449 Ry

     total magnetization       =     4.00 Bohr mag/cell
     absolute magnetization    =     4.13 Bohr mag/cell

     iteration # 10     ecut=   100.00 Ry     beta= 0.70
     Davidson diagonalization with overlap
     ethr =  7.25E-09,  avg # of iterations =  4.0

     total cpu time spent up to now is      992.7 secs

     total energy              =    -821.83823618 Ry
     Harris-Foulkes estimate   =    -821.83823774 Ry
     estimated scf accuracy    <       0.00000529 Ry

     total magnetization       =     4.00 Bohr mag/cell
     absolute magnetization    =     4.13 Bohr mag/cell

     iteration # 11     ecut=   100.00 Ry     beta= 0.70
     Davidson diagonalization with overlap
     ethr =  2.64E-09,  avg # of iterations =  4.0

     total cpu time spent up to now is     1013.1 secs

     total energy              =    -821.83823506 Ry
     Harris-Foulkes estimate   =    -821.83823694 Ry
     estimated scf accuracy    <       0.00000186 Ry

     total magnetization       =     4.00 Bohr mag/cell
     absolute magnetization    =     4.13 Bohr mag/cell

     iteration # 12     ecut=   100.00 Ry     beta= 0.70
     Davidson diagonalization with overlap
     ethr =  9.30E-10,  avg # of iterations =  4.5
 
     Magnetic moment per site:
     atom:    1    charge:    0.6007    magn:    0.0038    constr:    0.0000
     atom:    2    charge:    0.5992    magn:    0.0034    constr:    0.0000
     atom:    3    charge:    0.6007    magn:    0.0038    constr:    0.0000
     atom:    4    charge:    0.6005    magn:    0.0037    constr:    0.0000
     atom:    5    charge:    0.5937    magn:    0.0031    constr:    0.0000
     atom:    6    charge:    0.5939    magn:    0.0032    constr:    0.0000
     atom:    7    charge:    0.5957    magn:    0.0033    constr:    0.0000
     atom:    8    charge:    0.5943    magn:    0.0033    constr:    0.0000
     atom:    9    charge:    0.5992    magn:    0.0036    constr:    0.0000
     atom:   10    charge:    0.5995    magn:    0.0033    constr:    0.0000
     atom:   11    charge:    0.5624    magn:   -0.0021    constr:    0.0000
     atom:   12    charge:    0.5625    magn:   -0.0019    constr:    0.0000
     atom:   13    charge:    0.6007    magn:    0.0038    constr:    0.0000
     atom:   14    charge:    0.5992    magn:    0.0034    constr:    0.0000
     atom:   15    charge:    0.6007    magn:    0.0038    constr:    0.0000
     atom:   16    charge:    0.6005    magn:    0.0037    constr:    0.0000
     atom:   17    charge:    0.5937    magn:    0.0031    constr:    0.0000
     atom:   18    charge:    0.5939    magn:    0.0032    constr:    0.0000
     atom:   19    charge:    0.5957    magn:    0.0033    constr:    0.0000
     atom:   20    charge:    0.5943    magn:    0.0033    constr:    0.0000
     atom:   21    charge:    0.5992    magn:    0.0036    constr:    0.0000
     atom:   22    charge:    0.5995    magn:    0.0033    constr:    0.0000
     atom:   23    charge:    0.5624    magn:   -0.0021    constr:    0.0000
     atom:   24    charge:    0.5625    magn:   -0.0019    constr:    0.0000
     atom:   25    charge:    0.4317    magn:   -0.0007    constr:    0.0000
     atom:   26    charge:    0.4313    magn:   -0.0007    constr:    0.0000
     atom:   27    charge:    0.4318    magn:   -0.0007    constr:    0.0000
     atom:   28    charge:    0.4357    magn:   -0.0006    constr:    0.0000
     atom:   29    charge:    0.4368    magn:   -0.0006    constr:    0.0000
     atom:   30    charge:    0.4363    magn:   -0.0003    constr:    0.0000
     atom:   31    charge:    0.4349    magn:   -0.0004    constr:    0.0000
     atom:   32    charge:    0.4292    magn:   -0.0007    constr:    0.0000
     atom:   33    charge:    0.4317    magn:   -0.0007    constr:    0.0000
     atom:   34    charge:    0.4313    magn:   -0.0007    constr:    0.0000
     atom:   35    charge:    0.4318    magn:   -0.0007    constr:    0.0000
     atom:   36    charge:    0.4357    magn:   -0.0006    constr:    0.0000
     atom:   37    charge:    0.4368    magn:   -0.0006    constr:    0.0000
     atom:   38    charge:    0.4363    magn:   -0.0003    constr:    0.0000
     atom:   39    charge:    0.4349    magn:   -0.0004    constr:    0.0000
     atom:   40    charge:    0.4292    magn:   -0.0007    constr:    0.0000
     atom:   41    charge:    2.4832    magn:    0.0128    constr:    0.0000
     atom:   42    charge:    2.4796    magn:    0.0122    constr:    0.0000
     atom:   43    charge:    2.4832    magn:    0.0128    constr:    0.0000
     atom:   44    charge:    2.4796    magn:    0.0122    constr:    0.0000
     atom:   45    charge:    7.5359    magn:    1.2897    constr:    0.0000
     atom:   46    charge:    7.5357    magn:    1.2898    constr:    0.0000
     atom:   47    charge:    3.1613    magn:    0.0527    constr:    0.0000
     atom:   48    charge:    3.1597    magn:    0.0541    constr:    0.0000
     atom:   49    charge:    3.1606    magn:    0.0553    constr:    0.0000
     atom:   50    charge:    3.1599    magn:    0.0574    constr:    0.0000
     atom:   51    charge:    3.1612    magn:    0.0527    constr:    0.0000
     atom:   52    charge:    3.1597    magn:    0.0541    constr:    0.0000
     atom:   53    charge:    3.1606    magn:    0.0553    constr:    0.0000
     atom:   54    charge:    3.1599    magn:    0.0574    constr:    0.0000

     total cpu time spent up to now is     1039.0 secs

     End of self-consistent calculation

 ------ SPIN UP ------------


          k = 0.0000 0.0000 0.0000 ( 45819 PWs)   bands (ev):

   -22.5443 -22.5405 -22.4479 -22.4451 -19.9785 -19.9642 -19.9146 -19.9125
   -19.9047 -19.9045 -19.8868 -19.8779 -16.2000 -16.1398 -16.1350 -16.1123
   -14.8067 -14.7716 -14.7711 -14.7329 -12.2892 -12.2057 -12.1925 -12.1678
   -11.5029 -11.4792 -11.4514 -11.3946 -10.0302  -9.8214  -9.7964  -9.7263
    -8.6693  -8.2609  -8.2511  -8.1960  -8.1245  -8.0810  -8.0482  -8.0010
    -7.1931  -7.1792  -7.0994  -6.9567  -6.9284  -6.9085  -6.7369  -6.7046
    -6.6873  -6.6611  -6.6584  -6.6259  -6.5559  -6.4629  -6.4233  -6.2444
    -6.2072  -6.1976  -6.1248  -6.0008  -5.9243  -5.9167  -5.6396  -5.4412
    -4.9541  -4.9171  -4.6087  -4.5621  -4.3186  -4.2813  -4.2488  -4.1883
    -4.1256  -4.0108  -3.9265  -3.7646  -3.6535  -3.6265  -3.6257  -3.6084
    -3.4615  -3.1582  -2.9939  -2.9319  -2.8954  -2.8810  -2.8515  -2.8211
    -2.7171  -2.7054  -2.6558  -2.6468  -2.5611  -2.5055  -2.5007  -2.3414
    -2.3179  -2.2048  -1.0102  -0.9832  -0.7901  -0.7893   1.6437   1.6720
     1.7058   1.7635   2.2571   2.9122   3.0763   3.2536   3.3552   3.5750
     3.6740   4.0131   4.1858   4.3343   4.3976   4.5988   4.6035   4.7063
     4.9070   5.1144

 ------ SPIN DOWN ----------


          k = 0.0000 0.0000 0.0000 ( 45819 PWs)   bands (ev):

   -22.4469 -22.4429 -22.3506 -22.3476 -19.9477 -19.9321 -19.8583 -19.8501
   -19.7874 -19.7865 -19.7726 -19.7712 -16.1647 -16.1047 -16.0998 -16.0761
   -14.7709 -14.7356 -14.7348 -14.6965 -12.2511 -12.1700 -12.1543 -12.1325
   -11.4781 -11.4545 -11.4275 -11.3710 -10.0087  -9.8007  -9.7766  -9.7041
    -8.6212  -8.2227  -8.2095  -8.1631  -8.0960  -8.0306  -8.0235  -7.9417
    -7.1284  -7.0728  -6.9793  -6.8971  -6.8637  -6.8220  -6.6684  -6.6675
    -6.6237  -6.6114  -6.5692  -6.5384  -6.4288  -6.3946  -6.3144  -6.1978
    -6.1623  -6.1174  -6.1142  -5.9558  -5.8921  -5.8685  -5.5570  -5.3532
    -4.8256  -4.3588  -4.3265  -4.2779  -4.2755  -4.2481  -4.0423  -4.0079
    -3.8463  -3.5060  -3.4582  -3.4424  -3.1366  -3.1099  -3.1015  -3.0536
    -2.9697  -2.7956  -2.7691  -2.7284  -2.7187  -2.6715  -2.5172  -2.4621
    -2.4043  -2.2897  -2.2368  -2.0982  -2.0237  -1.7742  -1.7715  -1.7412
    -1.7192  -1.6045  -0.0723  -0.0720   0.0831   0.1154   1.7272   1.7795
     1.8236   1.8579   2.2263   2.8970   3.1627   3.3328   3.4374   3.6648
     3.6710   4.0060   4.2356   4.3829   4.4543   4.5992   4.6430   4.7287
     4.9235   5.1426

     the spin up/dw Fermi energies are    -0.3344   -0.6072 ev

!    total energy              =    -821.83823031 Ry
     Harris-Foulkes estimate   =    -821.83823568 Ry
     estimated scf accuracy    <       0.00000075 Ry

     The total energy is the sum of the following terms:

     one-electron contribution =   -1219.11336653 Ry
     hartree contribution      =     681.64966748 Ry
     xc contribution           =    -259.74527843 Ry
     ewald contribution        =     -25.79024183 Ry
     Dispersion Correction     =      -0.20130224 Ry
     smearing contrib. (-TS)   =       1.36229124 Ry

     total magnetization       =     4.00 Bohr mag/cell
     absolute magnetization    =     4.13 Bohr mag/cell

     convergence has been achieved in  12 iterations

     Forces acting on atoms (cartesian axes, Ry/au):

     atom    1 type  1   force =    -0.01506518    0.06488458   -0.08976962
     atom    2 type  1   force =     0.01041589    0.02704590   -0.01121346
     atom    3 type  1   force =     0.09404062    0.06625638   -0.02440009
     atom    4 type  1   force =     0.02011868   -0.06902991   -0.08311611
     atom    5 type  1   force =     0.08864116    0.06685505    0.01001802
     atom    6 type  1   force =    -0.09414913   -0.06627905    0.01536402
     atom    7 type  1   force =     0.02257819   -0.06680141    0.08945050
     atom    8 type  1   force =    -0.02200889    0.07525472    0.08634588
     atom    9 type  1   force =    -0.08640640   -0.07410243   -0.01928542
     atom   10 type  1   force =    -0.01421750   -0.02644193   -0.01732333
     atom   11 type  1   force =    -0.00565068   -0.03073721    0.01385421
     atom   12 type  1   force =     0.00909514    0.03122656    0.01834353
     atom   13 type  1   force =    -0.01506518   -0.06488458   -0.08976962
     atom   14 type  1   force =     0.01041589   -0.02704590   -0.01121346
     atom   15 type  1   force =     0.09404062   -0.06625638   -0.02440009
     atom   16 type  1   force =     0.02011868    0.06902991   -0.08311611
     atom   17 type  1   force =     0.08864116   -0.06685505    0.01001802
     atom   18 type  1   force =    -0.09414913    0.06627905    0.01536402
     atom   19 type  1   force =     0.02257819    0.06680141    0.08945050
     atom   20 type  1   force =    -0.02200889   -0.07525472    0.08634588
     atom   21 type  1   force =    -0.08640640    0.07410243   -0.01928542
     atom   22 type  1   force =    -0.01421750    0.02644193   -0.01732333
     atom   23 type  1   force =    -0.00565068    0.03073721    0.01385421
     atom   24 type  1   force =     0.00909514   -0.03122656    0.01834353
     atom   25 type  2   force =    -0.02367949    0.00477535   -0.01607449
     atom   26 type  2   force =     0.02329281    0.00258047    0.01453445
     atom   27 type  2   force =     0.02413524   -0.00287966   -0.01332093
     atom   28 type  2   force =     0.02612025    0.01241522   -0.00215384
     atom   29 type  2   force =    -0.03060500   -0.01053888   -0.00027675
     atom   30 type  2   force =     0.01418930   -0.01198423    0.02609061
     atom   31 type  2   force =    -0.01370988    0.01448004    0.02292699
     atom   32 type  2   force =    -0.02013594    0.00054044    0.01268664
     atom   33 type  2   force =    -0.02367949   -0.00477535   -0.01607449
     atom   34 type  2   force =     0.02329281   -0.00258047    0.01453445
     atom   35 type  2   force =     0.02413524    0.00287966   -0.01332093
     atom   36 type  2   force =     0.02612025   -0.01241522   -0.00215384
     atom   37 type  2   force =    -0.03060500    0.01053888   -0.00027675
     atom   38 type  2   force =     0.01418930    0.01198423    0.02609061
     atom   39 type  2   force =    -0.01370988   -0.01448004    0.02292699
     atom   40 type  2   force =    -0.02013594   -0.00054044    0.01268664
     atom   41 type  3   force =    -0.01195495   -0.01687390    0.01565787
     atom   42 type  3   force =     0.00176732    0.00984215    0.01178731
     atom   43 type  3   force =    -0.01195495    0.01687390    0.01565787
     atom   44 type  3   force =     0.00176732   -0.00984215    0.01178731
     atom   45 type  4   force =    -0.00075783   -0.01596824   -0.03319394
     atom   46 type  4   force =    -0.00075783    0.01596824   -0.03319394
     atom   47 type  5   force =    -0.01558641   -0.01612481    0.00035761
     atom   48 type  5   force =     0.01968284    0.01547673    0.00165037
     atom   49 type  5   force =     0.00707550   -0.01265730   -0.01476682
     atom   50 type  5   force =    -0.00722564    0.02032517   -0.01417318
     atom   51 type  5   force =    -0.01558641    0.01612481    0.00035761
     atom   52 type  5   force =     0.01968284   -0.01547673    0.00165037
     atom   53 type  5   force =     0.00707550    0.01265730   -0.01476682
     atom   54 type  5   force =    -0.00722564   -0.02032517   -0.01417318

     Total force =     0.490368     Total SCF correction =     0.001534

     number of scf cycles    =   3
     number of bfgs steps    =   1

     energy   old            =    -821.5202252802 Ry
     energy   new            =    -821.8382303106 Ry

     CASE: energy  _new < energy  _old

     new trust radius        =       0.0824837159 bohr
     new conv_thr            =       0.0000009415 Ry


ATOMIC_POSITIONS (crystal)
C             0.5935503186        0.9602224590        0.5137115108
C             0.7947578756        0.9993689247        0.5334717283
C             0.9139669110        0.9561278931        0.6320936228
C             0.4026305699        0.5183379397        0.5448125412
C             0.4774290926        0.6036077222        0.6227731584
C             0.5138308011        0.8802810852        0.5967630118
C             0.8251144965        0.8770575133        0.7133767968
C             0.1690756540        0.6056100261        0.7343440744
C             0.0867737422        0.5189449433        0.6595566434
C             0.2049899909        0.4754462115        0.5637957423
C             0.8750855391        0.0859308757        0.4568506353
C             0.1258020841        0.3896396830        0.4838501235
C             0.0935503186        0.0397775410        0.0137115108
C             0.2947578756        0.0006310753        0.0334717283
C             0.4139669110        0.0438721069        0.1320936228
C             0.9026305699        0.4816620603        0.0448125412
C             0.9774290926        0.3963922778        0.1227731584
C             0.0138308011        0.1197189148        0.0967630118
C             0.3251144965        0.1229424867        0.2133767968
C             0.6690756540        0.3943899739        0.2343440744
C             0.5867737422        0.4810550567        0.1595566434
C             0.7049899909        0.5245537885        0.0637957423
C             0.3750855391        0.9140691243        0.9568506353
C             0.6258020841        0.6103603170        0.9838501235
H             0.4908996229        0.9884771483        0.4378671726
H             0.0735798187        0.9797004776        0.6527219653
H             0.5043852294        0.4887234735        0.4719511812
H             0.6324047493        0.6343119278        0.6069166559
H             0.3582207914        0.8501511670        0.5781513281
H             0.9208323585        0.8453148089        0.7896073070
H             0.0719271889        0.6378172160        0.8072332155
H             0.9317038218        0.4903686195        0.6812831371
H            -0.0091003771        0.0115228517        0.9378671726
H             0.5735798187        0.0202995224        0.1527219653
H             1.0043852294        0.5112765265        0.9719511812
H             0.1324047493        0.3656880722        0.1069166559
H             0.8582207914        0.1498488330        0.0781513281
H             0.4208323585        0.1546851911        0.2896073070
H             0.5719271889        0.3621827840        0.3072332155
H             0.4317038218        0.5096313805        0.1812831371
N             0.6262427535        0.8418200048        0.6972641458
N             0.3610313890        0.6465625731        0.7159917365
N             0.1262427535        0.1581799952        0.1972641458
N             0.8610313890        0.3534374269        0.2159917365
Ni            0.4942312805        0.7528121940        0.8367442983
Ni            0.9942312805        0.2471878060        0.3367442983
O             0.2403641850        0.3481963822        0.3920352194
O             0.7563150377        0.1345578367        0.3694863008
O             0.9347913142        0.3508249079        0.4964287451
O             0.0684633836        0.1216121128        0.4733480023
[...]

     total cpu time spent up to now is     7199.0 secs

     total energy              =    -821.99079069 Ry
     Harris-Foulkes estimate   =    -821.99079078 Ry
     estimated scf accuracy    <       0.00000025 Ry

     total magnetization       =     4.00 Bohr mag/cell
     absolute magnetization    =     4.16 Bohr mag/cell

     iteration #  7     ecut=   100.00 Ry     beta= 0.70
     Davidson diagonalization with overlap
     ethr =  1.25E-10,  avg # of iterations =  4.5

     total cpu time spent up to now is     7225.2 secs

     total energy              =    -821.99079062 Ry
     Harris-Foulkes estimate   =    -821.99079074 Ry
     estimated scf accuracy    <       0.00000005 Ry

     total magnetization       =     4.00 Bohr mag/cell
     absolute magnetization    =     4.16 Bohr mag/cell

     iteration #  8     ecut=   100.00 Ry     beta= 0.70
     Davidson diagonalization with overlap
     ethr =  2.75E-11,  avg # of iterations =  4.5

     total cpu time spent up to now is     7251.1 secs

     total energy              =    -821.99079040 Ry
     Harris-Foulkes estimate   =    -821.99079064 Ry
     estimated scf accuracy    <       0.00000003 Ry

     total magnetization       =     4.00 Bohr mag/cell
     absolute magnetization    =     4.16 Bohr mag/cell

     iteration #  9     ecut=   100.00 Ry     beta= 0.70
     Davidson diagonalization with overlap
     ethr =  1.32E-11,  avg # of iterations =  4.5

     total cpu time spent up to now is     7279.5 secs

     total energy              =    -821.99079029 Ry
     Harris-Foulkes estimate   =    -821.99079042 Ry
     estimated scf accuracy    <       0.00000001 Ry

     total magnetization       =     4.00 Bohr mag/cell
     absolute magnetization    =     4.16 Bohr mag/cell

     iteration # 10     ecut=   100.00 Ry     beta= 0.70
     Davidson diagonalization with overlap
     ethr =  5.72E-12,  avg # of iterations =  5.0
 
     Magnetic moment per site:
     atom:    1    charge:    0.5826    magn:    0.0043    constr:    0.0000
     atom:    2    charge:    0.5827    magn:    0.0034    constr:    0.0000
     atom:    3    charge:    0.5824    magn:    0.0042    constr:    0.0000
     atom:    4    charge:    0.5834    magn:    0.0041    constr:    0.0000
     atom:    5    charge:    0.5720    magn:    0.0035    constr:    0.0000
     atom:    6    charge:    0.5755    magn:    0.0036    constr:    0.0000
     atom:    7    charge:    0.5769    magn:    0.0036    constr:    0.0000
     atom:    8    charge:    0.5774    magn:    0.0035    constr:    0.0000
     atom:    9    charge:    0.5823    magn:    0.0041    constr:    0.0000
     atom:   10    charge:    0.5841    magn:    0.0033    constr:    0.0000
     atom:   11    charge:    0.5603    magn:   -0.0021    constr:    0.0000
     atom:   12    charge:    0.5602    magn:   -0.0020    constr:    0.0000
     atom:   13    charge:    0.5826    magn:    0.0043    constr:    0.0000
     atom:   14    charge:    0.5827    magn:    0.0034    constr:    0.0000
     atom:   15    charge:    0.5824    magn:    0.0042    constr:    0.0000
     atom:   16    charge:    0.5834    magn:    0.0041    constr:    0.0000
     atom:   17    charge:    0.5720    magn:    0.0035    constr:    0.0000
     atom:   18    charge:    0.5755    magn:    0.0036    constr:    0.0000
     atom:   19    charge:    0.5769    magn:    0.0036    constr:    0.0000
     atom:   20    charge:    0.5774    magn:    0.0035    constr:    0.0000
     atom:   21    charge:    0.5823    magn:    0.0041    constr:    0.0000
     atom:   22    charge:    0.5841    magn:    0.0033    constr:    0.0000
     atom:   23    charge:    0.5603    magn:   -0.0021    constr:    0.0000
     atom:   24    charge:    0.5602    magn:   -0.0020    constr:    0.0000
     atom:   25    charge:    0.4537    magn:   -0.0010    constr:    0.0000
     atom:   26    charge:    0.4471    magn:   -0.0010    constr:    0.0000
     atom:   27    charge:    0.4620    magn:   -0.0009    constr:    0.0000
     atom:   28    charge:    0.4632    magn:   -0.0008    constr:    0.0000
     atom:   29    charge:    0.4639    magn:   -0.0008    constr:    0.0000
     atom:   30    charge:    0.4549    magn:   -0.0006    constr:    0.0000
     atom:   31    charge:    0.4376    magn:   -0.0006    constr:    0.0000
     atom:   32    charge:    0.4411    magn:   -0.0010    constr:    0.0000
     atom:   33    charge:    0.4537    magn:   -0.0010    constr:    0.0000
     atom:   34    charge:    0.4471    magn:   -0.0010    constr:    0.0000
     atom:   35    charge:    0.4620    magn:   -0.0009    constr:    0.0000
     atom:   36    charge:    0.4632    magn:   -0.0008    constr:    0.0000
     atom:   37    charge:    0.4639    magn:   -0.0008    constr:    0.0000
     atom:   38    charge:    0.4549    magn:   -0.0006    constr:    0.0000
     atom:   39    charge:    0.4376    magn:   -0.0006    constr:    0.0000
     atom:   40    charge:    0.4411    magn:   -0.0010    constr:    0.0000
     atom:   41    charge:    2.4474    magn:    0.0135    constr:    0.0000
     atom:   42    charge:    2.4408    magn:    0.0127    constr:    0.0000
     atom:   43    charge:    2.4474    magn:    0.0135    constr:    0.0000
     atom:   44    charge:    2.4408    magn:    0.0127    constr:    0.0000
     atom:   45    charge:    7.5341    magn:    1.2431    constr:    0.0000
     atom:   46    charge:    7.5341    magn:    1.2431    constr:    0.0000
     atom:   47    charge:    3.1327    magn:    0.0550    constr:    0.0000
     atom:   48    charge:    3.1360    magn:    0.0569    constr:    0.0000
     atom:   49    charge:    3.1583    magn:    0.0596    constr:    0.0000
     atom:   50    charge:    3.1543    magn:    0.0614    constr:    0.0000
     atom:   51    charge:    3.1327    magn:    0.0550    constr:    0.0000
     atom:   52    charge:    3.1360    magn:    0.0569    constr:    0.0000
     atom:   53    charge:    3.1583    magn:    0.0596    constr:    0.0000
     atom:   54    charge:    3.1543    magn:    0.0614    constr:    0.0000

     total cpu time spent up to now is     7307.7 secs

     End of self-consistent calculation

 ------ SPIN UP ------------


          k = 0.0000 0.0000 0.0000 ( 45819 PWs)   bands (ev):

   -22.4697 -22.4668 -22.3690 -22.3668 -19.6666 -19.6665 -19.6466 -19.6454
   -19.4285 -19.4130 -19.3163 -19.3092 -15.8017 -15.7317 -15.7290 -15.6956
   -14.6013 -14.5554 -14.5420 -14.4970 -12.0697 -12.0001 -11.9643 -11.9338
   -11.4406 -11.4154 -11.3785 -11.3215  -9.8030  -9.5562  -9.5455  -9.4498
    -8.4891  -8.0518  -8.0349  -7.9903  -7.8245  -7.8196  -7.7375  -7.7346
    -7.1678  -7.0191  -7.0109  -6.9136  -6.8859  -6.8650  -6.8275  -6.7457
    -6.6866  -6.6661  -6.5327  -6.5069  -6.4869  -6.3272  -6.3213  -6.1984
    -6.1284  -6.1082  -6.0539  -5.9920  -5.7820  -5.5915  -5.4045  -5.1636
    -4.7904  -4.7591  -4.7372  -4.6877  -4.6652  -4.6176  -4.3129  -4.3058
    -3.9901  -3.9418  -3.8046  -3.7329  -3.6068  -3.4759  -3.4716  -3.4558
    -3.2719  -3.0137  -2.8892  -2.8157  -2.7547  -2.7216  -2.7007  -2.6955
    -2.5450  -2.5388  -2.4741  -2.4459  -2.4085  -2.3364  -2.2916  -2.2113
    -2.1715  -2.0551  -0.7794  -0.7766  -0.5964  -0.5735   1.5773   1.6399
     1.6525   1.7072   2.3420   2.6737   2.7738   2.9658   3.0980   3.1708
     3.7562   4.0168   4.0817   4.3127   4.3157   4.5787   4.6544   4.7401
     4.9943   5.2342

 ------ SPIN DOWN ----------


          k = 0.0000 0.0000 0.0000 ( 45819 PWs)   bands (ev):

   -22.3652 -22.3622 -22.2649 -22.2626 -19.5300 -19.5299 -19.5054 -19.5040
   -19.3962 -19.3802 -19.2850 -19.2776 -15.7646 -15.6945 -15.6919 -15.6573
   -14.5638 -14.5176 -14.5037 -14.4584 -12.0307 -11.9630 -11.9254 -11.8974
   -11.4142 -11.3890 -11.3527 -11.2961  -9.7812  -9.5354  -9.5270  -9.4292
    -8.4364  -7.9973  -7.9916  -7.9381  -7.7886  -7.7875  -7.7078  -7.6830
    -7.1236  -6.9845  -6.9814  -6.8581  -6.8344  -6.7721  -6.7376  -6.6283
    -6.6090  -6.5605  -6.4345  -6.4075  -6.3755  -6.2536  -6.2087  -6.1551
    -6.1054  -6.0480  -5.9936  -5.9637  -5.7007  -5.4995  -5.3143  -5.0727
    -4.7157  -4.6887  -4.6752  -4.6174  -4.5810  -4.1347  -3.8978  -3.8503
    -3.8043  -3.4455  -3.3995  -3.2863  -3.1320  -3.0788  -2.9111  -2.8905
    -2.8208  -2.6241  -2.6080  -2.5891  -2.5639  -2.5046  -2.3126  -2.2816
    -2.2273  -2.1591  -2.0924  -1.9493  -1.9236  -1.6696  -1.6607  -1.6072
    -1.5434  -1.4219   0.1048   0.1241   0.2453   0.2933   1.6721   1.7593
     1.7823   1.8117   2.3109   2.7741   2.8515   3.0692   3.1007   3.2833
     3.7427   4.0232   4.1415   4.3788   4.3854   4.6267   4.6466   4.7481
     5.0064   5.2555

     the spin up/dw Fermi energies are    -0.1797   -0.4687 ev

!    total energy              =    -821.99078986 Ry
     Harris-Foulkes estimate   =    -821.99079031 Ry
     estimated scf accuracy    <          3.5E-09 Ry

     The total energy is the sum of the following terms:

     one-electron contribution =   -1196.18184598 Ry
     hartree contribution      =     670.44245215 Ry
     xc contribution           =    -258.39114627 Ry
     ewald contribution        =     -38.94552257 Ry
     Dispersion Correction     =      -0.20817504 Ry
     smearing contrib. (-TS)   =       1.29344784 Ry

     total magnetization       =     4.00 Bohr mag/cell
     absolute magnetization    =     4.16 Bohr mag/cell

     convergence has been achieved in  10 iterations

     Forces acting on atoms (cartesian axes, Ry/au):

     atom    1 type  1   force =     0.00016567    0.00009076   -0.00006411
     atom    2 type  1   force =    -0.00002685   -0.00037740    0.00033302
     atom    3 type  1   force =     0.00064023   -0.00011116    0.00023505
     atom    4 type  1   force =     0.00050344   -0.00013597   -0.00044966
     atom    5 type  1   force =     0.00075409    0.00017130    0.00011393
     atom    6 type  1   force =    -0.00009733    0.00042762   -0.00006629
     atom    7 type  1   force =     0.00000461    0.00025159    0.00012854
     atom    8 type  1   force =    -0.00028726    0.00013252    0.00013310
     atom    9 type  1   force =    -0.00043954    0.00045335   -0.00001530
     atom   10 type  1   force =    -0.00013530    0.00069070   -0.00027132
     atom   11 type  1   force =    -0.00019316    0.00021159    0.00030440
     atom   12 type  1   force =    -0.00016408    0.00095467    0.00044679
     atom   13 type  1   force =     0.00016567   -0.00009076   -0.00006411
     atom   14 type  1   force =    -0.00002685    0.00037740    0.00033302
     atom   15 type  1   force =     0.00064023    0.00011116    0.00023505
     atom   16 type  1   force =     0.00050344    0.00013597   -0.00044966
     atom   17 type  1   force =     0.00075409   -0.00017130    0.00011393
     atom   18 type  1   force =    -0.00009733   -0.00042762   -0.00006629
     atom   19 type  1   force =     0.00000461   -0.00025159    0.00012854
     atom   20 type  1   force =    -0.00028726   -0.00013252    0.00013310
     atom   21 type  1   force =    -0.00043954   -0.00045335   -0.00001530
     atom   22 type  1   force =    -0.00013530   -0.00069070   -0.00027132
     atom   23 type  1   force =    -0.00019316   -0.00021159    0.00030440
     atom   24 type  1   force =    -0.00016408   -0.00095467    0.00044679
     atom   25 type  2   force =     0.00032837    0.00043775   -0.00006418
     atom   26 type  2   force =    -0.00007816    0.00074927   -0.00053893
     atom   27 type  2   force =    -0.00001379    0.00041171   -0.00024139
     atom   28 type  2   force =    -0.00019049    0.00024282   -0.00011886
     atom   29 type  2   force =     0.00026235    0.00033090    0.00007090
     atom   30 type  2   force =     0.00042304    0.00080536    0.00009017
     atom   31 type  2   force =    -0.00045615    0.00011174   -0.00007682
     atom   32 type  2   force =     0.00024578   -0.00008326   -0.00069765
     atom   33 type  2   force =     0.00032837   -0.00043775   -0.00006418
     atom   34 type  2   force =    -0.00007816   -0.00074927   -0.00053893
     atom   35 type  2   force =    -0.00001379   -0.00041171   -0.00024139
     atom   36 type  2   force =    -0.00019049   -0.00024282   -0.00011886
     atom   37 type  2   force =     0.00026235   -0.00033090    0.00007090
     atom   38 type  2   force =     0.00042304   -0.00080536    0.00009017
     atom   39 type  2   force =    -0.00045615   -0.00011174   -0.00007682
     atom   40 type  2   force =     0.00024578    0.00008326   -0.00069765
     atom   41 type  3   force =     0.00025799   -0.00040997   -0.00032897
     atom   42 type  3   force =    -0.00046016    0.00032269   -0.00033287
     atom   43 type  3   force =     0.00025799    0.00040997   -0.00032897
     atom   44 type  3   force =    -0.00046016   -0.00032269   -0.00033287
     atom   45 type  4   force =     0.00062443    0.00006155   -0.00039071
     atom   46 type  4   force =     0.00062443   -0.00006155   -0.00039071
     atom   47 type  5   force =    -0.00010733    0.00041779    0.00030833
     atom   48 type  5   force =    -0.00053082   -0.00087051    0.00038406
     atom   49 type  5   force =    -0.00097783   -0.00017577    0.00036499
     atom   50 type  5   force =    -0.00005176    0.00012418    0.00074380
     atom   51 type  5   force =    -0.00010733   -0.00041779    0.00030833
     atom   52 type  5   force =    -0.00053082    0.00087051    0.00038406
     atom   53 type  5   force =    -0.00097783    0.00017577    0.00036499
     atom   54 type  5   force =    -0.00005176   -0.00012418    0.00074380

     Total force =     0.004961     Total SCF correction =     0.000124

     bfgs converged in  25 scf cycles and  23 bfgs steps
     (criteria: energy <  1.0E-04 Ry, force <  1.0E-03 Ry/Bohr)

     End of BFGS Geometry Optimization

     Final energy   =    -821.9907898643 Ry
Begin final coordinates

ATOMIC_POSITIONS (crystal)
C             0.5874708925        0.9590244943        0.5114951942
C             0.7951237806        0.9978856686        0.5358428057
C             0.9189814879        0.9546061730        0.6384361658
C             0.4081907449        0.5189930396        0.5400960347
C             0.4844079579        0.6043389924        0.6154993467
C             0.5073420716        0.8792541092        0.5927519449
C             0.8286002471        0.8748829392        0.7157577562
C             0.1678301372        0.6082097458        0.7348149690
C             0.0817520033        0.5224793092        0.6631576552
C             0.2040818589        0.4780954759        0.5639180042
C             0.8791796459        0.0863872011        0.4576689601
C             0.1201231837        0.3900111882        0.4833111038
C             0.0874708925        0.0409755057        0.0114951942
C             0.2951237806        0.0021143314        0.0358428057
C             0.4189814879        0.0453938270        0.1384361658
C             0.9081907449        0.4810069604        0.0400960347
C             0.9844079579        0.3956610076        0.1154993467
C             0.0073420716        0.1207458908        0.0927519449
C             0.3286002471        0.1251170608        0.2157577562
C             0.6678301372        0.3917902542        0.2348149690
C             0.5817520033        0.4775206908        0.1631576552
C             0.7040818589        0.5219045241        0.0639180042
C             0.3791796459        0.9136127989        0.9576689601
C             0.6201231837        0.6099888118        0.9833111038
H             0.4869207776        0.9905556209        0.4347197948
H             0.0786729772        0.9811978633        0.6610683299
H             0.5083920594        0.4853848346        0.4672958821
H             0.6401033405        0.6383558760        0.6016614841
H             0.3484670009        0.8474951527        0.5795028521
H             0.9153694710        0.8394608280        0.7958943378
H             0.0810521556        0.6459117132        0.8111625052
H             0.9256521067        0.4931166132        0.6860356777
H            -0.0130792224        0.0094443791        0.9347197948
H             0.5786729772        0.0188021367        0.1610683299
H             1.0083920594        0.5146151654        0.9672958821
H             0.1401033405        0.3616441240        0.1016614841
H             0.8484670009        0.1525048473        0.0795028521
H             0.4153694710        0.1605391720        0.2958943378
H             0.5810521556        0.3540882868        0.3111625052
H             0.4256521067        0.5068833868        0.1860356777
N             0.6257564092        0.8407998114        0.6942167948
N             0.3651511127        0.6468503874        0.7110572350
N             0.1257564092        0.1592001886        0.1942167948
N             0.8651511127        0.3531496126        0.2110572350
Ni            0.4932376606        0.7529094918        0.8355064513
Ni            0.9932376606        0.2470905082        0.3355064513
O             0.2336424680        0.3473104208        0.3925884649
O             0.7618074509        0.1349657935        0.3702658164
O             0.9317190744        0.3517574129        0.4953624495
O             0.0693719239        0.1228466960        0.4733419838
O             0.7336424680        0.6526895792        0.8925884649
O             0.2618074509        0.8650342065        0.8702658164
O             0.4317190744        0.6482425871        0.9953624495
O             0.5693719239        0.8771533040        0.9733419838
End final coordinates



     Writing output data file ./QE_relaxation_results/VDW_relax/NiPyC2_vdw-df2_relax.save/
 
     init_run     :     19.00s CPU     20.16s WALL (       1 calls)
     electrons    :   4775.20s CPU   6751.66s WALL (      25 calls)
     update_pot   :    215.45s CPU    258.21s WALL (      24 calls)
     forces       :    222.45s CPU    282.05s WALL (      25 calls)

     Called by init_run:
     wfcinit      :      4.49s CPU      4.89s WALL (       1 calls)
     potinit      :     11.35s CPU     12.02s WALL (       1 calls)
     hinit0       :      2.51s CPU      2.58s WALL (       1 calls)

     Called by electrons:
     c_bands      :   3517.76s CPU   4850.97s WALL (     275 calls)
     sum_band     :    232.78s CPU    375.71s WALL (     275 calls)
     v_of_rho     :    942.68s CPU   1368.25s WALL (     293 calls)
     mix_rho      :    155.84s CPU    247.07s WALL (     275 calls)
     vdW_kernel   :      6.63s CPU      6.76s WALL (       1 calls)

     Called by c_bands:
     init_us_2    :      5.71s CPU      6.17s WALL (     551 calls)
     regterg      :   3465.08s CPU   4564.56s WALL (     275 calls)

     Called by sum_band:

     Called by *egterg:
     h_psi        :   1514.04s CPU   2071.55s WALL (    1148 calls)
     g_psi        :      1.59s CPU      1.62s WALL (     872 calls)
     rdiaghg      :    105.82s CPU    108.24s WALL (    1116 calls)

     Called by h_psi:
     h_psi:calbec :    323.10s CPU    396.84s WALL (    1148 calls)
     vloc_psi     :    871.98s CPU   1354.75s WALL (    1148 calls)
     add_vuspsi   :    314.07s CPU    315.01s WALL (    1148 calls)

     General routines
     calbec       :    371.31s CPU    456.97s WALL (    1248 calls)
     fft          :    584.67s CPU   1045.69s WALL (   25035 calls)
     ffts         :    108.71s CPU    176.84s WALL (    4685 calls)
     fftw         :    900.57s CPU   1500.45s WALL (   99379 calls)
 
     Parallel routines
     fft_scatt_xy :    230.21s CPU    233.97s WALL (  129099 calls)
     fft_scatt_yz :    532.86s CPU   1643.28s WALL (  129099 calls)
 
     PWSCF        :      1h27m CPU      2h 2m WALL

 
   This run was terminated on:  21:54: 2   8Jun2020            

=------------------------------------------------------------------------------=
   JOB DONE.
=------------------------------------------------------------------------------=
QE finished Mon Jun 8 21:54:02 PDT 2020
