Created on Wed Aug 12 11:12:24 2020 

         140 atoms
         160 bonds
         300 angles
         296 dihedrals
         168 impropers

           7 atom types
          10 bond types
          17 angle types
           5 dihedral types
           1 improper types
           0.000000  12.505600 xlo xhi
           0.000000  12.523400 ylo yhi
           0.000000  10.274279 zlo zhi
           0.000000  -0.227594   0.000000 xy xz yz

Masses

    1    58.693400000 # Ni4+2
    2    15.999400000 # O_R
    3    14.006700000 # N_R
    4    12.010700000 # C_R
    5     1.007940000 # H_
    6    32.065000000 # S_3+6
    7    12.010700000 # C_3

Bond Coeffs

    1      321.720028        1.793457  # Ni4+2 O_R
    2      328.673665        1.841585  # Ni4+2 N_R
    3      646.680887        1.311940  # O_R C_R
    4      663.718927        1.345073  # N_R C_R
    5      462.655054        1.379256  # C_R C_R
    6      320.755144        1.749010  # C_R S_3+6
    7      357.440381        1.081418  # C_R H_
    8      391.669513        1.458000  # C_R C_R
    9      305.918964        1.776839  # S_3+6 C_3
   10      331.069389        1.109401  # C_3 H_

Angle Coeffs

    1              cosine/periodic      322.980216               1               4 # O_R Ni4+2 O_R
    2              cosine/periodic      343.030950               1               4 # O_R Ni4+2 N_R
    3              cosine/periodic      364.965660               1               4 # N_R Ni4+2 N_R
    4              cosine/periodic      238.346347              -1               3 # C_R O_R Ni4+2
    5              cosine/periodic      177.809033              -1               3 # Ni4+2 N_R C_R
    6              cosine/periodic      240.001032              -1               3 # C_R N_R C_R
    7              cosine/periodic      222.595017              -1               3 # C_R C_R C_R
    8              cosine/periodic      211.886013              -1               3 # C_R C_R S_3+6
    9              cosine/periodic      114.578032              -1               3 # C_R C_R H_
   10              cosine/periodic      204.366560              -1               3 # C_R C_R C_R
   11              cosine/periodic      307.398705              -1               3 # N_R C_R C_R
   12              cosine/periodic      159.573934              -1               3 # N_R C_R H_
   13              cosine/periodic      263.511421              -1               3 # O_R C_R C_R
   14              cosine/periodic      374.272657              -1               3 # O_R C_R O_R
   15                      fourier      135.665451        0.343737        0.374972        0.281246 # C_R S_3+6 C_3
   16                      fourier      117.828454        0.343737        0.374972        0.281246 # S_3+6 C_3 H_
   17                      fourier       75.498766        0.343737        0.374972        0.281246 # H_ C_3 H_

Dihedral Coeffs

    1        2.245703              -1               2 # Ni4+2 O_R C_R C_R
    2        1.497136              -1               2 # Ni4+2 N_R C_R C_R
    3        0.658808               1               2 # C_R C_R S_3+6 C_3
    4        0.555556              -1               2 # C_R C_R C_R O_R
    5        0.237247               1               2 # C_R S_3+6 C_3 H_

Improper Coeffs

    1        2.000000        1.000000       -1.000000        0.000000               0 # Ni4+2 N_R C_R C_R

Pair Coeffs

    1        0.015000        2.524807 # Ni4+2 Ni4+2
    2        0.060000        3.118146 # O_R O_R
    3        0.069000        3.260689 # N_R N_R
    4        0.105000        3.430851 # C_R C_R
    5        0.044000        2.571134 # H_ H_
    6        0.274000        3.594776 # S_3+6 S_3+6
    7        0.105000        3.430851 # C_3 C_3

Atoms

       1      444        1     0.00000    2.89857    9.41116    8.59265
       2      444        1     0.00000    6.17525    3.10579    3.48481
       3      444        2     0.00000    1.44827    4.35425    3.93374
       4      444        2     0.00000    4.44160    8.15245    9.05464
       5      444        2     0.00000    4.63665    1.84729    3.87523
       6      444        2     0.00000    1.36499   10.67435    9.00295
       7      444        2     0.00000    5.80609    4.46033    4.96242
       8      444        2     0.00000    2.54244    8.03270   10.06753
       9      444        2     0.00000    0.25117    1.69264    4.94273
      10      444        2     0.00000    3.23722   10.80466   10.06262
      11      444        3     0.00000    3.69677   10.66058    7.24160
      12      444        3     0.00000    0.71256    1.86420    2.11704
      13      444        3     0.00000    2.17217    8.14409    7.25198
      14      444        3     0.00000    5.44023    4.39481    2.13747
      15      444        4     0.00000    3.48546   12.14832    5.36301
      16      444        4     0.00000    0.47488    0.38955    0.22920
      17      444        4     0.00000    4.76073    0.14740    5.61481
      18      444        4     0.00000    1.74333   12.36991    0.47412
      19      444        4     0.00000    5.50345   12.15023    6.68209
      20      444        4     0.00000    2.49852    0.35508    1.54004
      21      444        5     0.00000    0.24768   12.50843    6.91993
      22      444        4     0.00000    2.48363    6.63370    5.40822
      23      444        4     0.00000    5.72803    5.90364    0.28669
      24      444        5     0.00000   -0.10828    6.26667    9.76620
      25      444        4     0.00000    2.92756    7.68099    6.23068
      26      444        4     0.00000    6.18830    4.86756    1.11596
      27      444        5     0.00000    3.89994    8.14655    6.08890
      28      444        5     0.00000    0.91589    4.41889    0.97634
      29      444        4     0.00000    2.98256   11.13588    6.19748
      30      444        4     0.00000   -0.01036    1.40553    1.07106
      31      444        5     0.00000    1.99392   10.70905    6.04703
      32      444        5     0.00000    5.26093    1.85011    0.92351
      33      444        4     0.00000    4.93641   11.13810    7.47507
      34      444        4     0.00000    1.94823    1.37190    2.34060
      35      444        5     0.00000    5.48559   10.70967    8.30944
      36      444        5     0.00000    2.50886    1.79214    3.17267
      37      444        4     0.00000    0.94573    7.62654    7.47302
      38      444        4     0.00000    4.21083    4.90458    2.35686
      39      444        5     0.00000    0.36328    8.05184    8.28732
      40      444        5     0.00000    3.63605    4.47744    3.17528
      41      444        4     0.00000    0.43859    6.57577    6.69176
      42      444        4     0.00000    3.68763    5.94500    1.56944
      43      444        4     0.00000    1.22745    6.06471    5.65205
      44      444        4     0.00000    4.46338    6.45777    0.52027
      45      444        4     0.00000    5.31260    1.24381    4.79419
      46      444        4     0.00000    2.05020   11.26755    9.92158
      47      444        4     0.00000    0.73548    4.94016    4.83586
      48      444        4     0.00000    3.73174    7.56629    9.95688
      49      444        1     0.00000    9.15137    9.41116    8.59265
      50      444        1     0.00000   12.42805    3.10579    3.48481
      51      444        2     0.00000    7.70109    4.35425    3.93374
      52      444        2     0.00000   10.69440    8.15245    9.05464
      53      444        2     0.00000   10.88945    1.84729    3.87523
      54      444        2     0.00000    7.61779   10.67435    9.00295
      55      444        2     0.00000   12.05889    4.46033    4.96242
      56      444        2     0.00000    8.79524    8.03270   10.06753
      57      444        2     0.00000    6.50397    1.69264    4.94273
      58      444        2     0.00000    9.49002   10.80466   10.06262
      59      444        3     0.00000    9.94957   10.66058    7.24160
      60      444        3     0.00000    6.96536    1.86420    2.11704
      61      444        3     0.00000    8.42499    8.14409    7.25198
      62      444        3     0.00000   11.69303    4.39481    2.13747
      63      444        4     0.00000    9.73826   12.14832    5.36301
      64      444        4     0.00000    6.72768    0.38955    0.22920
      65      444        5     0.00000   12.12251    0.03371    9.69377
      66      444        4     0.00000   11.01353    0.14740    5.61481
      67      444        4     0.00000    7.99613   12.36991    0.47412
      68      444        4     0.00000   11.75625   12.15023    6.68209
      69      444        4     0.00000    8.75132    0.35508    1.54004
      70      444        5     0.00000    6.50047   12.50843    6.91993
      71      444        5     0.00000    9.74435   12.50668    1.77336
      72      444        4     0.00000    8.73644    6.63370    5.40822
      73      444        4     0.00000   11.98084    5.90364    0.28669
      74      444        5     0.00000    9.38574    6.27291    4.61605
      75      444        5     0.00000    6.14452    6.26667    9.76620
      76      444        4     0.00000    9.18036    7.68099    6.23068
      77      444        4     0.00000   12.44110    4.86756    1.11596
      78      444        5     0.00000   10.15274    8.14655    6.08890
      79      444        5     0.00000    7.16869    4.41889    0.97634
      80      444        4     0.00000    9.23536   11.13588    6.19748
      81      444        4     0.00000    6.24244    1.40553    1.07106
      82      444        5     0.00000    8.24672   10.70905    6.04703
      83      444        5     0.00000   11.51373    1.85011    0.92351
      84      444        4     0.00000   11.18921   11.13810    7.47507
      85      444        4     0.00000    8.20102    1.37190    2.34060
      86      444        5     0.00000   11.73839   10.70967    8.30944
      87      444        5     0.00000    8.76167    1.79214    3.17267
      88      444        4     0.00000    7.19853    7.62654    7.47302
      89      444        4     0.00000   10.46363    4.90458    2.35686
      90      444        5     0.00000    6.61608    8.05184    8.28732
      91      444        5     0.00000    9.88885    4.47744    3.17528
      92      444        4     0.00000    6.69139    6.57577    6.69176
      93      444        4     0.00000    9.94043    5.94500    1.56944
      94      444        5     0.00000   11.96054    6.17693    6.91975
      95      444        4     0.00000    7.48025    6.06471    5.65205
      96      444        4     0.00000   10.71618    6.45777    0.52027
      97      444        4     0.00000   11.56540    1.24381    4.79419
      98      444        4     0.00000    8.30300   11.26755    9.92158
      99      444        4     0.00000    6.98827    4.94016    4.83586
     100      444        4     0.00000    9.98454    7.56629    9.95688
     101      444        6     0.00000    2.42604    0.17453    4.00800
     102      444        7     0.00000    1.42708    0.65480    2.73295
     103      444        5     0.00000    1.65398    1.67958    2.37439
     104      444        5     0.00000    1.36589   12.51094    1.84806
     105      444        5     0.00000    0.46452    0.69459    3.28441
     106      444        6     0.00000    4.15824   12.30884    1.95771
     107      444        7     0.00000    5.72292   11.80899    2.35302
     108      444        5     0.00000    5.94700   10.78282    1.99668
     109      444        5     0.00000    6.56447   12.46762    2.05298
     110      444        5     0.00000    5.60802   11.76660    3.45628
     111      444        6     0.00000    3.58629    6.10330    4.08176
     112      444        7     0.00000    4.62517    5.64103    2.83221
     113      444        5     0.00000    4.44706    4.60095    2.49056
     114      444        5     0.00000    4.67302    6.29317    1.93530
     115      444        5     0.00000    5.57937    5.65225    3.39929
     116      444        6     0.00000    2.03793    6.54381    1.98532
     117      444        7     0.00000    0.50157    7.10434    2.40930
     118      444        5     0.00000   -0.02222    7.59683    1.56472
     119      444        5     0.00000    0.42266    7.76791    3.29557
     120      444        5     0.00000    0.01190    6.12387    2.58570
     121      444        6     0.00000    8.67884    0.17453    4.00800
     122      444        7     0.00000    7.67988    0.65480    2.73295
     123      444        5     0.00000    7.90678    1.67958    2.37439
     124      444        5     0.00000    7.61869   12.51094    1.84806
     125      444        5     0.00000    6.71732    0.69459    3.28441
     126      444        6     0.00000    5.42480   12.38103    9.15416
     127      444        7     0.00000    4.39112   11.88317    7.91400
     128      444        5     0.00000    4.93338   11.41500    7.06724
     129      444        5     0.00000    3.54290   11.22099    8.18615
     130      444        5     0.00000    4.04120    0.35910    7.58069
     131      444        6     0.00000    5.04613    5.96163    7.10094
     132      444        7     0.00000    3.51331    5.38722    7.51910
     133      444        5     0.00000    3.00059    4.88267    6.67484
     134      444        5     0.00000    3.43589    4.72941    8.40979
     135      444        5     0.00000    3.01166    6.36347    7.68495
     136      444        6     0.00000    8.29073    6.54381    1.98532
     137      444        7     0.00000    6.75437    7.10434    2.40930
     138      444        5     0.00000    6.23058    7.59683    1.56472
     139      444        5     0.00000    6.67546    7.76791    3.29557
     140      444        5     0.00000    6.26470    6.12387    2.58570

Bonds

       1        1        1        4
       2        1        1        6
       3        1        1        8
       4        1        1       10
       5        2        1       11
       6        2        1       13
       7        1        2        5
       8        1        2        7
       9        2        2       14
      10        1        2       51
      11        1        2       57
      12        2        2       60
      13        3        3       47
      14        1        3       50
      15        3        4       48
      16        3        5       45
      17        3        6       46
      18        3        7       99
      19        3        8       48
      20        1        9       50
      21        3        9       97
      22        3       10       46
      23        4       11       29
      24        4       11       33
      25        4       12       30
      26        4       12       34
      27        2       12       50
      28        4       13       25
      29        4       13       37
      30        4       14       26
      31        4       14       38
      32        5       15       17
      33        5       15       29
      34        6       15      101
      35        5       16       18
      36        5       16       30
      37        7       16       65
      38        5       17       19
      39        8       17       45
      40        5       18       20
      41        8       18       46
      42        5       19       33
      43        7       19       70
      44        5       20       34
      45        6       20      106
      46        7       21       68
      47        5       22       25
      48        5       22       43
      49        6       22      111
      50        5       23       26
      51        5       23       44
      52        7       23       75
      53        7       24       73
      54        7       25       27
      55        7       26       79
      56        7       28       77
      57        7       29       31
      58        7       30       83
      59        7       32       81
      60        7       33       35
      61        7       34       36
      62        7       37       39
      63        5       37       41
      64        7       38       40
      65        5       38       42
      66        5       41       43
      67        7       41       94
      68        5       42       44
      69        6       42      116
      70        8       43       47
      71        8       44       48
      72        3       45       57
      73        3       47       55
      74        1       49       52
      75        1       49       54
      76        1       49       56
      77        1       49       58
      78        2       49       59
      79        2       49       61
      80        1       50       53
      81        1       50       55
      82        2       50       62
      83        3       51       99
      84        3       52      100
      85        3       53       97
      86        3       54       98
      87        3       56      100
      88        3       58       98
      89        4       59       80
      90        4       59       84
      91        4       60       81
      92        4       60       85
      93        4       61       76
      94        4       61       88
      95        4       62       77
      96        4       62       89
      97        5       63       66
      98        5       63       80
      99        6       63      121
     100        5       64       67
     101        5       64       81
     102        6       64      126
     103        5       66       68
     104        8       66       97
     105        5       67       69
     106        8       67       98
     107        5       68       84
     108        7       69       71
     109        5       69       85
     110        7       72       74
     111        5       72       76
     112        5       72       95
     113        5       73       77
     114        5       73       96
     115        7       76       78
     116        7       80       82
     117        7       84       86
     118        7       85       87
     119        7       88       90
     120        5       88       92
     121        7       89       91
     122        5       89       93
     123        5       92       95
     124        6       92      131
     125        5       93       96
     126        6       93      136
     127        8       95       99
     128        8       96      100
     129        9      101      102
     130       10      102      103
     131       10      102      104
     132       10      102      105
     133        9      106      107
     134       10      107      108
     135       10      107      109
     136       10      107      110
     137        9      111      112
     138       10      112      113
     139       10      112      114
     140       10      112      115
     141        9      116      117
     142       10      117      118
     143       10      117      119
     144       10      117      120
     145        9      121      122
     146       10      122      123
     147       10      122      124
     148       10      122      125
     149        9      126      127
     150       10      127      128
     151       10      127      129
     152       10      127      130
     153        9      131      132
     154       10      132      133
     155       10      132      134
     156       10      132      135
     157        9      136      137
     158       10      137      138
     159       10      137      139
     160       10      137      140

Angles

       1        1        4        1        6
       2        1        4        1        8
       3        1        4        1       10
       4        2        4        1       11
       5        2        4        1       13
       6        1        6        1        8
       7        1        6        1       10
       8        2        6        1       11
       9        2        6        1       13
      10        1        8        1       10
      11        2        8        1       11
      12        2        8        1       13
      13        2       10        1       11
      14        2       10        1       13
      15        3       11        1       13
      16        2       14        2        5
      17        2       14        2        7
      18        2       14        2       51
      19        2       14        2       57
      20        3       14        2       60
      21        1        5        2        7
      22        1        5        2       51
      23        1        5        2       57
      24        2        5        2       60
      25        1        7        2       51
      26        1        7        2       57
      27        2        7        2       60
      28        1       51        2       57
      29        2       51        2       60
      30        2       57        2       60
      31        4       47        3       50
      32        4        1        4       48
      33        4        2        5       45
      34        4        1        6       46
      35        4        2        7       99
      36        4        1        8       48
      37        4       50        9       97
      38        4        1       10       46
      39        5        1       11       29
      40        5        1       11       33
      41        6       29       11       33
      42        6       30       12       34
      43        5       30       12       50
      44        5       34       12       50
      45        5        1       13       25
      46        5        1       13       37
      47        6       25       13       37
      48        5        2       14       26
      49        5        2       14       38
      50        6       26       14       38
      51        7       17       15       29
      52        8       17       15      101
      53        8       29       15      101
      54        7       18       16       30
      55        9       18       16       65
      56        9       30       16       65
      57        7       15       17       19
      58       10       15       17       45
      59       10       19       17       45
      60        7       16       18       20
      61       10       16       18       46
      62       10       20       18       46
      63        7       17       19       33
      64        9       17       19       70
      65        9       33       19       70
      66        7       18       20       34
      67        8       18       20      106
      68        8       34       20      106
      69        7       25       22       43
      70        8       25       22      111
      71        8       43       22      111
      72        7       26       23       44
      73        9       26       23       75
      74        9       44       23       75
      75       11       13       25       22
      76       12       13       25       27
      77        9       22       25       27
      78       11       14       26       23
      79       12       14       26       79
      80        9       23       26       79
      81       11       11       29       15
      82       12       11       29       31
      83        9       15       29       31
      84       11       12       30       16
      85       12       12       30       83
      86        9       16       30       83
      87       11       19       33       11
      88        9       19       33       35
      89       12       11       33       35
      90       11       12       34       20
      91       12       12       34       36
      92        9       20       34       36
      93       11       13       37       41
      94       12       13       37       39
      95        9       41       37       39
      96       11       14       38       42
      97       12       14       38       40
      98        9       42       38       40
      99        7       37       41       43
     100        9       37       41       94
     101        9       43       41       94
     102        7       38       42       44
     103        8       38       42      116
     104        8       44       42      116
     105        7       22       43       41
     106       10       22       43       47
     107       10       41       43       47
     108        7       23       44       42
     109       10       23       44       48
     110       10       42       44       48
     111       13        5       45       17
     112       14        5       45       57
     113       13       17       45       57
     114       13       10       46       18
     115       14       10       46        6
     116       13       18       46        6
     117       13        3       47       43
     118       14        3       47       55
     119       13       43       47       55
     120       13        8       48       44
     121       14        8       48        4
     122       13       44       48        4
     123        1       52       49       54
     124        1       52       49       56
     125        1       52       49       58
     126        2       52       49       59
     127        2       52       49       61
     128        1       54       49       56
     129        1       54       49       58
     130        2       54       49       59
     131        2       54       49       61
     132        1       56       49       58
     133        2       56       49       59
     134        2       56       49       61
     135        2       58       49       59
     136        2       58       49       61
     137        3       59       49       61
     138        2        9       50       12
     139        1        9       50       53
     140        1        9       50        3
     141        1        9       50       55
     142        2        9       50       62
     143        2       12       50       53
     144        2       12       50        3
     145        2       12       50       55
     146        3       12       50       62
     147        1       53       50        3
     148        1       53       50       55
     149        2       53       50       62
     150        1        3       50       55
     151        2        3       50       62
     152        2       55       50       62
     153        4        2       51       99
     154        4       49       52      100
     155        4       50       53       97
     156        4       49       54       98
     157        4       47       55       50
     158        4       49       56      100
     159        4        2       57       45
     160        4       49       58       98
     161        5       49       59       80
     162        5       49       59       84
     163        6       80       59       84
     164        5        2       60       85
     165        5        2       60       81
     166        6       85       60       81
     167        5       49       61       76
     168        5       49       61       88
     169        6       76       61       88
     170        6       77       62       89
     171        5       77       62       50
     172        5       89       62       50
     173        7       66       63       80
     174        8       66       63      121
     175        8       80       63      121
     176        7       67       64       81
     177        8       67       64      126
     178        8       81       64      126
     179       10       63       66       97
     180        7       63       66       68
     181       10       97       66       68
     182        7       64       67       69
     183       10       64       67       98
     184       10       69       67       98
     185        9       84       68       21
     186        7       84       68       66
     187        9       21       68       66
     188        7       67       69       85
     189        9       67       69       71
     190        9       85       69       71
     191        7       76       72       95
     192        9       76       72       74
     193        9       95       72       74
     194        9       77       73       24
     195        7       77       73       96
     196        9       24       73       96
     197       11       61       76       72
     198       12       61       76       78
     199        9       72       76       78
     200       11       62       77       73
     201       12       62       77       28
     202        9       73       77       28
     203       11       59       80       63
     204       12       59       80       82
     205        9       63       80       82
     206        9       64       81       32
     207       11       64       81       60
     208       12       32       81       60
     209       11       68       84       59
     210        9       68       84       86
     211       12       59       84       86
     212       11       60       85       69
     213       12       60       85       87
     214        9       69       85       87
     215       11       61       88       92
     216       12       61       88       90
     217        9       92       88       90
     218       11       62       89       93
     219       12       62       89       91
     220        9       93       89       91
     221        7       88       92       95
     222        8       88       92      131
     223        8       95       92      131
     224        7       89       93       96
     225        8       89       93      136
     226        8       96       93      136
     227        7       72       95       92
     228       10       72       95       99
     229       10       92       95       99
     230        7       93       96       73