140
Atoms. Timestep: 0
Ni 2.89857 9.41116 8.59265
Ni 6.17525 3.10579 3.48481
O 1.44827 4.35425 3.93374
O 4.4416 8.15245 9.05464
O 4.63665 1.84729 3.87523
O 1.36499 10.6744 9.00295
O 5.80609 4.46033 4.96242
O 2.54244 8.0327 10.0675
O 0.25117 1.69264 4.94273
O 3.23722 10.8047 10.0626
N 3.69677 10.6606 7.2416
N 0.71256 1.8642 2.11704
N 2.17217 8.14409 7.25198
N 5.44023 4.39481 2.13747
C 3.48546 12.1483 5.36301
C 0.47488 0.38955 0.2292
H 2.86453 12.5181 4.55267
H 5.86971 0.03371 9.69377
C 4.76073 0.1474 5.61481
C 1.74333 12.3699 0.47412
C 5.50345 12.1502 6.68209
C 2.49852 0.35508 1.54004
H 0.24768 12.5084 6.91993
H 3.49155 12.5067 1.77336
C 2.48363 6.6337 5.40822
C 5.72803 5.90364 0.28669
H 3.13294 6.27291 4.61605
H -0.10828 6.26667 9.7662
C 2.92756 7.68099 6.23068
C 6.1883 4.86756 1.11596
C 2.98256 11.1359 6.19748
C -0.01036 1.40553 1.07106
H 5.26093 1.85011 0.92351
C 4.93641 11.1381 7.47507
C 1.94823 1.3719 2.3406
H 5.48559 10.7097 8.30944
C 0.94573 7.62654 7.47302
C 4.21083 4.90458 2.35686
H 0.36328 8.05184 8.28732
C 0.43859 6.57577 6.69176
C 3.68763 5.945 1.56944
H 5.70774 6.17693 6.91975
H 2.69824 6.32683 1.80071
C 1.22745 6.06471 5.65205
C 4.46338 6.45777 0.52027
C 5.3126 1.24381 4.79419
C 2.0502 11.2675 9.92158
C 0.73548 4.94016 4.83586
C 3.73174 7.56629 9.95688
Ni 9.15137 9.41116 8.59265
Ni 12.4281 3.10579 3.48481
O 7.70109 4.35425 3.93374
O 10.6944 8.15245 9.05464
O 10.8895 1.84729 3.87523
O 7.61779 10.6744 9.00295
O 12.0589 4.46033 4.96242
O 8.79524 8.0327 10.0675
O 6.50397 1.69264 4.94273
O 9.49002 10.8047 10.0626
N 9.94957 10.6606 7.2416
N 6.96536 1.8642 2.11704
N 8.42499 8.14409 7.25198
N 11.693 4.39481 2.13747
C 9.73826 12.1483 5.36301
C 6.72768 0.38955 0.2292
H 9.11733 12.5181 4.55267
H 12.1225 0.03371 9.69377
C 11.0135 0.1474 5.61481
C 7.99613 12.3699 0.47412
C 11.7562 12.1502 6.68209
C 8.75132 0.35508 1.54004
H 6.50047 12.5084 6.91993
H 9.74435 12.5067 1.77336
C 8.73644 6.6337 5.40822
C 11.9808 5.90364 0.28669
H 9.38574 6.27291 4.61605
H 6.14452 6.26667 9.7662
C 9.18036 7.68099 6.23068
C 12.4411 4.86756 1.11596
H 7.16869 4.41889 0.97634
C 9.23536 11.1359 6.19748
C 6.24244 1.40553 1.07106
H 8.24672 10.709 6.04703
H 11.5137 1.85011 0.92351
C 11.1892 11.1381 7.47507
C 8.20102 1.3719 2.3406
C 7.19853 7.62654 7.47302
C 10.4636 4.90458 2.35686
H 6.61608 8.05184 8.28732
H 9.88885 4.47744 3.17528
C 6.69139 6.57577 6.69176
C 9.94043 5.945 1.56944
H 11.9605 6.17693 6.91975
H 8.95104 6.32683 1.80071
C 7.48025 6.06471 5.65205
C 10.7162 6.45777 0.52027
C 11.5654 1.24381 4.79419
C 8.303 11.2675 9.92158
C 6.98827 4.94016 4.83586
C 9.98454 7.56629 9.95688
S 1.33216 10.398 5.91745
C 12.3305 9.67257 5.6799
H 11.6267 10.3219 5.1202
H 12.3122 8.6653 5.21396
H 11.9945 9.64184 6.73742
S 2.88256 2.08779 3.74433
C 3.69851 2.75878 5.06278
H 4.79994 2.65668 4.98125
H 3.39741 2.42548 6.07781
H 3.44363 3.825 4.8884
S 4.54974 8.48363 5.96857
C 6.02929 9.26824 5.74577
H 6.7709 8.63934 5.21217
H 6.01416 10.2666 5.26091
H 6.34268 9.33283 6.80869
S 3.24886 4.17963 3.73703
C 2.40681 3.49916 5.03405
H 1.3083 3.62209 4.94257
H 2.70241 3.80854 6.05823
H 2.64503 2.43198 4.84278
S 12.1053 10.4069 8.88324
C 0.39867 9.72254 10.2052
H 1.50174 9.8122 10.1316
H 0.32195 10.0562 0.94489
H 0.13277 8.65986 10.0257
S 9.1385 2.09342 3.73934
C 9.9765 2.80388 5.02283
H 10.766 2.1434 5.43606
H 10.4218 3.8065 4.85411
H 9.14709 2.8418 5.7596
S 10.806 8.47822 5.97358
C 12.3099 9.2249 5.78596
H 0.20199 9.13261 4.75469
H 0.61191 8.9394 6.49182
H 11.9899 10.2777 5.93236
S 1.57321 4.09355 0.86026
C 3.06728 3.33506 0.644
H 3.79848 3.97503 0.10921
H 3.07137 2.33449 0.16349
H 3.37949 3.28081 1.70785
140
Atoms. Timestep: 400
Ni 2.77161 9.20171 8.61081
Ni 6.39641 3.21467 3.89544
O 0.382341 4.46932 3.95262
O 4.2061 8.20268 8.77739
O 4.94717 2.19362 3.9192
O 1.33739 10.2339 8.67031
O 5.99669 4.2425 5.27093
O 2.53509 8.12925 0.526213
O -0.684284 2.38394 5.14879
O 3.2402 10.4872 9.79837
N 3.55139 10.2428 7.22589
N -0.062478 2.17582 2.61477
N 1.96961 7.9205 7.3845
N 5.61735 4.52014 2.72004
C 3.74423 11.3923 5.12187
C 0.287643 1.05861 0.482809
H 3.43776 11.4567 4.09654
H 6.25965 11.822 9.33691
C 4.987 11.9222 5.51074
C 1.50533 12.1294 0.911396
C 5.58565 11.4164 6.6461
C 2.00897 0.956831 2.11519
H 12.7839 1.33743 7.54138
H 3.07504 0.90773 2.2715
C 1.52693 6.94186 5.21693
C 5.64827 5.93366 0.759183
H 1.69925 6.99253 4.16316
H 13.0924 7.14611 9.68998
C 2.41654 7.60476 6.11998
C 6.25434 4.96151 1.59305
C 2.97976 10.6288 6.03524
C -0.508852 1.86001 1.35847
H 5.4223 1.89533 1.34606
C 4.87526 10.5499 7.46669
C 1.16984 1.6515 3.03512
H 5.37252 10.1395 8.33273
C 0.760886 7.40141 7.7969
C 4.42521 5.1449 3.11043
H 0.323504 7.75818 8.70324
C 0.0589361 6.44047 7.03698
C 3.81032 6.08304 2.28069
H 6.11847 6.37549 6.95468
H 2.83662 6.4492 2.52079
C 0.390519 6.24706 5.6985
C 4.40935 6.50623 1.12827
C 5.61654 1.40924 4.76031
C 1.99406 11.0051 9.55153
C -0.309835 5.19519 4.81243
C 3.57775 7.60672 9.77479
Ni 9.64117 9.19185 8.34529
Ni -1.01279 3.42971 3.77227
O 7.8263 4.19459 4.04369
O 11.0505 8.15955 8.39402
O 12.0557 2.35289 3.82347
O 8.20423 10.1942 8.50864
O 12.8906 4.69763 4.93654
O 9.11602 7.85347 9.43378
O 6.83177 1.92322 5.03865
O 10.0147 10.1838 9.79165
N 10.5 10.5296 7.2621
N 7.18097 2.19269 2.48822
N 8.91657 8.23152 6.83798
N 12.7429 4.49416 2.28505
C 11.0496 11.4395 5.11853
C 7.04344 0.633956 0.673871
H 10.9276 11.3625 4.04742
H -0.248378 0.882902 8.93368
C 12.0298 0.648842 5.66317
C 8.40306 11.9163 0.83966
C 12.2071 0.587372 7.03854
C 9.17271 1.06553 1.67607
H 6.61917 11.6391 6.86682
H 10.2459 0.879827 1.75408
C 9.13992 6.2721 5.48509
C 12.7492 6.38214 0.748184
H 9.66299 5.76601 4.68723
H 5.93899 6.25743 9.30629
C 9.64692 7.49404 5.925
C 13.4435 5.37247 1.48118
H 7.24493 4.59786 1.35119
C 10.11 10.8315 5.99167
C 6.4555 1.62274 1.48864
H 9.17117 10.4672 5.60719
H 13.0254 2.24345 1.01374
C 11.6623 11.1277 7.7412
C 8.53707 1.87805 2.62314
C 7.57591 7.94195 6.96919
C 11.3555 4.57954 2.27764
H 6.94508 8.55045 7.58875
H 10.783 4.05918 3.02139
C 7.07213 6.70617 6.59085
C 10.6536 5.48381 1.46167
H -0.807135 5.9514 7.46017
H 9.57151 5.52519 1.51747
C 7.82981 5.88668 5.7925
C 11.3341 6.41767 0.711805
C 12.6465 1.76558 4.85953
C 8.78158 10.7317 9.57146
C 7.21971 4.76889 5.06122
C 10.3887 7.37366 9.23444
S 1.27655 10.2915 5.66937
C 0.912215 9.9467 3.95508
H 0.451181 8.9485 3.86612
H 1.81204 9.89927 3.32457
H 0.194409 10.704 3.5686
S 1.88877 2.07441 4.61782
C 1.48994 1.82031 6.36742
H 2.4121 1.58684 6.93748
H 0.758612 1.0107 6.4714
H 1.02726 2.72576 6.82144
S 4.13474 7.70214 5.72056
C 4.65623 8.50161 4.20888
H 5.27951 7.80412 3.62728
H 3.78399 8.81987 3.60893
H 5.30766 9.36083 4.45133
S 3.45224 4.57593 4.48264
C 3.50223 4.57919 6.29866
H 2.72824 5.22569 6.72125
H 4.4611 4.86629 6.74558
H 3.26919 3.59384 6.69609
S 12.8091 10.185 8.69528
C 12.9191 10.1879 1.03718
H -0.549945 10.0513 1.44885
H 12.4916 11.1381 1.41133
H 12.2973 9.3423 1.39029
S 9.30335 1.85479 4.20689
C 9.59741 2.86003 5.66063
H 10.299 2.35531 6.34168
H 10.0784 3.8032 5.37799
H 8.68152 2.97898 6.26884
S 10.6948 8.27968 4.77897
C 12.3517 7.98372 5.18784
H 12.8899 7.74335 4.25627
H 12.3625 7.12806 5.8804
H 12.7994 8.87886 5.65338
S 0.703344 5.27727 1.33057
C 1.09915 4.30807 9.42514
H 1.76678 4.93028 8.80197
H 0.247085 3.93945 8.82527
H 1.8991 3.46761 0.389567
140
Atoms. Timestep: 6797
Ni 2.70375 9.05626 8.57602
Ni 6.38134 3.24763 3.975
O 0.404933 4.4065 3.82087
O 4.13777 8.0407 8.65386
O 4.91548 2.2661 4.03939
O 1.27878 10.0756 8.71882
O 5.99971 4.33239 5.31975
O 2.47892 7.9029 0.412313
O -0.676607 2.36842 5.06454
O 3.1967 10.2536 9.84172
N 3.47485 10.2038 7.27214
N -0.0240762 2.07962 2.53024
N 1.88141 7.859 7.27127
N 5.63419 4.52183 2.74876
C 3.66994 11.4644 5.24995
C 0.42499 1.01101 0.393275
H 3.42051 11.4878 4.22024
H 6.09432 11.4287 9.78649
C 4.88758 12.0299 5.68183
C 1.55227 11.9867 0.90448
C 5.44521 11.5449 6.84307
C 2.01217 0.77376 2.13339
H 12.8667 1.34791 7.47702
H 3.05665 0.641337 2.35478
C 1.46999 6.93242 5.07806
C 5.61016 5.74472 0.660621
H 1.62804 7.02438 4.02679
H 13.2228 7.47031 0.718282
C 2.32974 7.61374 5.99252
C 6.22918 4.83035 1.55116
C 2.88852 10.6856 6.13483
C -0.398431 1.80933 1.23676
H 5.28542 1.65386 1.63031
C 4.77754 10.5517 7.55417
C 1.18399 1.54872 2.99239
H 5.29203 10.0671 8.36258
C 0.688796 7.28195 7.6694
C 4.48477 5.20954 3.12762
H 0.243154 7.574 8.60477
C 0.0274664 6.31403 6.88189
C 3.9101 6.15006 2.28253
H 6.10283 6.58364 6.84306
H 3.0326 6.6732 2.58659
C 0.362682 6.18384 5.54282
C 4.41372 6.38858 1.0377
C 5.55578 1.50165 4.91909
C 1.94779 10.779 9.63573
C -0.315208 5.16845 4.62958
C 3.50085 7.36195 9.59518
Ni 9.66964 9.22559 8.40367
Ni -0.983461 3.36969 3.64027
O 7.83999 4.21463 4.10335
O 11.0887 8.2069 8.51102
O 12.0751 2.29813 3.71292
O 8.21612 10.218 8.52233
O 12.8871 4.67462 4.74252
O 9.12854 7.89171 9.50157
O 6.79702 1.98311 5.17092
O 9.99867 10.2441 9.83943
N 10.5324 10.5537 7.29155
N 7.11644 2.16233 2.58587
N 9.01337 8.23393 6.8932
N 12.8494 4.38357 2.08467
C 11.0855 11.3911 5.10404
C 6.93551 0.464102 0.891033
H 10.9738 11.2679 4.03312
H -0.0118336 0.91802 8.79454
C 12.0466 0.643013 5.62458
C 8.33588 11.9113 0.89191
C 12.2548 0.600351 7.00237
C 9.09891 1.15652 1.64188
H 6.42151 11.8815 7.16937
H 10.1763 1.0433 1.65016
C 9.25685 6.15991 5.72516
C 12.7168 6.57197 1.04038
H 9.8225 5.56097 5.02859
H 5.85618 5.95311 9.14625
C 9.77752 7.41389 6.09169
C 13.4809 5.50192 1.58624
H 7.17458 4.38175 1.28215
C 10.161 10.7843 5.99557
C 6.35 1.47515 1.68684
H 9.21917 10.4095 5.62088
H 13.1624 2.20219 0.844154
C 11.6882 11.1751 7.75472
C 8.4763 1.89286 2.65846
C 7.6543 8.04573 6.88615
C 11.5294 4.18261 1.71996
H 6.99334 8.79571 7.27201
H 11.0666 3.22771 1.87615
C 7.1187 6.80719 6.58146
C 10.7488 5.20845 1.13472
H -0.823497 5.77932 7.2859
H 9.71361 5.01439 0.881711
C 7.88702 5.8868 5.90544
C 11.3297 6.43029 0.803527
C 12.6569 1.74393 4.78339
C 8.76788 10.7724 9.59094
C 7.22691 4.8425 5.09374
C 10.4046 7.41426 9.331
S 1.17478 10.4032 5.79511
C 0.792286 10.0829 4.09027
H 0.331146 9.09142 3.9711
H 1.70389 10.1056 3.46959
H 0.0647336 10.8433 3.75095
S 1.92535 2.11825 4.49361
C 1.59967 2.00626 6.26777
H 2.52739 1.76686 6.82156
H 0.833787 1.25991 6.52268
H 1.22651 2.98241 6.63349
S 4.04144 7.82526 5.5893
C 4.55651 8.64468 4.09605
H 5.24943 7.98605 3.54077
H 3.68499 8.90696 3.46662
H 5.1482 9.54222 4.34702
S 3.44771 4.64995 4.43387
C 3.56441 4.63297 6.23061
H 2.56922 4.82715 6.66134
H 4.25344 5.3846 6.63581
H 3.90902 3.63802 6.57365
S 12.7892 10.3016 8.82565
C 12.8199 10.4284 1.1544
H -0.660311 10.4069 1.6122
H 12.2996 11.3666 1.43013
H 12.2638 9.55657 1.5523
S 9.25471 1.76499 4.22636
C 9.67175 2.77771 5.64589
H 10.093 2.13831 6.43763
H 10.4325 3.52737 5.37374
H 8.79288 3.20654 6.14397
S 10.8428 8.12863 4.90016
C 12.48 8.35861 5.48355
H 13.1339 7.85528 4.75892
H 12.5654 7.93625 6.49631
H 12.7488 9.42637 5.51778
S 0.732425 5.49813 1.31789
C 1.05921 4.37388 9.49809
H 1.76756 4.89731 8.8303
H 0.190207 4.01134 8.91206
H 1.59063 3.52325 9.96813
140
Atoms. Timestep: 6800
Ni 2.70249 9.05347 8.57748
Ni 6.38138 3.25064 3.97452
O 0.402871 4.40836 3.82031
O 4.137 8.03892 8.65535
O 4.91502 2.27009 4.03892
O 1.27704 10.0718 8.72033
O 5.99962 4.33433 5.31982
O 2.26834 7.90125 9.85759
O -0.679035 2.3723 5.0645
O 3.19561 10.2496 9.84369
N 3.47386 10.1998 7.27305
N -0.0262777 2.08379 2.52915
N 1.87987 7.8574 7.27218
N 5.63397 4.52357 2.74776
C 3.66903 11.4592 5.25
C 0.213681 1.01626 9.83856
H 3.41952 11.4826 4.21986
H 6.09426 11.4235 9.78845
C 4.8871 12.0241 5.68206
C 1.55063 11.981 0.902693
C 5.44491 11.5396 6.84379
C 2.01069 0.779246 2.13212
H 12.869 1.35282 7.47801
H 3.05553 0.646953 2.35361
C 1.46831 6.93175 5.07804
C 5.60993 5.74524 0.658734
H 1.62642 7.02361 4.02632
H 13.2252 7.46911 0.716412
C 2.32836 7.61239 5.99288
C 6.22917 4.83178 1.54965
C 2.88734 10.6811 6.13525
C -0.400753 1.81378 1.23511
H 5.28508 1.65846 1.62883
C 4.777 10.5474 7.55519
C 1.18222 1.55343 2.99148
H 5.29168 10.0633 8.36395
C 0.686845 7.28093 7.67046
C 4.48415 5.2106 3.12676
H 0.241045 7.57269 8.60623
C 0.02528 6.31397 6.88263
C 3.90928 6.15018 2.28132
H 6.10277 6.58332 6.84378
H 3.03147 6.67279 2.58551
C 0.360615 6.18392 5.543
C 4.41308 6.38845 1.03597
C 5.55553 1.5064 4.919
C 1.94627 10.7745 9.63764
C -0.317512 5.16954 4.62937
C 3.49987 7.36084 9.59707
Ni 9.67082 9.22262 8.40506
Ni -0.985997 3.37258 3.63964
O 7.84052 4.21668 4.10291
O 11.0904 8.20495 8.51244
O 12.0771 2.30208 3.71232
O 8.21681 10.2141 8.52376
O 12.8894 4.67622 4.74234
O 9.12953 7.89007 9.5034
O 6.7972 1.98737 5.17093
O 9.99996 10.2402 9.8414
N 10.5339 10.5494 7.29247
N 7.11674 2.16642 2.5848
N 9.01432 8.23196 6.89395
N 12.8517 4.38545 2.08338
C 11.0872 11.386 5.10404
C 6.93575 0.469894 0.889238
H 10.9754 11.2629 4.03266
H -0.014035 0.92336 8.79609
C 12.0487 0.648625 5.62478
C 8.3366 11.9056 0.890115
C 12.2569 0.606011 7.00316
C 9.0999 1.16162 1.64041
H 6.42156 11.8758 7.17023
H 10.1777 1.04852 1.64869
C 9.25789 6.16 5.72541
C 12.7191 6.57167 1.03865
H 9.82374 5.56166 5.02854
H 5.85602 5.95342 9.14795
C 9.77873 7.41274 6.09209
C -1.00535 5.50269 1.58473
H 7.1749 4.38363 1.28052
C 10.1624 10.7798 5.99594
C 6.35005 1.47994 1.68538
H 9.2202 10.4053 5.62109
H 13.1648 2.20625 0.842343
C 11.6901 11.1702 7.75582
C 8.47707 1.89723 2.65742
C 7.65478 8.04396 6.88689
C 11.5313 4.18468 1.71852
H 6.99359 8.79319 7.27291
H 11.0682 3.23074 1.87477
C 7.119 6.80664 6.58207
C 10.7504 5.2095 1.13303
H -0.82598 5.7798 7.2868
H 9.71482 5.01563 0.879915
C 7.88758 5.88717 5.90577
C 11.3315 6.43013 0.801695
C 12.6591 1.74844 4.78325
C 8.76874 10.7679 9.59282
C 7.22725 4.84392 5.09372
C 10.406 7.41311 9.33278
S 1.173 10.3991 5.79539
C 0.790379 10.0791 4.08984
H 0.32907 9.08858 3.97061
H 1.70229 10.1018 3.46889
H 0.0625658 10.8388 3.75037
S 1.92382 2.12239 4.49334
C 1.59804 2.01051 6.26824
H 2.52607 1.77136 6.82227
H 0.831883 1.26491 6.52327
H 1.22474 2.98569 6.63413
S 4.04065 7.8237 5.58949
C 4.55591 8.6423 4.09561
H 5.24907 7.98432 3.54009
H 3.68409 8.90432 3.46591
H 5.14781 9.53895 4.34669
S 3.44673 4.65156 4.43357
C 3.56346 4.6346 6.23107
H 2.56793 4.82859 6.66198
H 4.25273 5.38547 6.63645
H 3.90819 3.64064 6.57425
S 12.7915 10.2975 8.82722
C 12.8222 10.4242 1.15271
H -0.662733 10.4027 1.61071
H 12.3017 11.3615 1.42857
H 12.2659 9.55327 1.55079
S 9.25574 1.76948 4.22597
C 9.67293 2.78119 5.6461
H 10.0943 2.14243 6.43818
H 10.434 3.5301 5.37384
H 8.79376 3.2096 6.1444
S 10.8444 8.12676 4.90007
C 12.4821 8.3565 5.4837
H 13.1363 7.85369 4.75876
H 12.5676 7.93457 6.49688
H 12.7511 9.42322 5.51794
S 0.730489 5.49889 1.31628
C 1.05738 4.37576 9.49993
H 1.76598 4.89868 8.83186
H 0.188078 4.01359 8.91365
H 1.79826 3.52599 0.522883
140
Atoms. Timestep: 13611
Ni 2.70225 9.05244 8.57803
Ni 6.3831 3.24986 3.97626
O 0.402314 4.41117 3.81671
O 4.13672 8.03748 8.65603
O 4.9171 2.26886 4.03924
O 1.27672 10.0708 8.72072
O 6.00161 4.33277 5.32217
O 2.26817 7.89846 9.85673
O -0.677834 2.37463 5.06357
O 3.1943 10.249 9.84434
N 3.47285 10.2008 7.27525
N -0.0274269 2.08338 2.52923
N 1.88152 7.85589 7.27229
N 5.63643 4.52525 2.75152
C 3.6681 11.4598 5.25226
C 0.213136 1.01645 9.83913
H 3.41761 11.4834 4.22274
H 6.09532 11.4265 9.78534
C 4.88717 12.0231 5.68267
C 1.54963 11.9807 0.903032
C 5.44453 11.5389 6.84427
C 2.00914 0.778349 2.13227
H 12.87 1.35667 7.4782
H 3.05319 0.644001 2.35475
C 1.47012 6.93382 5.07738
C 5.61397 5.74905 0.663911
H 1.62826 7.02818 4.02629
H 13.2238 7.4693 0.709696
C 2.32971 7.61321 5.99293
C 6.23351 4.83634 1.55562
C 2.88621 10.683 6.13818
C -0.401771 1.81323 1.23575
H 5.28656 1.66014 1.62957
C 4.77572 10.548 7.55703
C 1.18123 1.55351 2.991
H 5.29019 10.0632 8.36534
C 0.688885 7.27843 7.66933
C 4.48391 5.20914 3.12798
H 0.242757 7.56961 8.6047
C 0.0275041 6.31234 6.88013
C 3.90402 6.14245 2.27863
H 6.10339 6.58958 6.84108
H 3.02096 6.65845 2.57856
C 0.362395 6.18519 5.54082
C 4.41283 6.3864 1.0368
C 5.55728 1.50307 4.91776
C 1.9453 10.7738 9.63815
C -0.317178 5.17358 4.6254
C 3.49965 7.35831 9.59705
Ni 9.67092 9.22369 8.40308
Ni -0.986016 3.37416 3.63848
O 7.84204 4.21633 4.10597
O 11.0898 8.2053 8.51003
O 12.0779 2.30298 3.71335
O 8.21728 10.2158 8.52187
O 12.8903 4.67976 4.73973
O 9.12914 7.88901 9.49923
O 6.79859 1.98392 5.17031
O 9.99921 10.2406 9.83984
N 10.5342 10.5523 7.29266
N 7.11774 2.16642 2.58605
N 9.01603 8.23407 6.89143
N 12.8505 4.38585 2.0825
C 11.0912 11.3856 5.10478
C 6.93655 0.47199 0.887707
H 10.9807 11.2617 4.03381
H -0.01382 0.924653 8.79675
C 12.051 0.650094 5.62569
C 8.3368 11.9072 0.888605
C 12.2576 0.609176 7.00381
C 9.09994 1.16263 1.63991
H 6.42158 11.8743 7.16956
H 10.1773 1.04904 1.64804
C 9.25969 6.15538 5.7333
C 12.7179 6.57174 1.03396
H 9.82696 5.55165 5.04218
H 5.86274 5.96075 9.15545
C 9.78025 7.41091 6.09381
C -1.00681 5.50278 1.58128
H 7.18104 4.39088 1.28889
C 10.1656 10.78 5.99542
C 6.35116 1.48127 1.68563
H 9.22382 10.4059 5.61983
H 13.1637 2.20526 0.84341
C 11.6898 11.1734 7.75666
C 8.47761 1.89721 2.6577
C 7.65678 8.04945 6.87995
C 11.5303 4.18431 1.71912
H 6.99589 8.80462 7.256
H 11.0675 3.22977 1.87711
C 7.12001 6.81028 6.58051
C 10.7496 5.20887 1.13222
H -0.823629 5.77708 7.28307
H 9.71446 5.0143 0.879561
C 7.88869 5.88562 5.91029
C 11.3306 6.42984 0.798529
C 12.6603 1.75039 4.78409
C 8.76851 10.7689 9.59132
C 7.22876 4.84294 5.09704
C 10.4053 7.41201 9.32899
S 1.17199 10.4015 5.79902
C 0.788434 10.0812 4.09432
H 0.326928 9.08996 3.97544
H 1.69982 10.1032 3.47333
H 0.0606728 10.8414 3.75485
S 1.92371 2.12493 4.49076
C 1.59933 2.01648 6.26546
H 2.5273 1.77772 6.81903
H 0.833499 1.27092 6.52286
H 1.2266 2.99344 6.62937
S 4.04067 7.8287 5.58834
C 4.54943 8.63975 4.0883
H 5.24369 7.97975 3.53634
H 3.67551 8.89437 3.45901
H 5.13818 9.54141 4.33117
S 3.451 4.65285 4.43942
C 3.56858 4.63817 6.23607
H 2.57376 4.83387 6.66684
H 4.25834 5.38974 6.63989
H 3.91253 3.64342 6.58033
S 12.79 10.2995 8.82854
C 12.8196 10.4249 1.15346
H -0.666163 10.4037 1.61247
H 12.2984 11.3626 1.42949
H 12.2635 9.55257 1.55027
S 9.25757 1.76831 4.22477
C 9.66763 2.77057 5.65415
H 10.0772 2.12317 6.44572
H 10.4361 3.51686 5.39391
H 8.78807 3.20309 6.14735
S 10.8436 8.12161 4.89834
C 12.4808 8.35239 5.48112
H 13.1346 7.85097 4.75501
H 12.567 7.92825 6.49311
H 12.7492 9.42015 5.51746
S 0.727989 5.49795 1.31187
C 1.05506 4.37281 9.49715
H 1.76353 4.89585 8.82934
H 0.186304 4.00963 8.91116
H 1.79621 3.52298 0.520732
140
Atoms. Timestep: 13612
Ni 2.70225 9.05244 8.57803
Ni 6.3831 3.24986 3.97626
O 0.402314 4.41117 3.81671
O 4.13672 8.03748 8.65603
O 4.9171 2.26886 4.03924
O 1.27672 10.0708 8.72072
O 6.00161 4.33277 5.32217
O 2.26817 7.89846 9.85673
O -0.677834 2.37463 5.06357
O 3.1943 10.249 9.84434
N 3.47285 10.2008 7.27525
N -0.0274269 2.08338 2.52923
N 1.88152 7.85589 7.27229
N 5.63643 4.52525 2.75152
C 3.6681 11.4598 5.25226
C 0.213136 1.01645 9.83913
H 3.41761 11.4834 4.22274
H 6.09532 11.4265 9.78534
C 4.88717 12.0231 5.68267
C 1.54963 11.9807 0.903032
C 5.44453 11.5389 6.84427
C 2.00914 0.778349 2.13227
H 12.87 1.35667 7.4782
H 3.05319 0.644001 2.35475
C 1.47012 6.93382 5.07738
C 5.61397 5.74905 0.663911
H 1.62826 7.02818 4.02629
H 13.2238 7.4693 0.709696
C 2.32971 7.61321 5.99293
C 6.23351 4.83634 1.55562
C 2.88621 10.683 6.13818
C -0.401771 1.81323 1.23575
H 5.28656 1.66014 1.62957
C 4.77572 10.548 7.55703
C 1.18123 1.55351 2.991
H 5.29019 10.0632 8.36534
C 0.688885 7.27843 7.66933
C 4.48391 5.20914 3.12798
H 0.242757 7.56961 8.6047
C 0.0275041 6.31234 6.88013
C 3.90402 6.14245 2.27863
H 6.10339 6.58958 6.84108
H 3.02096 6.65845 2.57856
C 0.362395 6.18519 5.54082
C 4.41283 6.3864 1.0368
C 5.55728 1.50307 4.91776
C 1.9453 10.7738 9.63815
C -0.317178 5.17358 4.6254
C 3.49965 7.35831 9.59705
Ni 9.67092 9.22369 8.40308
Ni -0.986016 3.37416 3.63848
O 7.84204 4.21633 4.10597
O 11.0898 8.2053 8.51003
O 12.0779 2.30298 3.71335
O 8.21728 10.2158 8.52187
O 12.8903 4.67976 4.73973
O 9.12914 7.88901 9.49923
O 6.79859 1.98392 5.17031
O 9.99921 10.2406 9.83984
N 10.5342 10.5523 7.29266
N 7.11774 2.16642 2.58605
N 9.01603 8.23407 6.89143
N 12.8505 4.38585 2.0825
C 11.0912 11.3856 5.10478
C 6.93655 0.47199 0.887707
H 10.9807 11.2617 4.03381
H -0.01382 0.924653 8.79675
C 12.051 0.650094 5.62569
C 8.3368 11.9072 0.888605
C 12.2576 0.609176 7.00381
C 9.09994 1.16263 1.63991
H 6.42158 11.8743 7.16956
H 10.1773 1.04904 1.64804
C 9.25969 6.15538 5.7333
C 12.7179 6.57174 1.03396
H 9.82696 5.55165 5.04218
H 5.86274 5.96075 9.15545
C 9.78025 7.41091 6.09381
C -1.00681 5.50278 1.58128
H 7.18104 4.39088 1.28889
C 10.1656 10.78 5.99542
C 6.35116 1.48127 1.68563
H 9.22382 10.4059 5.61983
H 13.1637 2.20526 0.84341
C 11.6898 11.1734 7.75666
C 8.47761 1.89721 2.6577
C 7.65678 8.04945 6.87995
C 11.5303 4.18431 1.71912
H 6.99589 8.80462 7.256
H 11.0675 3.22977 1.87711
C 7.12001 6.81028 6.58051
C 10.7496 5.20887 1.13222
H -0.823629 5.77708 7.28307
H 9.71446 5.0143 0.879561
C 7.88869 5.88562 5.91029
C 11.3306 6.42984 0.798529
C 12.6603 1.75039 4.78409
C 8.76851 10.7689 9.59132
C 7.22876 4.84294 5.09704
C 10.4053 7.41201 9.32899
S 1.17199 10.4015 5.79902
C 0.788434 10.0812 4.09432
H 0.326928 9.08996 3.97544
H 1.69982 10.1032 3.47333
H 0.0606728 10.8414 3.75485
S 1.92371 2.12493 4.49076
C 1.59933 2.01648 6.26546
H 2.5273 1.77772 6.81903
H 0.833499 1.27092 6.52286
H 1.2266 2.99344 6.62937
S 4.04067 7.8287 5.58834
C 4.54943 8.63975 4.0883
H 5.24369 7.97975 3.53634
H 3.67551 8.89437 3.45901
H 5.13818 9.54141 4.33117
S 3.451 4.65285 4.43942
C 3.56858 4.63817 6.23607
H 2.57376 4.83387 6.66684
H 4.25834 5.38974 6.63989
H 3.91253 3.64342 6.58033
S 12.79 10.2995 8.82854
C 12.8196 10.4249 1.15346
H -0.666163 10.4037 1.61247
H 12.2984 11.3626 1.42949
H 12.2635 9.55257 1.55027
S 9.25757 1.76831 4.22477
C 9.66763 2.77057 5.65415
H 10.0772 2.12317 6.44572
H 10.4361 3.51686 5.39391
H 8.78807 3.20309 6.14735
S 10.8436 8.12161 4.89834
C 12.4808 8.35239 5.48112
H 13.1346 7.85097 4.75501
H 12.567 7.92825 6.49311
H 12.7492 9.42015 5.51746
S 0.727989 5.49795 1.31187
C 1.05506 4.37281 9.49715
H 1.76353 4.89585 8.82934
H 0.186304 4.00963 8.91116
H 1.79621 3.52298 0.520732
140
Atoms. Timestep: 13741
Ni 2.70225 9.05244 8.57803
Ni 6.3831 3.24986 3.97627
O 0.402314 4.41117 3.81671
O 4.13672 8.03748 8.65603
O 4.9171 2.26886 4.03924
O 1.27672 10.0708 8.72072
O 6.00161 4.33277 5.32217
O 2.26817 7.89846 9.85673
O -0.677834 2.37463 5.06357
O 3.1943 10.249 9.84434
N 3.47285 10.2008 7.27525
N -0.0274269 2.08338 2.52923
N 1.88152 7.85589 7.27229
N 5.63643 4.52525 2.75152
C 3.6681 11.4598 5.25226
C 0.213136 1.01645 9.83912
H 3.41761 11.4834 4.22274
H 6.09532 11.4265 9.78533
C 4.88717 12.0231 5.68267
C 1.54963 11.9807 0.903032
C 5.44453 11.5389 6.84427
C 2.00914 0.778349 2.13227
H 12.87 1.35667 7.4782
H 3.05319 0.644001 2.35475
C 1.47012 6.93382 5.07738
C 5.61397 5.74905 0.663911
H 1.62826 7.02818 4.02629
H 13.2238 7.4693 0.709695
C 2.32971 7.61321 5.99293
C 6.23351 4.83634 1.55562
C 2.88621 10.683 6.13818
C -0.401771 1.81323 1.23575
H 5.28656 1.66014 1.62957
C 4.77572 10.548 7.55703
C 1.18123 1.55351 2.991
H 5.29019 10.0632 8.36534
C 0.688886 7.27843 7.66933
C 4.48391 5.20914 3.12798
H 0.242757 7.56961 8.6047
C 0.0275045 6.31234 6.88013
C 3.90402 6.14245 2.27863
H 6.10339 6.58958 6.84108
H 3.02096 6.65845 2.57856
C 0.362395 6.18519 5.54082
C 4.41283 6.3864 1.0368
C 5.55728 1.50307 4.91776
C 1.9453 10.7738 9.63815
C -0.317178 5.17358 4.6254
C 3.49965 7.35831 9.59705
Ni 9.67092 9.22369 8.40308
Ni -0.986016 3.37416 3.63848
O 7.84204 4.21633 4.10597
O 11.0898 8.2053 8.51003
O 12.0779 2.30298 3.71335
O 8.21728 10.2158 8.52187
O 12.8903 4.67976 4.73973
O 9.12914 7.88902 9.49923
O 6.79859 1.98392 5.17032
O 9.99921 10.2406 9.83984
N 10.5342 10.5523 7.29266
N 7.11774 2.16642 2.58605
N 9.01603 8.23407 6.89143
N 12.8505 4.38585 2.0825
C 11.0912 11.3856 5.10478
C 6.93655 0.471991 0.887706
H 10.9807 11.2617 4.03381
H -0.0138198 0.924653 8.79674
C 12.051 0.650094 5.62569
C 8.3368 11.9072 0.888605
C 12.2576 0.609176 7.00381
C 9.09994 1.16263 1.63991
H 6.42158 11.8743 7.16956
H 10.1773 1.04904 1.64805
C 9.25969 6.15538 5.7333
C 12.7179 6.57174 1.03396
H 9.82696 5.55165 5.04218
H 5.86274 5.96075 9.15545
C 9.78025 7.41091 6.09381
C -1.00681 5.50278 1.58128
H 7.18104 4.39088 1.28889
C 10.1656 10.78 5.99542
C 6.35116 1.48127 1.68563
H 9.22382 10.4059 5.61983
H 13.1637 2.20526 0.843409
C 11.6898 11.1734 7.75666
C 8.47761 1.89721 2.6577
C 7.65678 8.04945 6.87995
C 11.5303 4.18431 1.71912
H 6.99589 8.80462 7.256
H 11.0675 3.22977 1.87711
C 7.12001 6.81028 6.58051
C 10.7496 5.20887 1.13222
H -0.823628 5.77708 7.28307
H 9.71446 5.0143 0.879561
C 7.88869 5.88562 5.91029
C 11.3306 6.42984 0.798529
C 12.6603 1.75038 4.78409
C 8.76851 10.7689 9.59132
C 7.22876 4.84294 5.09704
C 10.4053 7.41201 9.32899
S 1.17199 10.4015 5.79902
C 0.788434 10.0812 4.09432
H 0.326928 9.08996 3.97544
H 1.69982 10.1032 3.47333
H 0.0606723 10.8414 3.75485
S 1.92371 2.12493 4.49076
C 1.59933 2.01648 6.26546
H 2.5273 1.77772 6.81903
H 0.833499 1.27092 6.52286
H 1.22661 2.99344 6.62937
S 4.04067 7.8287 5.58833
C 4.54943 8.63975 4.0883
H 5.24369 7.97975 3.53634
H 3.67551 8.89437 3.45901
H 5.13818 9.54142 4.33116
S 3.451 4.65285 4.43942
C 3.56858 4.63817 6.23607
H 2.57376 4.83387 6.66684
H 4.25834 5.38975 6.63989
H 3.91253 3.64342 6.58033
S 12.79 10.2995 8.82854
C 12.8196 10.4249 1.15346
H -0.666162 10.4037 1.61247
H 12.2984 11.3626 1.42949
H 12.2635 9.55257 1.55027
S 9.25757 1.76831 4.22477
C 9.66763 2.77057 5.65415
H 10.0772 2.12317 6.44572
H 10.4361 3.51686 5.39391
H 8.78807 3.20309 6.14735
S 10.8436 8.12161 4.89834
C 12.4808 8.35239 5.48112
H 13.1346 7.85097 4.75501
H 12.567 7.92825 6.49311
H 12.7492 9.42015 5.51746
S 0.727989 5.49794 1.31187
C 1.05506 4.37281 9.49715
H 1.76353 4.89585 8.82934
H 0.186304 4.00963 8.91116
H 1.79621 3.52298 0.520731
