ITEM: TIMESTEP
0
ITEM: NUMBER OF ATOMS
140
ITEM: BOX BOUNDS xy xz yz pp pp pp
-2.4380775394443049e-01 1.3451284592755201e+01 0.0000000000000000e+00
0.0000000000000000e+00 1.0392058763611001e+01 -2.4380775394443049e-01
0.0000000000000000e+00 1.1006216712164800e+01 0.0000000000000000e+00
ITEM: ATOMS id type x y z
1 1 2.29507 9.04507 8.67871
2 1 5.93441 3.78872 3.20528
3 2 0.429321 4.45884 3.55559
4 2 3.76665 8.06546 8.82526
5 2 4.53067 2.69568 3.23701
6 2 0.828657 10.0291 8.81163
7 2 5.3315 4.84536 4.4703
8 2 1.85097 7.92067 9.94208
9 2 13.0089 2.28938 4.76128
10 2 2.74878 10.184 9.88776
11 3 3.03197 10.2067 7.34317
12 3 13.287 2.19003 2.15041
13 3 1.55624 7.85881 7.37604
14 3 5.2265 4.98538 1.85254
15 4 3.0665 0.717371 5.11184
16 4 13.1435 0.784289 0.184647
17 4 4.37442 1.25367 5.31244
18 4 0.820924 0.958421 10.9337
19 4 4.98881 0.993149 6.53665
20 4 1.81701 1.69643 0.842082
21 5 12.8732 0.835869 6.97821
22 4 1.70728 6.62332 5.31733
23 4 5.38517 6.75733 0.196392
24 5 11.512 5.00943 9.70815
25 4 2.26028 7.4902 6.28251
26 4 5.98548 5.91292 1.1726
27 5 3.25122 7.88357 6.15119
28 5 12.9335 3.7575 0.431022
29 4 2.36223 0.167445 6.21291
30 4 12.5432 1.40858 1.30293
31 5 1.33974 10.2397 6.08793
32 5 5.76389 3.46807 0.140121
33 4 4.321 0.251741 7.52558
34 4 1.18519 2.30044 1.94608
35 5 4.84987 10.3904 8.43408
36 5 1.79149 2.77357 2.69604
37 4 0.289769 7.36378 7.57117
38 4 3.90098 4.86162 1.54493
39 5 13.1928 7.63391 8.46223
40 5 3.27666 4.24348 2.14709
41 4 13.1483 6.48153 6.64475
42 4 3.29517 5.62373 0.546941
43 4 0.39419 6.0932 5.49386
44 4 3.78078 6.5898 10.8633
45 4 5.14374 2.03344 4.23558
46 4 1.5017 0.288648 9.77467
47 4 13.1918 5.13553 4.49383
48 4 3.10544 7.42941 9.80588
49 1 9.08083 8.72309 9.06625
50 1 12.4894 3.36761 3.45209
51 2 7.31907 4.83962 3.48359
52 2 10.4428 7.61364 9.19415
53 2 11.0875 2.30793 3.63426
54 2 7.71016 9.82367 9.19935
55 2 11.9746 4.56111 4.68538
56 2 8.48783 7.5818 10.2677
57 2 6.36228 2.5934 4.46583
58 2 9.62489 9.79663 10.3573
59 3 9.89 9.86221 7.78659
60 3 6.81662 2.73118 1.85523
61 3 8.32475 7.65768 7.67783
62 3 11.7061 4.43179 2.04724
63 4 9.76235 0.493516 5.64222
64 4 7.01493 2.05039 10.5775
65 5 12.2991 0.166208 10.5484
66 4 11.1166 0.914156 5.72499
67 4 8.16722 1.10253 0.0360121
68 4 11.8422 0.536746 6.86264
69 4 8.60738 1.21117 1.34103
70 5 6.01414 1.28589 6.69437
71 5 9.45752 0.641673 1.66046
72 4 8.52487 6.50226 5.57833
73 4 11.2037 5.10141 10.743
74 5 9.10705 6.32312 4.6961
75 5 5.71951 7.55268 10.756
76 4 9.09038 7.24199 6.62542
77 4 12.0916 4.34264 0.726666
78 5 10.1289 7.53433 6.56466
79 5 7.04332 6.00222 1.36962
80 4 9.14099 0.026619 6.80093
81 4 6.53244 2.81949 0.506651
82 5 8.07457 10.2552 6.797
83 5 11.4775 1.38097 1.40196
84 4 11.2313 10.1171 7.83763
85 4 7.97041 2.10009 2.21995
86 5 11.8283 9.66423 8.60553
87 5 8.42214 2.32376 3.17319
88 4 7.01768 7.26109 7.76864
89 4 10.6102 5.18505 2.34734
90 5 6.41892 7.59664 8.59828
91 5 10.1241 5.06493 3.29545
92 4 6.44761 6.41046 6.80062
93 4 10.1673 6.17155 1.46206
94 5 12.1565 6.09333 6.83896
95 4 7.18355 6.0932 5.63713
96 4 10.4938 6.04854 0.106264
97 4 11.7816 1.71765 4.62628
98 4 8.44449 0.0270638 10.1599
99 4 6.56329 5.40542 4.44545
100 4 9.67911 6.97097 10.1009
101 6 2.58756 0.196612 3.52723
102 7 1.02243 9.7484 3.43006
103 5 0.758581 9.59908 2.36693
104 5 1.08191 8.76692 3.92151
105 5 0.234212 10.3437 3.91736
106 6 3.56013 1.86594 0.632706
107 7 4.53512 0.404559 1.01416
108 5 3.88255 9.91464 1.15509
109 5 5.22191 0.186269 0.172112
110 5 5.13574 0.553026 1.9282
111 6 2.66028 6.26037 3.90787
112 7 3.80186 7.54144 3.40812
113 5 4.80949 7.12592 3.26732
114 5 3.46095 7.98734 2.45612
115 5 3.91373 8.32192 4.17345
116 6 1.58086 5.42975 0.271159
117 7 0.688157 6.75492 1.05778
118 5 13.416 7.17655 0.332872
119 5 1.38795 7.55147 1.37084
120 5 0.152241 6.38937 1.9486
121 6 9.15793 10.2459 4.14764
122 7 7.45789 9.71585 4.12854
123 5 6.8651 10.3228 4.82807
124 5 7.04444 9.83171 3.1071
125 5 7.38821 8.6537 4.41747
126 6 7.07637 2.5452 8.90052
127 7 8.35228 3.75821 8.66882
128 5 8.46369 3.97166 7.58622
129 5 8.07322 4.68945 9.20168
130 5 9.31223 3.36818 9.06517
131 6 4.80134 5.83738 7.02948
132 7 4.57268 4.58172 8.25202
133 5 4.70758 3.58953 7.78174
134 5 5.28905 4.74309 9.07939
135 5 3.53946 4.64466 8.64893
136 6 9.81157 7.7503 2.11172
137 7 11.3837 8.57714 2.22294
138 5 11.8415 8.6257 1.2166
139 5 12.0426 8.0212 2.92029
140 5 11.271 9.60942 2.59011
