ITEM: TIMESTEP
0
ITEM: NUMBER OF ATOMS
140
ITEM: BOX BOUNDS xy xz yz pp pp pp
-2.0927459306400650e-01 1.4488778982850199e+01 0.0000000000000000e+00
0.0000000000000000e+00 1.1617931305095100e+01 -2.0927459306400650e-01
0.0000000000000000e+00 9.4472857665451109e+00 0.0000000000000000e+00
ITEM: ATOMS id type x y z
1 1 2.70225 9.05244 8.57803
2 1 6.3831 3.24986 3.97627
3 2 0.402314 4.41117 3.81671
4 2 4.13672 8.03748 8.65603
5 2 4.9171 2.26886 4.03924
6 2 1.27672 10.0708 8.72072
7 2 6.00161 4.33277 5.32217
8 2 2.47744 7.89846 0.409444
9 2 13.8109 2.37463 5.06357
10 2 3.40357 10.249 0.397058
11 3 3.47285 10.2008 7.27525
12 3 -0.0274269 2.08338 2.52923
13 3 1.88152 7.85589 7.27229
14 3 5.63643 4.52525 2.75152
15 4 3.6681 11.4598 5.25226
16 4 0.422411 1.01645 0.391839
17 5 3.41761 11.4834 4.22274
18 5 6.3046 11.4265 0.338049
19 4 4.88717 0.405143 5.68267
20 4 1.54963 0.362744 0.903032
21 4 5.44453 11.5389 6.84427
22 4 2.00914 0.778349 2.13227
23 5 12.87 1.35667 7.4782
24 5 3.05319 0.644001 2.35475
25 4 1.47012 6.93382 5.07738
26 4 5.61397 5.74905 0.663911
27 5 1.62826 7.02818 4.02629
28 5 13.2238 7.4693 0.709695
29 4 2.32971 7.61321 5.99293
30 4 6.23351 4.83634 1.55562
31 4 2.88621 10.683 6.13818
32 4 14.087 1.81323 1.23575
33 5 5.28656 1.66014 1.62957
34 4 4.77572 10.548 7.55703
35 4 1.18123 1.55351 2.991
36 5 5.29019 10.0632 8.36534
37 4 0.688886 7.27843 7.66933
38 4 4.48391 5.20914 3.12798
39 5 0.242757 7.56961 8.6047
40 4 0.0275045 6.31234 6.88013
41 4 3.90402 6.14245 2.27863
42 5 6.10339 6.58958 6.84108
43 5 3.02096 6.65845 2.57856
44 4 0.362395 6.18519 5.54082
45 4 4.41283 6.3864 1.0368
46 4 5.55728 1.50307 4.91776
47 4 2.15457 10.7738 0.19086
48 4 14.1716 5.17358 4.6254
49 4 3.70892 7.35831 0.149767
50 1 9.67092 9.22369 8.40308
51 1 13.5028 3.37416 3.63848
52 2 7.84204 4.21633 4.10597
53 2 11.0898 8.2053 8.51003
54 2 12.0779 2.30298 3.71335
55 2 8.21728 10.2158 8.52187
56 2 12.8903 4.67976 4.73973
57 2 9.33841 7.88902 0.0519482
58 2 6.79859 1.98392 5.17032
59 2 10.2085 10.2406 0.392552
60 3 10.5342 10.5523 7.29266
61 3 7.11774 2.16642 2.58605
62 3 9.01603 8.23407 6.89143
63 3 12.8505 4.38585 2.0825
64 4 11.0912 11.3856 5.10478
65 4 6.93655 0.471991 0.887706
66 5 10.9807 11.2617 4.03381
67 5 -0.0138198 0.924653 8.79674
68 4 12.051 0.650094 5.62569
69 4 8.3368 0.289306 0.888605
70 4 12.2576 0.609176 7.00381
71 4 9.09994 1.16263 1.63991
72 5 6.42158 0.256394 7.16956
73 5 10.1773 1.04904 1.64805
74 4 9.25969 6.15538 5.7333
75 4 12.7179 6.57174 1.03396
76 5 9.82696 5.55165 5.04218
77 5 5.86274 5.96075 9.15545
78 4 9.78025 7.41091 6.09381
79 4 13.482 5.50278 1.58128
80 5 7.18104 4.39088 1.28889
81 4 10.1656 10.78 5.99542
82 4 6.35116 1.48127 1.68563
83 5 9.22382 10.4059 5.61983
84 5 13.1637 2.20526 0.843409
85 4 11.6898 11.1734 7.75666
86 4 8.47761 1.89721 2.6577
87 4 7.65678 8.04945 6.87995
88 4 11.5303 4.18431 1.71912
89 5 6.99589 8.80462 7.256
90 5 11.0675 3.22977 1.87711
91 4 7.12001 6.81028 6.58051
92 4 10.7496 5.20887 1.13222
93 5 13.6652 5.77708 7.28307
94 5 9.71446 5.0143 0.879561
95 4 7.88869 5.88562 5.91029
96 4 11.3306 6.42984 0.798529
97 4 12.6603 1.75038 4.78409
98 4 8.97778 10.7689 0.144038
99 4 7.22876 4.84294 5.09704
100 4 10.4053 7.41201 9.32899
101 6 1.17199 10.4015 5.79902
102 7 0.788434 10.0812 4.09432
103 5 0.326928 9.08996 3.97544
104 5 1.69982 10.1032 3.47333
105 5 0.0606723 10.8414 3.75485
106 6 1.92371 2.12493 4.49076
107 7 1.59933 2.01648 6.26546
108 5 2.5273 1.77772 6.81903
109 5 0.833499 1.27092 6.52286
110 5 1.22661 2.99344 6.62937
111 6 4.04067 7.8287 5.58833
112 7 4.54943 8.63975 4.0883
113 5 5.24369 7.97975 3.53634
114 5 3.67551 8.89437 3.45901
115 5 5.13818 9.54142 4.33116
116 6 3.451 4.65285 4.43942
117 7 3.56858 4.63817 6.23607
118 5 2.57376 4.83387 6.66684
119 5 4.25834 5.38975 6.63989
120 5 3.91253 3.64342 6.58033
121 6 12.79 10.2995 8.82854
122 7 12.8196 10.4249 1.15346
123 5 13.8226 10.4037 1.61247
124 5 12.2984 11.3626 1.42949
125 5 12.2635 9.55257 1.55027
126 6 9.25757 1.76831 4.22477
127 7 9.66763 2.77057 5.65415
128 5 10.0772 2.12317 6.44572
129 5 10.4361 3.51686 5.39391
130 5 8.78807 3.20309 6.14735
131 6 10.8436 8.12161 4.89834
132 7 12.4808 8.35239 5.48112
133 5 13.1346 7.85097 4.75501
134 5 12.567 7.92825 6.49311
135 5 12.7492 9.42015 5.51746
136 6 0.727989 5.49794 1.31187
137 7 1.26434 4.37281 0.0498679
138 5 1.76353 4.89585 8.82934
139 5 0.186304 4.00963 8.91116
140 5 1.79621 3.52298 0.520731
