/apps/openmpi/3.1_intel-19/bin/mpiexec
starting QE Mon Jun 8 19:29:11 PDT 2020

     Program PWSCF v.6.5 starts on  8Jun2020 at 19:29:13 

     This program is part of the open-source Quantum ESPRESSO suite
     for quantum simulation of materials; please cite
         "P. Giannozzi et al., J. Phys.:Condens. Matter 21 395502 (2009);
         "P. Giannozzi et al., J. Phys.:Condens. Matter 29 465901 (2017);
          URL http://www.quantum-espresso.org", 
     in publications or presentations arising from this work. More details at
     http://www.quantum-espresso.org/quote

     Parallel version (MPI), running on    16 processors

     MPI processes distributed on     1 nodes
     K-points division:     npool     =       2
     R & G space division:  proc/nbgrp/npool/nimage =       8
     Reading input from QE_input_scripts/pw.NiPyC2_pbesol-vc-relax.in

     Current dimensions of program PWSCF are:
     Max number of different atomic species (ntypx) = 10
     Max number of k-points (npk) =  40000
     Max angular momentum in pseudopotentials (lmaxx) =  3

     -------------------------------------------------
     Parameters for Dispersion (Grimme-D2) Correction:
     -------------------------------------------------
       atom      VdW radius       C_6     

        C          2.744         60.710
        H          1.892          4.857
        N          2.640         42.670
        Ni         2.952        374.666
        O          2.536         24.284

     gamma-point specific algorithms are used

     Subspace diagonalization in iterative solution of the eigenvalue problem:
     a serial algorithm will be used

     Message from routine setup:
     using ibrav=0 with symmetry is DISCOURAGED, use correct ibrav instead
 
     Parallelization info
     --------------------
     sticks:   dense  smooth     PW     G-vecs:    dense   smooth      PW
     Min        1113    1113    276                91690    91690   11450
     Max        1116    1116    278                91692    91692   11458
     Sum        8917    8917   2219               733525   733525   91637
 


     bravais-lattice index     =            0
     lattice parameter (alat)  =      11.8161  a.u.
     unit-cell volume          =    5429.3114 (a.u.)^3
     number of atoms/cell      =           54
     number of atomic types    =            5
     number of electrons       =       200.00 (up: 102.00, down:  98.00)
     number of Kohn-Sham states=          122
     kinetic-energy cutoff     =     100.0000  Ry
     charge density cutoff     =     400.0000  Ry
     convergence threshold     =      1.0E-06
     mixing beta               =       0.7000
     number of iterations used =            8  local-TF  mixing
     Exchange-correlation= PBESOL
                           (   1   4  10   8   0   0   0)
     nstep                     =          200


     celldm(1)=  11.816080  celldm(2)=   0.000000  celldm(3)=   0.000000
     celldm(4)=   0.000000  celldm(5)=   0.000000  celldm(6)=   0.000000

     crystal axes: (cart. coord. in units of alat)
               a(1) = (   1.000000   0.000000   0.000000 )  
               a(2) = (   0.000000   2.002847   0.000000 )  
               a(3) = (  -0.036399   0.000000   1.643149 )  

     reciprocal axes: (cart. coord. in units 2 pi/alat)
               b(1) = (  1.000000  0.000000  0.022152 )  
               b(2) = (  0.000000  0.499289  0.000000 )  
               b(3) = (  0.000000  0.000000  0.608588 )  


     PseudoPot. # 1 for C  read from file:
     ./pseudo/C.pbesol-nc.UPF
     MD5 check sum: ce26087537ded160c8d400e183a8bf42
     Pseudo is Norm-conserving, Zval =  4.0
     Generated using "atomic" code by A. Dal Corso v.6.5
     Using radial grid of 1073 points,  1 beta functions with: 
                l(1) =   1

     PseudoPot. # 2 for H  read from file:
     ./pseudo/H.pbesol-n-nc.UPF
     MD5 check sum: 7995ef24074557c85b430109caaacc09
     Pseudo is Norm-conserving, Zval =  1.0
     Generated using "atomic" code by A. Dal Corso v.6.5
     Using radial grid of  929 points,  0 beta functions with: 

     PseudoPot. # 3 for N  read from file:
     ./pseudo/N.pbesol-nc.UPF
     MD5 check sum: e18cc5e4b8a5600c1a19b30c2cab1ca0
     Pseudo is Norm-conserving, Zval =  5.0
     Generated using "atomic" code by A. Dal Corso v.6.5
     Using radial grid of 1085 points,  1 beta functions with: 
                l(1) =   1

     PseudoPot. # 4 for Ni read from file:
     ./pseudo/Ni.pbesol-n-nc.UPF
     MD5 check sum: 623411631e0c2eb7c0b2b9815547d2d9
     Pseudo is Norm-conserving + core correction, Zval = 10.0
     Generated using "atomic" code by A. Dal Corso v.6.5
     Using radial grid of 1195 points,  2 beta functions with: 
                l(1) =   1
                l(2) =   2

     PseudoPot. # 5 for O  read from file:
     ./pseudo/O.pbesol-nc.UPF
     MD5 check sum: 73d10e7e91dbfcbe8a7e362101007f84
     Pseudo is Norm-conserving, Zval =  6.0
     Generated using "atomic" code by A. Dal Corso v.6.5
     Using radial grid of 1095 points,  1 beta functions with: 
                l(1) =   1

     atomic species   valence    mass     pseudopotential
        C              4.00    12.01070     C ( 1.00)
        H              1.00     1.00794     H ( 1.00)
        N              5.00    14.00670     N ( 1.00)
        Ni            10.00    58.69340     Ni( 1.00)
        O              6.00    15.99940     O ( 1.00)

     Starting magnetic structure 
     atomic species   magnetization
        C            0.000
        H            0.000
        N            0.000
        Ni           0.250
        O            0.000

      2 Sym. Ops. (no inversion) found ( 1 have fractional translation)



   Cartesian axes

     site n.     atom                  positions (alat units)
         1           C   tau(   1) = (   0.5691129   1.9213309   0.8435924  )
         2           C   tau(   2) = (   0.7737740   1.9988410   0.8769484  )
         3           C   tau(   3) = (   0.8939722   1.9119175   1.0440566  )
         4           C   tau(   4) = (   0.3878954   1.0396777   0.8940371  )
         5           C   tau(   5) = (   0.4576709   1.2081171   1.0215454  )
         6           C   tau(   6) = (   0.4898428   1.7643077   0.9776734  )
         7           C   tau(   7) = (   0.8025222   1.7578986   1.1727151  )
         8           C   tau(   8) = (   0.1377615   1.2107208   1.2070569  )
         9           C   tau(   9) = (   0.0584822   1.0420812   1.0887502  )
        10           C   tau(  10) = (   0.1873493   0.9553579   0.9277216  )
        11           C   tau(  11) = (   0.8614386   0.1788542   0.7476326  )
        12           C   tau(  12) = (   0.1044740   0.7734994   0.7911760  )
        13           C   tau(  13) = (   0.0873123   0.0815159   0.0220182  )
        14           C   tau(  14) = (   0.2919734   0.0040057   0.0553741  )
        15           C   tau(  15) = (   0.4121716   0.0909292   0.2224823  )
        16           C   tau(  16) = (   0.9060948   0.9631690   0.0724628  )
        17           C   tau(  17) = (   0.9758703   0.7947296   0.1999712  )
        18           C   tau(  18) = (   0.0080421   0.2385390   0.1560991  )
        19           C   tau(  19) = (   0.3207216   0.2449482   0.3511408  )
        20           C   tau(  20) = (   0.6559609   0.7921259   0.3854826  )
        21           C   tau(  21) = (   0.5766816   0.9607656   0.2671759  )
        22           C   tau(  22) = (   0.7055486   1.0474888   0.1061474  )
        23           C   tau(  23) = (   0.3432392   1.8239925   1.5692068  )
        24           C   tau(  24) = (   0.5862746   1.2293473   1.6127503  )
        25           H   tau(  25) = (   0.4840353   1.9752074   0.7297223  )
        26           H   tau(  26) = (   0.0365226   1.9583835   1.0688681  )
        27           H   tau(  27) = (   0.4777087   0.9833977   0.7850964  )
        28           H   tau(  28) = (   0.5969732   1.2643971   0.9988700  )
        29           H   tau(  29) = (   0.3510215   1.7084283   0.9515473  )
        30           H   tau(  30) = (   0.8848144   1.6990149   1.2859280  )
        31           H   tau(  31) = (   0.0501555   1.2710065   1.3156690  )
        32           H   tau(  32) = (   0.9198816   0.9864020   1.1158622  )
        33           H   tau(  33) = (  -0.0341640   0.0276393   1.5512965  )
        34           H   tau(  34) = (   0.5547220   0.0444632   0.2472939  )
        35           H   tau(  35) = (   0.9595093   1.0194490   1.6066706  )
        36           H   tau(  36) = (   0.1151726   0.7384496   0.1772957  )
        37           H   tau(  37) = (   0.8692209   0.2944185   0.1299730  )
        38           H   tau(  38) = (   0.4030137   0.3038318   0.4643538  )
        39           H   tau(  39) = (   0.5683549   0.7318402   0.4940948  )
        40           H   tau(  40) = (   0.4380810   1.0164447   0.2942879  )
        41           N   tau(  41) = (   0.6025592   1.6881995   1.1439600  )
        42           N   tau(  42) = (   0.3350713   1.2940393   1.1750155  )
        43           N   tau(  43) = (   0.1207586   0.3146472   0.3223857  )
        44           N   tau(  44) = (   0.8532706   0.7088075   0.3534412  )
        45           Ni  tau(  45) = (   0.4642458   1.5100663   1.3793082  )
        46           Ni  tau(  46) = (   0.9824452   0.4927804   0.5577339  )
        47           O   tau(  47) = (   0.2269989   0.7002353   0.6455930  )
        48           O   tau(  48) = (   0.7414252   0.2665388   0.6082936  )
        49           O   tau(  49) = (   0.9187989   0.7054627   0.8171378  )
        50           O   tau(  50) = (   0.0492397   0.2399410   0.7791810  )
        51           O   tau(  51) = (   0.7087996   1.3026115   1.4671673  )
        52           O   tau(  52) = (   0.2232258   1.7363079   1.4298678  )
        53           O   tau(  53) = (   0.4005995   1.2973840   1.6387120  )
        54           O   tau(  54) = (   0.5310404   1.7629057   1.6007553  )

     number of k points=     1  Marzari-Vanderbilt smearing, width (Ry)=  0.2000
                       cart. coord. in units 2pi/alat
        k(    1) = (   0.0000000   0.0000000   0.0000000), wk =   1.0000000

     Dense  grid:   366763 G-vectors     FFT dimensions: (  80, 160, 128)

     Estimated max dynamical RAM per process >     177.24 MB

     Estimated total dynamical RAM >       2.77 GB
     Generating pointlists ...
     new r_m :   0.0626 (alat units)  0.7399 (a.u.) for type    1
     new r_m :   0.0626 (alat units)  0.7399 (a.u.) for type    2
     new r_m :   0.0882 (alat units)  1.0416 (a.u.) for type    3
     new r_m :   0.1337 (alat units)  1.5801 (a.u.) for type    4
     new r_m :   0.0823 (alat units)  0.9721 (a.u.) for type    5

     Check: negative core charge=   -0.000145

     Initial potential from superposition of free atoms

     starting charge  199.99835, renormalised to  200.00000
     Starting wfcs are  178 randomized atomic wfcs

     total cpu time spent up to now is       15.6 secs

     Self-consistent Calculation

     iteration #  1     ecut=   100.00 Ry     beta= 0.70
     Davidson diagonalization with overlap
     ethr =  1.00E-02,  avg # of iterations =  4.0

     total cpu time spent up to now is       32.0 secs

     total energy              =    -808.50725247 Ry
     Harris-Foulkes estimate   =    -813.53932633 Ry
     estimated scf accuracy    <      13.16674673 Ry

     total magnetization       =     4.00 Bohr mag/cell
     absolute magnetization    =     4.57 Bohr mag/cell

     iteration #  2     ecut=   100.00 Ry     beta= 0.70
     Davidson diagonalization with overlap
     ethr =  6.58E-03,  avg # of iterations =  2.0

     total cpu time spent up to now is       41.9 secs

     total energy              =    -810.77779697 Ry
     Harris-Foulkes estimate   =    -813.09967892 Ry
     estimated scf accuracy    <      10.77611234 Ry

     total magnetization       =     4.00 Bohr mag/cell
     absolute magnetization    =     4.10 Bohr mag/cell

     iteration #  3     ecut=   100.00 Ry     beta= 0.70
     Davidson diagonalization with overlap
     ethr =  5.39E-03,  avg # of iterations =  1.0

     total cpu time spent up to now is       51.3 secs

     total energy              =    -810.33136594 Ry
     Harris-Foulkes estimate   =    -811.13808831 Ry
     estimated scf accuracy    <       2.70852781 Ry

     total magnetization       =     4.00 Bohr mag/cell
     absolute magnetization    =     4.09 Bohr mag/cell

     iteration #  4     ecut=   100.00 Ry     beta= 0.70
     Davidson diagonalization with overlap
     ethr =  1.35E-03,  avg # of iterations =  5.0

     total cpu time spent up to now is       62.3 secs

     total energy              =    -810.36344041 Ry
     Harris-Foulkes estimate   =    -811.20874772 Ry
     estimated scf accuracy    <       7.22466560 Ry

     total magnetization       =     4.00 Bohr mag/cell
     absolute magnetization    =     4.12 Bohr mag/cell

     iteration #  5     ecut=   100.00 Ry     beta= 0.70
     Davidson diagonalization with overlap
     ethr =  1.35E-03,  avg # of iterations =  3.0

     total cpu time spent up to now is       72.0 secs

     total energy              =    -810.68070914 Ry
     Harris-Foulkes estimate   =    -810.72553251 Ry
     estimated scf accuracy    <       0.13145996 Ry

     total magnetization       =     4.00 Bohr mag/cell
     absolute magnetization    =     4.13 Bohr mag/cell

     iteration #  6     ecut=   100.00 Ry     beta= 0.70
     Davidson diagonalization with overlap
     ethr =  6.57E-05,  avg # of iterations =  7.0

     total cpu time spent up to now is       85.2 secs

     total energy              =    -810.62339611 Ry
     Harris-Foulkes estimate   =    -810.73009154 Ry
     estimated scf accuracy    <       0.73093796 Ry

     total magnetization       =     4.00 Bohr mag/cell
     absolute magnetization    =     4.12 Bohr mag/cell

     iteration #  7     ecut=   100.00 Ry     beta= 0.70
     Davidson diagonalization with overlap
     ethr =  6.57E-05,  avg # of iterations =  2.0

     total cpu time spent up to now is       95.1 secs

     total energy              =    -810.67718318 Ry
     Harris-Foulkes estimate   =    -810.68422118 Ry
     estimated scf accuracy    <       0.08311419 Ry

     total magnetization       =     4.00 Bohr mag/cell
     absolute magnetization    =     4.13 Bohr mag/cell

     iteration #  8     ecut=   100.00 Ry     beta= 0.70
     Davidson diagonalization with overlap
     ethr =  4.16E-05,  avg # of iterations =  2.0

     total cpu time spent up to now is      104.7 secs

     total energy              =    -810.67971788 Ry
     Harris-Foulkes estimate   =    -810.68110833 Ry
     estimated scf accuracy    <       0.02217613 Ry

     total magnetization       =     4.00 Bohr mag/cell
     absolute magnetization    =     4.12 Bohr mag/cell

     iteration #  9     ecut=   100.00 Ry     beta= 0.70
     Davidson diagonalization with overlap
     ethr =  1.11E-05,  avg # of iterations =  2.0

     total cpu time spent up to now is      114.4 secs

     total energy              =    -810.68251946 Ry
     Harris-Foulkes estimate   =    -810.68274877 Ry
     estimated scf accuracy    <       0.04134192 Ry

     total magnetization       =     4.00 Bohr mag/cell
     absolute magnetization    =     4.11 Bohr mag/cell

     iteration # 10     ecut=   100.00 Ry     beta= 0.70
     Davidson diagonalization with overlap
     ethr =  1.11E-05,  avg # of iterations =  1.5

     total cpu time spent up to now is      123.9 secs

     total energy              =    -810.68200558 Ry
     Harris-Foulkes estimate   =    -810.68458954 Ry
     estimated scf accuracy    <       0.03729910 Ry

     total magnetization       =     4.00 Bohr mag/cell
     absolute magnetization    =     4.11 Bohr mag/cell

     iteration # 11     ecut=   100.00 Ry     beta= 0.70
     Davidson diagonalization with overlap
     ethr =  1.11E-05,  avg # of iterations =  2.0

     total cpu time spent up to now is      133.5 secs

     total energy              =    -810.68446899 Ry
     Harris-Foulkes estimate   =    -810.68396848 Ry
     estimated scf accuracy    <       0.00136072 Ry

     total magnetization       =     4.00 Bohr mag/cell
     absolute magnetization    =     4.10 Bohr mag/cell

     iteration # 12     ecut=   100.00 Ry     beta= 0.70
     Davidson diagonalization with overlap
     ethr =  6.80E-07,  avg # of iterations =  3.5

     total cpu time spent up to now is      144.4 secs

     total energy              =    -810.68495459 Ry
     Harris-Foulkes estimate   =    -810.68455724 Ry
     estimated scf accuracy    <       0.00037625 Ry

     total magnetization       =     4.00 Bohr mag/cell
     absolute magnetization    =     4.10 Bohr mag/cell

     iteration # 13     ecut=   100.00 Ry     beta= 0.70
     Davidson diagonalization with overlap
     ethr =  1.88E-07,  avg # of iterations =  3.5

     total cpu time spent up to now is      154.7 secs

     total energy              =    -810.68505279 Ry
     Harris-Foulkes estimate   =    -810.68498569 Ry
     estimated scf accuracy    <       0.00010317 Ry

     total magnetization       =     4.00 Bohr mag/cell
     absolute magnetization    =     4.10 Bohr mag/cell

     iteration # 14     ecut=   100.00 Ry     beta= 0.70
     Davidson diagonalization with overlap
     ethr =  5.16E-08,  avg # of iterations =  3.0

     total cpu time spent up to now is      164.9 secs

     total energy              =    -810.68507490 Ry
     Harris-Foulkes estimate   =    -810.68506127 Ry
     estimated scf accuracy    <       0.00003107 Ry

     total magnetization       =     4.00 Bohr mag/cell
     absolute magnetization    =     4.10 Bohr mag/cell

     iteration # 15     ecut=   100.00 Ry     beta= 0.70
     Davidson diagonalization with overlap
     ethr =  1.55E-08,  avg # of iterations =  2.5

     total cpu time spent up to now is      174.7 secs

     total energy              =    -810.68508186 Ry
     Harris-Foulkes estimate   =    -810.68507693 Ry
     estimated scf accuracy    <       0.00001038 Ry

     total magnetization       =     4.00 Bohr mag/cell
     absolute magnetization    =     4.10 Bohr mag/cell

     iteration # 16     ecut=   100.00 Ry     beta= 0.70
     Davidson diagonalization with overlap
     ethr =  5.19E-09,  avg # of iterations =  3.0

     total cpu time spent up to now is      185.0 secs

     total energy              =    -810.68508371 Ry
     Harris-Foulkes estimate   =    -810.68508309 Ry
     estimated scf accuracy    <       0.00000362 Ry

     total magnetization       =     4.00 Bohr mag/cell
     absolute magnetization    =     4.10 Bohr mag/cell

     iteration # 17     ecut=   100.00 Ry     beta= 0.70
     Davidson diagonalization with overlap
     ethr =  1.81E-09,  avg # of iterations =  2.5

     total cpu time spent up to now is      194.6 secs

     total energy              =    -810.68508450 Ry
     Harris-Foulkes estimate   =    -810.68508403 Ry
     estimated scf accuracy    <       0.00000163 Ry

     total magnetization       =     4.00 Bohr mag/cell
     absolute magnetization    =     4.10 Bohr mag/cell

     iteration # 18     ecut=   100.00 Ry     beta= 0.70
     Davidson diagonalization with overlap
     ethr =  8.16E-10,  avg # of iterations =  3.0
 
     Magnetic moment per site:
     atom:    1    charge:    0.5996    magn:    0.0036    constr:    0.0000
     atom:    2    charge:    0.5739    magn:    0.0039    constr:    0.0000
     atom:    3    charge:    0.5986    magn:    0.0038    constr:    0.0000
     atom:    4    charge:    0.5997    magn:    0.0036    constr:    0.0000
     atom:    5    charge:    0.5922    magn:    0.0032    constr:    0.0000
     atom:    6    charge:    0.5928    magn:    0.0033    constr:    0.0000
     atom:    7    charge:    0.5943    magn:    0.0032    constr:    0.0000
     atom:    8    charge:    0.5913    magn:    0.0033    constr:    0.0000
     atom:    9    charge:    0.5983    magn:    0.0036    constr:    0.0000
     atom:   10    charge:    0.5741    magn:    0.0038    constr:    0.0000
     atom:   11    charge:    0.5593    magn:   -0.0013    constr:    0.0000
     atom:   12    charge:    0.5593    magn:   -0.0012    constr:    0.0000
     atom:   13    charge:    0.5996    magn:    0.0036    constr:    0.0000
     atom:   14    charge:    0.5739    magn:    0.0039    constr:    0.0000
     atom:   15    charge:    0.5986    magn:    0.0038    constr:    0.0000
     atom:   16    charge:    0.5997    magn:    0.0036    constr:    0.0000
     atom:   17    charge:    0.5922    magn:    0.0032    constr:    0.0000
     atom:   18    charge:    0.5928    magn:    0.0033    constr:    0.0000
     atom:   19    charge:    0.5943    magn:    0.0032    constr:    0.0000
     atom:   20    charge:    0.5913    magn:    0.0033    constr:    0.0000
     atom:   21    charge:    0.5983    magn:    0.0036    constr:    0.0000
     atom:   22    charge:    0.5741    magn:    0.0038    constr:    0.0000
     atom:   23    charge:    0.5593    magn:   -0.0013    constr:    0.0000
     atom:   24    charge:    0.5593    magn:   -0.0012    constr:    0.0000
     atom:   25    charge:    0.4556    magn:   -0.0007    constr:    0.0000
     atom:   26    charge:    0.4558    magn:   -0.0008    constr:    0.0000
     atom:   27    charge:    0.4560    magn:   -0.0007    constr:    0.0000
     atom:   28    charge:    0.4596    magn:   -0.0005    constr:    0.0000
     atom:   29    charge:    0.4599    magn:   -0.0006    constr:    0.0000
     atom:   30    charge:    0.4581    magn:   -0.0004    constr:    0.0000
     atom:   31    charge:    0.4575    magn:   -0.0004    constr:    0.0000
     atom:   32    charge:    0.4564    magn:   -0.0008    constr:    0.0000
     atom:   33    charge:    0.4556    magn:   -0.0007    constr:    0.0000
     atom:   34    charge:    0.4558    magn:   -0.0008    constr:    0.0000
     atom:   35    charge:    0.4560    magn:   -0.0007    constr:    0.0000
     atom:   36    charge:    0.4596    magn:   -0.0005    constr:    0.0000
     atom:   37    charge:    0.4599    magn:   -0.0006    constr:    0.0000
     atom:   38    charge:    0.4581    magn:   -0.0004    constr:    0.0000
     atom:   39    charge:    0.4575    magn:   -0.0004    constr:    0.0000
     atom:   40    charge:    0.4564    magn:   -0.0008    constr:    0.0000
     atom:   41    charge:    2.4101    magn:    0.0143    constr:    0.0000
     atom:   42    charge:    2.4045    magn:    0.0134    constr:    0.0000
     atom:   43    charge:    2.4101    magn:    0.0143    constr:    0.0000
     atom:   44    charge:    2.4045    magn:    0.0134    constr:    0.0000
     atom:   45    charge:    7.5196    magn:    1.2592    constr:    0.0000
     atom:   46    charge:    7.5197    magn:    1.2592    constr:    0.0000
     atom:   47    charge:    3.1202    magn:    0.0530    constr:    0.0000
     atom:   48    charge:    3.1191    magn:    0.0537    constr:    0.0000
     atom:   49    charge:    3.1289    magn:    0.0507    constr:    0.0000
     atom:   50    charge:    3.1269    magn:    0.0529    constr:    0.0000
     atom:   51    charge:    3.1202    magn:    0.0530    constr:    0.0000
     atom:   52    charge:    3.1192    magn:    0.0537    constr:    0.0000
     atom:   53    charge:    3.1289    magn:    0.0507    constr:    0.0000
     atom:   54    charge:    3.1269    magn:    0.0529    constr:    0.0000

     total cpu time spent up to now is      204.2 secs

     End of self-consistent calculation

 ------ SPIN UP ------------


          k = 0.0000 0.0000 0.0000 ( 45819 PWs)   bands (ev):

   -22.6626 -22.6602 -22.5621 -22.5601 -19.9634 -19.9632 -19.9426 -19.9415
   -19.4057 -19.3919 -19.2806 -19.2731 -15.5799 -15.5127 -15.5076 -15.4802
   -14.6077 -14.5712 -14.5675 -14.5233 -11.7736 -11.7226 -11.7004 -11.6696
   -11.4720 -11.4414 -11.4111 -11.3511  -9.9230  -9.6613  -9.6378  -9.5635
    -8.2611  -7.9885  -7.9538  -7.9427  -7.6995  -7.6732  -7.6188  -7.5382
    -7.2952  -7.1784  -7.0216  -6.9629  -6.9116  -6.7460  -6.7175  -6.6700
    -6.6459  -6.6008  -6.4457  -6.4198  -6.3922  -6.3558  -6.2638  -6.1170
    -6.1111  -6.0396  -5.9788  -5.9312  -5.7186  -5.5560  -5.3639  -5.1753
    -4.5706  -4.5031  -4.3575  -4.2964  -4.2698  -4.2683  -4.0708  -4.0586
    -3.7554  -3.4915  -3.3580  -3.2642  -3.2476  -3.2079  -3.1878  -3.1479
    -3.0602  -2.7330  -2.6332  -2.6135  -2.5106  -2.4869  -2.4703  -2.4117
    -2.3795  -2.3318  -2.3047  -2.2857  -2.2262  -2.1471  -2.1080  -2.0670
    -2.0170  -1.9174  -0.5977  -0.5761  -0.3400  -0.3186   2.0439   2.0600
     2.0985   2.1388   3.0297   3.1420   3.3181   3.4718   3.4789   4.2657
     4.5052   4.5691   4.7428   4.7770   4.9909   5.3650   5.7319   5.7848
     5.8128   6.1255

 ------ SPIN DOWN ----------


          k = 0.0000 0.0000 0.0000 ( 45819 PWs)   bands (ev):

   -22.5614 -22.5589 -22.4607 -22.4586 -19.8354 -19.8353 -19.8115 -19.8104
   -19.3723 -19.3581 -19.2483 -19.2406 -15.5409 -15.4742 -15.4692 -15.4407
   -14.5736 -14.5368 -14.5333 -14.4891 -11.7281 -11.6807 -11.6593 -11.6297
   -11.4452 -11.4139 -11.3839 -11.3243  -9.8930  -9.6335  -9.6092  -9.5310
    -8.1956  -7.9352  -7.8970  -7.8799  -7.6602  -7.6262  -7.5772  -7.5052
    -7.2673  -7.1435  -6.9836  -6.9249  -6.8035  -6.6506  -6.5969  -6.5473
    -6.5302  -6.5207  -6.3401  -6.2956  -6.2670  -6.2419  -6.1976  -6.0811
    -6.0305  -6.0120  -5.9406  -5.9095  -5.6503  -5.4792  -5.2883  -5.0985
    -4.4320  -4.3074  -4.2773  -4.2393  -4.2317  -3.9085  -3.6082  -3.5906
    -3.2464  -3.1437  -3.0651  -3.0201  -2.7984  -2.7454  -2.6787  -2.6592
    -2.6094  -2.4724  -2.4718  -2.3585  -2.3143  -2.2955  -2.2147  -2.1617
    -2.1480  -2.0099  -1.9811  -1.8290  -1.6058  -1.3711  -1.3588  -1.3315
    -1.3125  -1.2015   0.2521   0.2585   0.4493   0.4681   2.1330   2.1629
     2.2152   2.2285   3.1060   3.2192   3.3969   3.5128   3.5531   4.3118
     4.5517   4.6266   4.8011   4.8488   5.0410   5.4109   5.7748   5.8167
     5.8597   6.2011

     the spin up/dw Fermi energies are     0.0860   -0.2221 ev

!    total energy              =    -810.68508474 Ry
     Harris-Foulkes estimate   =    -810.68508463 Ry
     estimated scf accuracy    <       0.00000040 Ry

     The total energy is the sum of the following terms:

     one-electron contribution =   -1216.55166863 Ry
     hartree contribution      =     678.55145433 Ry
     xc contribution           =    -248.39580487 Ry
     ewald contribution        =     -25.36061178 Ry
     Dispersion Correction     =      -0.20316514 Ry
     smearing contrib. (-TS)   =       1.27471136 Ry

     total magnetization       =     4.00 Bohr mag/cell
     absolute magnetization    =     4.10 Bohr mag/cell

     convergence has been achieved in  18 iterations

     Forces acting on atoms (cartesian axes, Ry/au):

     atom    1 type  1   force =     0.15796099   -0.07213193    0.17035246
     atom    2 type  1   force =     0.01391558    0.01125353    0.01196400
     atom    3 type  1   force =    -0.23408253   -0.04747730   -0.07997766
     atom    4 type  1   force =    -0.15337547    0.08563727    0.17212984
     atom    5 type  1   force =    -0.22791582   -0.09350166    0.03091257
     atom    6 type  1   force =     0.22243719    0.08446999    0.04666350
     atom    7 type  1   force =    -0.13055384    0.08629640   -0.17394086
     atom    8 type  1   force =     0.15582490   -0.07922369   -0.16637434
     atom    9 type  1   force =     0.24668958    0.06767129   -0.07942944
     atom   10 type  1   force =    -0.03532856   -0.01946965    0.00227902
     atom   11 type  1   force =    -0.05027381   -0.07834252    0.03176788
     atom   12 type  1   force =     0.05973547    0.08214308    0.03957486
     atom   13 type  1   force =     0.15796099    0.07213193    0.17035246
     atom   14 type  1   force =     0.01391558   -0.01125353    0.01196400
     atom   15 type  1   force =    -0.23408253    0.04747730   -0.07997766
     atom   16 type  1   force =    -0.15337547   -0.08563727    0.17212984
     atom   17 type  1   force =    -0.22791582    0.09350166    0.03091257
     atom   18 type  1   force =     0.22243719   -0.08446999    0.04666350
     atom   19 type  1   force =    -0.13055384   -0.08629640   -0.17394086
     atom   20 type  1   force =     0.15582490    0.07922369   -0.16637434
     atom   21 type  1   force =     0.24668958   -0.06767129   -0.07942944
     atom   22 type  1   force =    -0.03532856    0.01946965    0.00227902
     atom   23 type  1   force =    -0.05027381    0.07834252    0.03176788
     atom   24 type  1   force =     0.05973547   -0.08214308    0.03957486
     atom   25 type  2   force =    -0.16203174    0.09373398   -0.20258596
     atom   26 type  2   force =     0.25824503    0.08084841    0.05552841
     atom   27 type  2   force =     0.17051869   -0.09723434   -0.19363735
     atom   28 type  2   force =     0.25376191    0.11236079   -0.03346562
     atom   29 type  2   force =    -0.25715477   -0.10842058   -0.03605798
     atom   30 type  2   force =     0.14209411   -0.11256900    0.21337450
     atom   31 type  2   force =    -0.15071478    0.11831310    0.20180946
     atom   32 type  2   force =    -0.25602033   -0.09668898    0.05748685
     atom   33 type  2   force =    -0.16203174   -0.09373398   -0.20258596
     atom   34 type  2   force =     0.25824503   -0.08084841    0.05552841
     atom   35 type  2   force =     0.17051869    0.09723434   -0.19363735
     atom   36 type  2   force =     0.25376191   -0.11236079   -0.03346562
     atom   37 type  2   force =    -0.25715477    0.10842058   -0.03605798
     atom   38 type  2   force =     0.14209411    0.11256900    0.21337450
     atom   39 type  2   force =    -0.15071478   -0.11831310    0.20180946
     atom   40 type  2   force =    -0.25602033    0.09668898    0.05748685
     atom   41 type  3   force =    -0.02023829   -0.01655831    0.01630032
     atom   42 type  3   force =    -0.00189011    0.00391141    0.01725516
     atom   43 type  3   force =    -0.02023829    0.01655831    0.01630032
     atom   44 type  3   force =    -0.00189011   -0.00391141    0.01725516
     atom   45 type  4   force =     0.00168072   -0.00832595   -0.02475134
     atom   46 type  4   force =     0.00168072    0.00832595   -0.02475134
     atom   47 type  5   force =    -0.01504445   -0.03655225   -0.02527380
     atom   48 type  5   force =     0.01628476    0.03974124   -0.02006214
     atom   49 type  5   force =    -0.04231045   -0.04443196   -0.01694587
     atom   50 type  5   force =     0.03778604    0.04781880   -0.01489645
     atom   51 type  5   force =    -0.01504445    0.03655225   -0.02527380
     atom   52 type  5   force =     0.01628476   -0.03974124   -0.02006214
     atom   53 type  5   force =    -0.04231045    0.04443196   -0.01694587
     atom   54 type  5   force =     0.03778604   -0.04781880   -0.01489645

     Total force =     1.513990     Total SCF correction =     0.001155


     Computing stress (Cartesian axis) and pressure

          total   stress  (Ry/bohr**3)                   (kbar)     P=       93.61
   0.00109750   0.00000000  -0.00000118          161.45        0.00       -0.17
   0.00000000   0.00027964   0.00000000            0.00       41.14        0.00
  -0.00000118   0.00000000   0.00053182           -0.17        0.00       78.23


     BFGS Geometry Optimization

     number of scf cycles    =   1
     number of bfgs steps    =   0

     enthalpy new            =    -810.6850847358 Ry

     new trust radius        =       0.4044292512 bohr
     new conv_thr            =       0.0000010000 Ry

     new unit-cell volume =   5691.99258 a.u.^3 (   843.46627 Ang^3 )
     density =      1.19263 g/cm^3

CELL_PARAMETERS (angstrom)
   6.424356905   0.000000000   0.000000000
   0.000000000  12.610950368   0.000000000
  -0.227594000   0.000000000  10.410947158

ATOMIC_POSITIONS (crystal)
C             0.6014876707        0.9562520597        0.5221740112
C             0.7944001105        0.9984755187        0.5343162061
C             0.8971395571        0.9525938431        0.6312807472
C             0.3950424617        0.5227186093        0.5529655551
C             0.4610693366        0.5992490805        0.6232921532
C             0.5304124382        0.8844692856        0.5974034059
C             0.8171250812        0.8813464609        0.7047411679
C             0.1773756245        0.6011523969        0.7260308820
C             0.1033285392        0.5231594553        0.6585089829
C             0.2049144007        0.4761773086        0.5647173812
C             0.8738048612        0.0859896311        0.4566362062
C             0.1271296304        0.3896709619        0.4835383050
C             0.1014876707        0.0437479403        0.0221740112
C             0.2944001105        0.0015244813        0.0343162061
C             0.3971395571        0.0474061569        0.1312807472
C             0.8950424617        0.4772813907        0.0529655551
C             0.9610693366        0.4007509195        0.1232921532
C             0.0304124382        0.1155307144        0.0974034059
C             0.3171250812        0.1186535391        0.2047411679
C             0.6773756245        0.3988476031        0.2260308820
C             0.6033285392        0.4768405447        0.1585089829
C             0.7049144007        0.5238226914        0.0647173812
C             0.3738048612        0.9140103689        0.9566362062
C             0.6271296304        0.6103290381        0.9835383050
H             0.4861073913        0.9901607365        0.4336658007
H             0.0821594908        0.9812162556        0.6533599932
H             0.5091680557        0.4868913558        0.4678266993
H             0.6405132435        0.6360478134        0.6061763519
H             0.3502692802        0.8484186800        0.5772428321
H             0.9257255037        0.8435433883        0.7935898632
H             0.0669232781        0.6395993290        0.8110942056
H             0.9230406591        0.4884143999        0.6820608626
H            -0.0138926087        0.0098392635        0.9336658007
H             0.5821594908        0.0187837444        0.1533599932
H             1.0091680557        0.5131086442        0.9678266993
H             0.1405132435        0.3639521866        0.1061763519
H             0.8502692802        0.1515813200        0.0772428321
H             0.4257255037        0.1564566117        0.2935898632
H             0.5669232781        0.3604006710        0.3110942056
H             0.4230406591        0.5115856001        0.1820608626
N             0.6262177827        0.8422003275        0.6970395486
N             0.3609723874        0.6462652768        0.7159887277
N             0.1262177827        0.1577996725        0.1970395486
N             0.8609723874        0.3537347232        0.2159887277
Ni            0.4948958382        0.7536081865        0.8381551811
Ni            0.9948958382        0.2463918135        0.3381551811
O             0.2399794000        0.3480754819        0.3915982720
O             0.7562405759        0.1347592691        0.3691666985
O             0.9332874792        0.3503525244        0.4964272021
O             0.0696699222        0.1218205871        0.4734327574
O             0.7399794000        0.6519245181        0.8915982720
O             0.2562405759        0.8652407309        0.8691666985
O             0.4332874792        0.6496474756        0.9964272021
O             0.5696699222        0.8781794129        0.9734327574



     Writing output data file ./QE_relaxation_results/PBESOL_vc-relax/NiPyC2_pbesol_vc-relax.save/
     NEW-OLD atomic charge density approx. for the potential
     NEW k-points:
   0.0000000   0.0000000   0.0000000   1.0000000
   0.0000000   0.0000000   0.0000000   1.0000000

     Check: negative core charge=   -0.000171
     extrapolated charge  209.22977, renormalised to  200.00000

     total cpu time spent up to now is      229.5 secs

     Self-consistent Calculation

     iteration #  1     ecut=   100.00 Ry     beta= 0.70
     Davidson diagonalization with overlap
     ethr =  1.00E-06,  avg # of iterations = 19.0

     total cpu time spent up to now is      322.9 secs

     total energy              =    -778.03942991 Ry
     Harris-Foulkes estimate   =    -764.25714581 Ry
     estimated scf accuracy    <      83.52202065 Ry

     total magnetization       =     4.00 Bohr mag/cell
     absolute magnetization    =     4.09 Bohr mag/cell

     iteration #  2     ecut=   100.00 Ry     beta= 0.70
     Davidson diagonalization with overlap
     ethr =  1.00E-02,  avg # of iterations =  5.5

     total cpu time spent up to now is      364.4 secs

     total energy              =    -814.58267806 Ry
     Harris-Foulkes estimate   =    -822.74775187 Ry
     estimated scf accuracy    <      35.44065947 Ry

     total magnetization       =     4.00 Bohr mag/cell
     absolute magnetization    =     4.11 Bohr mag/cell

     iteration #  3     ecut=   100.00 Ry     beta= 0.70
     Davidson diagonalization with overlap
     ethr =  1.00E-02,  avg # of iterations =  2.0

     total cpu time spent up to now is      381.4 secs

     total energy              =    -812.60581998 Ry
     Harris-Foulkes estimate   =    -815.39396026 Ry
     estimated scf accuracy    <      16.27089408 Ry

     total magnetization       =     4.00 Bohr mag/cell
     absolute magnetization    =     4.10 Bohr mag/cell

     iteration #  4     ecut=   100.00 Ry     beta= 0.70
     Davidson diagonalization with overlap
     ethr =  8.14E-03,  avg # of iterations =  1.0

     total cpu time spent up to now is      398.0 secs

     total energy              =    -809.16634581 Ry
     Harris-Foulkes estimate   =    -812.80678649 Ry
     estimated scf accuracy    <      10.80484161 Ry

     total magnetization       =     4.00 Bohr mag/cell
     absolute magnetization    =     4.13 Bohr mag/cell

     iteration #  5     ecut=   100.00 Ry     beta= 0.70
     Davidson diagonalization with overlap
     ethr =  5.40E-03,  avg # of iterations =  4.5

     total cpu time spent up to now is      416.1 secs

     total energy              =    -809.27565149 Ry
     Harris-Foulkes estimate   =    -811.00961069 Ry
     estimated scf accuracy    <      10.37983661 Ry

     total magnetization       =     4.00 Bohr mag/cell
     absolute magnetization    =     4.16 Bohr mag/cell

     iteration #  6     ecut=   100.00 Ry     beta= 0.70
     Davidson diagonalization with overlap
     ethr =  5.19E-03,  avg # of iterations =  1.0

     total cpu time spent up to now is      432.3 secs

     total energy              =    -810.48451373 Ry
     Harris-Foulkes estimate   =    -810.71416245 Ry
     estimated scf accuracy    <       4.24518989 Ry

     total magnetization       =     4.00 Bohr mag/cell
     absolute magnetization    =     4.14 Bohr mag/cell

     iteration #  7     ecut=   100.00 Ry     beta= 0.70
     Davidson diagonalization with overlap
     ethr =  2.12E-03,  avg # of iterations =  1.0

     total cpu time spent up to now is      448.5 secs

     total energy              =    -810.25291907 Ry
     Harris-Foulkes estimate   =    -810.52239684 Ry
     estimated scf accuracy    <       1.92409526 Ry

     total magnetization       =     4.00 Bohr mag/cell
     absolute magnetization    =     4.14 Bohr mag/cell

     iteration #  8     ecut=   100.00 Ry     beta= 0.70
     Davidson diagonalization with overlap
     ethr =  9.62E-04,  avg # of iterations =  3.0

     total cpu time spent up to now is      465.9 secs

     total energy              =    -810.40678728 Ry
     Harris-Foulkes estimate   =    -810.43219786 Ry
     estimated scf accuracy    <       0.52711059 Ry

     total magnetization       =     4.00 Bohr mag/cell
     absolute magnetization    =     4.14 Bohr mag/cell

     iteration #  9     ecut=   100.00 Ry     beta= 0.70
     Davidson diagonalization with overlap
     ethr =  2.64E-04,  avg # of iterations =  1.0

     total cpu time spent up to now is      482.4 secs

     total energy              =    -810.41218564 Ry
     Harris-Foulkes estimate   =    -810.41189044 Ry
     estimated scf accuracy    <       0.22425955 Ry

     total magnetization       =     4.00 Bohr mag/cell
     absolute magnetization    =     4.15 Bohr mag/cell

     iteration # 10     ecut=   100.00 Ry     beta= 0.70
     Davidson diagonalization with overlap
     ethr =  1.12E-04,  avg # of iterations =  1.0

     total cpu time spent up to now is      498.8 secs

     total energy              =    -810.27938687 Ry
     Harris-Foulkes estimate   =    -810.41621519 Ry
     estimated scf accuracy    <       0.39858908 Ry

     total magnetization       =     4.00 Bohr mag/cell
     absolute magnetization    =     4.14 Bohr mag/cell

     iteration # 11     ecut=   100.00 Ry     beta= 0.70
     Davidson diagonalization with overlap
     ethr =  1.12E-04,  avg # of iterations =  2.0

     total cpu time spent up to now is      518.1 secs

     total energy              =    -810.45974421 Ry
     Harris-Foulkes estimate   =    -810.51129378 Ry
     estimated scf accuracy    <       1.90677555 Ry

     total magnetization       =     4.00 Bohr mag/cell
     absolute magnetization    =     4.10 Bohr mag/cell

     iteration # 12     ecut=   100.00 Ry     beta= 0.70
     Davidson diagonalization with overlap
     ethr =  1.12E-04,  avg # of iterations =  1.0

     total cpu time spent up to now is      534.5 secs

     total energy              =    -810.34700640 Ry
     Harris-Foulkes estimate   =    -810.46485719 Ry
     estimated scf accuracy    <       1.23247427 Ry

     total magnetization       =     4.00 Bohr mag/cell
     absolute magnetization    =     4.10 Bohr mag/cell

     iteration # 13     ecut=   100.00 Ry     beta= 0.70
     Davidson diagonalization with overlap
     ethr =  1.12E-04,  avg # of iterations =  2.0

     total cpu time spent up to now is      544.3 secs

     total energy              =    -810.39382317 Ry
     Harris-Foulkes estimate   =    -810.39547735 Ry
     estimated scf accuracy    <       0.02384408 Ry

     total magnetization       =     4.00 Bohr mag/cell
     absolute magnetization    =     4.09 Bohr mag/cell

     iteration # 14     ecut=   100.00 Ry     beta= 0.70
     Davidson diagonalization with overlap
     ethr =  1.19E-05,  avg # of iterations =  5.0

     total cpu time spent up to now is      554.7 secs

     total energy              =    -810.39507241 Ry
     Harris-Foulkes estimate   =    -810.39512529 Ry
     estimated scf accuracy    <       0.00256271 Ry

     total magnetization       =     4.00 Bohr mag/cell
     absolute magnetization    =     4.07 Bohr mag/cell

     iteration # 15     ecut=   100.00 Ry     beta= 0.70
     Davidson diagonalization with overlap
     ethr =  1.28E-06,  avg # of iterations =  9.0

     total cpu time spent up to now is      567.3 secs

     total energy              =    -810.39513341 Ry
     Harris-Foulkes estimate   =    -810.39536345 Ry
     estimated scf accuracy    <       0.00358140 Ry

     total magnetization       =     4.00 Bohr mag/cell
     absolute magnetization    =     4.07 Bohr mag/cell

     iteration # 16     ecut=   100.00 Ry     beta= 0.70
     Davidson diagonalization with overlap
     ethr =  1.28E-06,  avg # of iterations =  1.5

     total cpu time spent up to now is      576.8 secs

     total energy              =    -810.39526240 Ry
     Harris-Foulkes estimate   =    -810.39525504 Ry
     estimated scf accuracy    <       0.00025483 Ry

     total magnetization       =     4.00 Bohr mag/cell
     absolute magnetization    =     4.07 Bohr mag/cell

     iteration # 17     ecut=   100.00 Ry     beta= 0.70
     Davidson diagonalization with overlap
     ethr =  1.27E-07,  avg # of iterations =  1.5

     total cpu time spent up to now is      586.3 secs

     total energy              =    -810.39529471 Ry
     Harris-Foulkes estimate   =    -810.39527700 Ry
     estimated scf accuracy    <       0.00004566 Ry

     total magnetization       =     4.00 Bohr mag/cell
     absolute magnetization    =     4.07 Bohr mag/cell

     iteration # 18     ecut=   100.00 Ry     beta= 0.70
     Davidson diagonalization with overlap
     ethr =  2.28E-08,  avg # of iterations =  2.5

     total cpu time spent up to now is      596.4 secs

     total energy              =    -810.39530627 Ry
     Harris-Foulkes estimate   =    -810.39530265 Ry
     estimated scf accuracy    <       0.00002959 Ry

     total magnetization       =     4.00 Bohr mag/cell
     absolute magnetization    =     4.07 Bohr mag/cell

     iteration # 19     ecut=   100.00 Ry     beta= 0.70
     Davidson diagonalization with overlap
     ethr =  1.48E-08,  avg # of iterations =  2.0

     total cpu time spent up to now is      605.9 secs

     total energy              =    -810.39531046 Ry
     Harris-Foulkes estimate   =    -810.39530932 Ry
     estimated scf accuracy    <       0.00000492 Ry

     total magnetization       =     4.00 Bohr mag/cell
     absolute magnetization    =     4.07 Bohr mag/cell

     iteration # 20     ecut=   100.00 Ry     beta= 0.70
     Davidson diagonalization with overlap
     ethr =  2.46E-09,  avg # of iterations =  3.0

     total cpu time spent up to now is      616.3 secs

     total energy              =    -810.39531258 Ry
     Harris-Foulkes estimate   =    -810.39531247 Ry
     estimated scf accuracy    <       0.00000336 Ry

     total magnetization       =     4.00 Bohr mag/cell
     absolute magnetization    =     4.07 Bohr mag/cell

     iteration # 21     ecut=   100.00 Ry     beta= 0.70
     Davidson diagonalization with overlap
     ethr =  1.68E-09,  avg # of iterations =  1.5
 
     Magnetic moment per site:
     atom:    1    charge:    0.5842    magn:    0.0039    constr:    0.0000
     atom:    2    charge:    0.6237    magn:    0.0036    constr:    0.0000
     atom:    3    charge:    0.5840    magn:    0.0036    constr:    0.0000
     atom:    4    charge:    0.5833    magn:    0.0039    constr:    0.0000
     atom:    5    charge:    0.5783    magn:    0.0029    constr:    0.0000
     atom:    6    charge:    0.5784    magn:    0.0030    constr:    0.0000
     atom:    7    charge:    0.5800    magn:    0.0038    constr:    0.0000
     atom:    8    charge:    0.5800    magn:    0.0036    constr:    0.0000
     atom:    9    charge:    0.5794    magn:    0.0035    constr:    0.0000
     atom:   10    charge:    0.6236    magn:    0.0037    constr:    0.0000
     atom:   11    charge:    0.5614    magn:   -0.0019    constr:    0.0000
     atom:   12    charge:    0.5609    magn:   -0.0018    constr:    0.0000
     atom:   13    charge:    0.5842    magn:    0.0039    constr:    0.0000
     atom:   14    charge:    0.6237    magn:    0.0036    constr:    0.0000
     atom:   15    charge:    0.5840    magn:    0.0036    constr:    0.0000
     atom:   16    charge:    0.5833    magn:    0.0039    constr:    0.0000
     atom:   17    charge:    0.5783    magn:    0.0029    constr:    0.0000
     atom:   18    charge:    0.5784    magn:    0.0030    constr:    0.0000
     atom:   19    charge:    0.5800    magn:    0.0038    constr:    0.0000
     atom:   20    charge:    0.5800    magn:    0.0036    constr:    0.0000
     atom:   21    charge:    0.5794    magn:    0.0035    constr:    0.0000
     atom:   22    charge:    0.6236    magn:    0.0037    constr:    0.0000
     atom:   23    charge:    0.5614    magn:   -0.0019    constr:    0.0000
     atom:   24    charge:    0.5609    magn:   -0.0018    constr:    0.0000
     atom:   25    charge:    0.3556    magn:    0.0013    constr:    0.0000
     atom:   26    charge:    0.3503    magn:    0.0016    constr:    0.0000
     atom:   27    charge:    0.3547    magn:    0.0014    constr:    0.0000
     atom:   28    charge:    0.3567    magn:    0.0017    constr:    0.0000
     atom:   29    charge:    0.3587    magn:    0.0016    constr:    0.0000
     atom:   30    charge:    0.3591    magn:    0.0020    constr:    0.0000
     atom:   31    charge:    0.3572    magn:    0.0019    constr:    0.0000
     atom:   32    charge:    0.3471    magn:    0.0016    constr:    0.0000
     atom:   33    charge:    0.3556    magn:    0.0013    constr:    0.0000
     atom:   34    charge:    0.3503    magn:    0.0016    constr:    0.0000
     atom:   35    charge:    0.3547    magn:    0.0014    constr:    0.0000
     atom:   36    charge:    0.3567    magn:    0.0017    constr:    0.0000
     atom:   37    charge:    0.3587    magn:    0.0016    constr:    0.0000
     atom:   38    charge:    0.3591    magn:    0.0020    constr:    0.0000
     atom:   39    charge:    0.3572    magn:    0.0019    constr:    0.0000
     atom:   40    charge:    0.3471    magn:    0.0016    constr:    0.0000
     atom:   41    charge:    2.5183    magn:    0.0147    constr:    0.0000
     atom:   42    charge:    2.5180    magn:    0.0144    constr:    0.0000
     atom:   43    charge:    2.5183    magn:    0.0147    constr:    0.0000
     atom:   44    charge:    2.5180    magn:    0.0144    constr:    0.0000
     atom:   45    charge:    7.5642    magn:    1.2451    constr:    0.0000
     atom:   46    charge:    7.5646    magn:    1.2453    constr:    0.0000
     atom:   47    charge:    3.1664    magn:    0.0490    constr:    0.0000
     atom:   48    charge:    3.1642    magn:    0.0506    constr:    0.0000
     atom:   49    charge:    3.1495    magn:    0.0601    constr:    0.0000
     atom:   50    charge:    3.1508    magn:    0.0605    constr:    0.0000
     atom:   51    charge:    3.1665    magn:    0.0490    constr:    0.0000
     atom:   52    charge:    3.1642    magn:    0.0506    constr:    0.0000
     atom:   53    charge:    3.1496    magn:    0.0601    constr:    0.0000
     atom:   54    charge:    3.1509    magn:    0.0605    constr:    0.0000

     total cpu time spent up to now is      625.3 secs

     End of self-consistent calculation

 ------ SPIN UP ------------


          k = 0.0000 0.0000 0.0000 ( 45819 PWs)   bands (ev):

   -22.1509 -22.1441 -22.0547 -22.0501 -20.4686 -20.4509 -20.3908 -20.3800
   -19.5914 -19.5903 -19.5700 -19.5690 -16.5943 -16.5360 -16.5347 -16.5103
   -14.5700 -14.5422 -14.5100 -14.4851 -12.6245 -12.5202 -12.4732 -12.4554
   -11.0084 -10.9888 -10.9577 -10.8978  -9.7545  -9.6348  -9.6121  -9.5136
    -8.6085  -8.3382  -8.2970  -8.2646  -8.2074  -8.1709  -7.9432  -7.8440
    -7.2499  -7.1935  -7.1263  -6.9838  -6.9328  -6.7413  -6.6922  -6.5215
    -6.4815  -6.4466  -6.4310  -6.3382  -6.2893  -6.0091  -5.7698  -5.5363
    -5.2850  -5.1309  -5.1234  -5.1220  -4.9957  -4.9185  -4.8587  -4.8047
    -4.7650  -4.6839  -4.5469  -4.4647  -4.0565  -4.0531  -4.0374  -3.8955
    -3.7726  -3.6455  -3.6341  -3.5848  -3.5514  -3.2609  -3.2165  -3.1114
    -3.0638  -3.0057  -2.9852  -2.9361  -2.8830  -2.8822  -2.8519  -2.7944
    -2.7019  -2.6586  -2.6007  -2.5606  -2.5432  -2.5275  -2.5095  -2.4578
    -2.4050  -2.3506  -1.0452  -0.9998  -0.8805  -0.8741   1.3131   1.3650
     1.3852   1.4579   2.9568   3.4897   3.6032   3.6990   3.7175   3.9047
     3.9364   4.0385   4.1144   4.2711   4.3569   4.6157   4.7195   4.9223
     5.0275   5.0718

 ------ SPIN DOWN ----------


          k = 0.0000 0.0000 0.0000 ( 45819 PWs)   bands (ev):

   -22.0473 -22.0400 -21.9522 -21.9473 -20.4360 -20.4176 -20.3578 -20.3463
   -19.4512 -19.4501 -19.4315 -19.4304 -16.5571 -16.4989 -16.4979 -16.4725
   -14.5315 -14.5037 -14.4705 -14.4456 -12.5848 -12.4817 -12.4357 -12.4153
   -10.9730 -10.9534 -10.9231 -10.8635  -9.7147  -9.5949  -9.5718  -9.4752
    -8.5521  -8.3020  -8.2565  -8.2245  -8.1656  -8.1064  -7.8706  -7.7638
    -7.1648  -7.0780  -6.9997  -6.8967  -6.8341  -6.6588  -6.6152  -6.4549
    -6.3509  -6.3377  -6.2877  -6.2543  -6.1602  -5.9080  -5.6756  -5.4491
    -5.2452  -5.0940  -5.0753  -5.0235  -4.9353  -4.8201  -4.7423  -4.7274
    -4.6951  -4.3388  -4.1237  -4.0602  -3.9291  -3.7049  -3.6903  -3.4904
    -3.3652  -3.3248  -3.2876  -3.0956  -3.0597  -3.0393  -2.9917  -2.9626
    -2.8743  -2.7986  -2.7618  -2.6598  -2.6402  -2.5807  -2.5527  -2.4623
    -2.4241  -2.3751  -2.3579  -2.2748  -2.0396  -1.7737  -1.7641  -1.7638
    -1.7527  -1.6429  -0.2286  -0.2111  -0.1044  -0.0671   1.4147   1.4498
     1.4993   1.5450   2.9870   3.5496   3.6583   3.7424   3.7755   3.9393
     4.0013   4.0912   4.1776   4.3158   4.4145   4.6561   4.7765   4.9549
     5.0734   5.0982

     the spin up/dw Fermi energies are    -0.4067   -0.6633 ev

!    total energy              =    -810.39531308 Ry
     Harris-Foulkes estimate   =    -810.39531304 Ry
     estimated scf accuracy    <       0.00000040 Ry

     The total energy is the sum of the following terms:

     one-electron contribution =   -1226.56290316 Ry
     hartree contribution      =     681.23950497 Ry
     xc contribution           =    -246.02524227 Ry
     ewald contribution        =     -20.33482206 Ry
     Dispersion Correction     =      -0.19104952 Ry
     smearing contrib. (-TS)   =       1.47919896 Ry

     total magnetization       =     4.00 Bohr mag/cell
     absolute magnetization    =     4.07 Bohr mag/cell

     convergence has been achieved in  21 iterations

     Forces acting on atoms (cartesian axes, Ry/au):

     atom    1 type  1   force =    -0.11128479    0.18929156   -0.29119176
     atom    2 type  1   force =     0.00037366    0.07072628   -0.06913784
     atom    3 type  1   force =     0.33439269    0.14538098    0.01838621
     atom    4 type  1   force =     0.10284690   -0.22477305   -0.28787403
     atom    5 type  1   force =     0.31959673    0.23166487    0.04620617
     atom    6 type  1   force =    -0.32593379   -0.20762547    0.03481792
     atom    7 type  1   force =     0.08452545   -0.20438616    0.28923553
     atom    8 type  1   force =    -0.11302312    0.21316910    0.27689625
     atom    9 type  1   force =    -0.32732993   -0.17287939    0.02365243
     atom   10 type  1   force =     0.02187374   -0.05798708   -0.07012094
     atom   11 type  1   force =     0.05226312    0.05973612   -0.03329089
     atom   12 type  1   force =    -0.05740356   -0.06168321   -0.04009123
     atom   13 type  1   force =    -0.11128479   -0.18929156   -0.29119176
     atom   14 type  1   force =     0.00037366   -0.07072628   -0.06913784
     atom   15 type  1   force =     0.33439269   -0.14538098    0.01838621
     atom   16 type  1   force =     0.10284690    0.22477305   -0.28787403
     atom   17 type  1   force =     0.31959673   -0.23166487    0.04620617
     atom   18 type  1   force =    -0.32593379    0.20762547    0.03481792
     atom   19 type  1   force =     0.08452545    0.20438616    0.28923553
     atom   20 type  1   force =    -0.11302312   -0.21316910    0.27689625
     atom   21 type  1   force =    -0.32732993    0.17287939    0.02365243
     atom   22 type  1   force =     0.02187374    0.05798708   -0.07012094
     atom   23 type  1   force =     0.05226312   -0.05973612   -0.03329089
     atom   24 type  1   force =    -0.05740356    0.06168321   -0.04009123
     atom   25 type  2   force =     0.07567651   -0.04615386    0.09958987
     atom   26 type  2   force =    -0.13017122   -0.04250791   -0.02108063
     atom   27 type  2   force =    -0.07764035    0.04955487    0.09526166
     atom   28 type  2   force =    -0.12483730   -0.05289719    0.01782513
     atom   29 type  2   force =     0.12185399    0.05382069    0.02221460
     atom   30 type  2   force =    -0.06680700    0.05164494   -0.09276787
     atom   31 type  2   force =     0.07231999   -0.04982643   -0.08817389
     atom   32 type  2   force =     0.12868032    0.05372283   -0.02336225
     atom   33 type  2   force =     0.07567651    0.04615386    0.09958987
     atom   34 type  2   force =    -0.13017122    0.04250791   -0.02108063
     atom   35 type  2   force =    -0.07764035   -0.04955487    0.09526166
     atom   36 type  2   force =    -0.12483730    0.05289719    0.01782513
     atom   37 type  2   force =     0.12185399   -0.05382069    0.02221460
     atom   38 type  2   force =    -0.06680700   -0.05164494   -0.09276787
     atom   39 type  2   force =     0.07231999    0.04982643   -0.08817389
     atom   40 type  2   force =     0.12868032   -0.05372283   -0.02336225
     atom   41 type  3   force =     0.00722500   -0.01487450    0.03334525
     atom   42 type  3   force =     0.00836542    0.02326634    0.02522490
     atom   43 type  3   force =     0.00722500    0.01487450    0.03334525
     atom   44 type  3   force =     0.00836542   -0.02326634    0.02522490
     atom   45 type  4   force =     0.00122326   -0.00896225   -0.00833018
     atom   46 type  4   force =     0.00122326    0.00896225   -0.00833018
     atom   47 type  5   force =    -0.07823519    0.01544071    0.05967262
     atom   48 type  5   force =     0.07944971   -0.01957622    0.05951715
     atom   49 type  5   force =     0.12780006    0.02456535   -0.03839743
     atom   50 type  5   force =    -0.12580030   -0.01471390   -0.03802675
     atom   51 type  5   force =    -0.07823519   -0.01544071    0.05967262
     atom   52 type  5   force =     0.07944971    0.01957622    0.05951715
     atom   53 type  5   force =     0.12780006   -0.02456535   -0.03839743
     atom   54 type  5   force =    -0.12580030    0.01471390   -0.03802675

     Total force =     1.649245     Total SCF correction =     0.001007


     Computing stress (Cartesian axis) and pressure

          total   stress  (Ry/bohr**3)                   (kbar)     P=       19.33
  -0.00007720   0.00000000  -0.00000740          -11.36        0.00       -1.09
   0.00000000   0.00025071   0.00000000            0.00       36.88        0.00
  -0.00000740   0.00000000   0.00022068           -1.09        0.00       32.46


     number of scf cycles    =   2
     number of bfgs steps    =   1

     enthalpy old            =    -810.6850847358 Ry
     enthalpy new            =    -810.3953130770 Ry

     CASE: enthalpy_new > enthalpy_old

     new trust radius        =       0.1806216930 bohr
     new conv_thr            =       0.0000010000 Ry

     new unit-cell volume =   5546.15511 a.u.^3 (   821.85538 Ang^3 )
     density =      1.22399 g/cm^3

CELL_PARAMETERS (angstrom)
   6.329683592   0.000000000   0.000000000
   0.000000000  12.562635884   0.000000000
  -0.227594000   0.000000000  10.335527126

ATOMIC_POSITIONS (crystal)
C             0.5939341588        0.9579340591        0.5173320918
C             0.7937378321        0.9982131047        0.5339761541
C             0.9081546851        0.9537009365        0.6335539481
C             0.4020274973        0.5207216875        0.5480731174
C             0.4716817373        0.6014293870        0.6224135268
C             0.5199756494        0.8824995829        0.5960770915
C             0.8234023059        0.8793341692        0.7096850803
C             0.1702702385        0.6029997645        0.7307597315
C             0.0918895390        0.5215814710        0.6607666020
C             0.2065619973        0.4766313091        0.5646526046
C             0.8761199396        0.0878164511        0.4557332693
C             0.1242988548        0.3877555190        0.4824134707
C             0.0939341588        0.0420659409        0.0173320918
C             0.2937378321        0.0017868953        0.0339761541
C             0.4081546851        0.0462990635        0.1335539481
C             0.9020274973        0.4792783125        0.0480731174
C             0.9716817373        0.3985706130        0.1224135268
C             0.0199756494        0.1175004171        0.0960770915
C             0.3234023059        0.1206658308        0.2096850803
C             0.6702702385        0.3970002355        0.2307597315
C             0.5918895390        0.4784185290        0.1607666020
C             0.7065619973        0.5233686909        0.0646526046
C             0.3761199396        0.9121835489        0.9557332693
C             0.6242988548        0.6122444810        0.9824134707
H             0.4938843674        0.9879750125        0.4394238914
H             0.0700411925        0.9793310022        0.6517817121
H             0.5014046291        0.4891587023        0.4733304441
H             0.6286963906        0.6334277427        0.6071275435
H             0.3623165165        0.8509468717        0.5782677062
H             0.9188685159        0.8461683144        0.7875251306
H             0.0737533457        0.6368404599        0.8053581853
H             0.9349381355        0.4906690296        0.6804269169
H            -0.0061156326        0.0120249875        0.9394238914
H             0.5700411925        0.0206689978        0.1517817121
H             1.0014046291        0.5108412977        0.9733304441
H             0.1286963906        0.3665722573        0.1071275435
H             0.8623165165        0.1490531283        0.0782677062
H             0.4188685159        0.1538316856        0.2875251306
H             0.5737533457        0.3631595401        0.3053581853
H             0.4349381355        0.5093309704        0.1804269169
N             0.6271461108        0.8425864403        0.6965762455
N             0.3610428101        0.6461740692        0.7154982852
N             0.1271461108        0.1574135597        0.1965762455
N             0.8610428101        0.3538259308        0.2154982852
Ni            0.4948429501        0.7538023340        0.8388586872
Ni            0.9948429501        0.2461976660        0.3388586872
O             0.2407081703        0.3489278209        0.3923166278
O             0.7555007819        0.1338325680        0.3697369237
O             0.9352810411        0.3513886053        0.4969088538
O             0.0679206074        0.1207055304        0.4738561586
O             0.7407081703        0.6510721791        0.8923166278
O             0.2555007819        0.8661674320        0.8697369237
O             0.4352810411        0.6486113947        0.9969088538
O             0.5679206074        0.8792944696        0.9738561586



     Writing output data file ./QE_relaxation_results/PBESOL_vc-relax/NiPyC2_pbesol_vc-relax.save/
     NEW-OLD atomic charge density approx. for the potential
     NEW k-points:
   0.0000000   0.0000000   0.0000000   1.0000000
   0.0000000   0.0000000   0.0000000   1.0000000

     Check: negative core charge=   -0.000157
     extrapolated charge  194.74100, renormalised to  200.00000

     total cpu time spent up to now is      647.0 secs

     Self-consistent Calculation

     iteration #  1     ecut=   100.00 Ry     beta= 0.70
     Davidson diagonalization with overlap
     c_bands:  2 eigenvalues not converged
     ethr =  1.00E-06,  avg # of iterations = 20.0

     total cpu time spent up to now is      691.6 secs

     total energy              =    -807.92643117 Ry
     Harris-Foulkes estimate   =    -840.67722169 Ry
     estimated scf accuracy    <       7.86454084 Ry

     total magnetization       =     4.00 Bohr mag/cell
     absolute magnetization    =     4.18 Bohr mag/cell

     iteration #  2     ecut=   100.00 Ry     beta= 0.70
     Davidson diagonalization with overlap
     ethr =  3.93E-03,  avg # of iterations =  3.5

     total cpu time spent up to now is      703.3 secs

     total energy              =    -808.67248713 Ry
     Harris-Foulkes estimate   =    -814.93824369 Ry
     estimated scf accuracy    <      61.84289221 Ry

     total magnetization       =     4.00 Bohr mag/cell
     absolute magnetization    =     4.23 Bohr mag/cell

     iteration #  3     ecut=   100.00 Ry     beta= 0.70
     Davidson diagonalization with overlap
     ethr =  3.93E-03,  avg # of iterations =  2.5

     total cpu time spent up to now is      713.6 secs

     total energy              =    -811.14154457 Ry
     Harris-Foulkes estimate   =    -811.32901676 Ry
     estimated scf accuracy    <       1.32453582 Ry

     total magnetization       =     4.00 Bohr mag/cell
     absolute magnetization    =     4.17 Bohr mag/cell

     iteration #  4     ecut=   100.00 Ry     beta= 0.70
     Davidson diagonalization with overlap
     ethr =  6.62E-04,  avg # of iterations =  1.0

     total cpu time spent up to now is      723.0 secs

     total energy              =    -811.11086701 Ry
     Harris-Foulkes estimate   =    -811.20506347 Ry
     estimated scf accuracy    <       1.26875742 Ry

     total magnetization       =     4.00 Bohr mag/cell
     absolute magnetization    =     4.16 Bohr mag/cell

     iteration #  5     ecut=   100.00 Ry     beta= 0.70
     Davidson diagonalization with overlap
     ethr =  6.34E-04,  avg # of iterations =  1.0

     total cpu time spent up to now is      732.4 secs

     total energy              =    -811.10852945 Ry
     Harris-Foulkes estimate   =    -811.13673694 Ry
     estimated scf accuracy    <       0.29742565 Ry

     total magnetization       =     4.00 Bohr mag/cell
     absolute magnetization    =     4.15 Bohr mag/cell

     iteration #  6     ecut=   100.00 Ry     beta= 0.70
     Davidson diagonalization with overlap
     ethr =  1.49E-04,  avg # of iterations =  1.0

     total cpu time spent up to now is      741.7 secs

     total energy              =    -811.11099386 Ry
     Harris-Foulkes estimate   =    -811.11766464 Ry
     estimated scf accuracy    <       0.10240873 Ry

     total magnetization       =     4.00 Bohr mag/cell
     absolute magnetization    =     4.14 Bohr mag/cell

     iteration #  7     ecut=   100.00 Ry     beta= 0.70
     Davidson diagonalization with overlap
     ethr =  5.12E-05,  avg # of iterations =  3.5

     total cpu time spent up to now is      751.7 secs

     total energy              =    -811.11150752 Ry
     Harris-Foulkes estimate   =    -811.11491059 Ry
     estimated scf accuracy    <       0.06033209 Ry

     total magnetization       =     4.00 Bohr mag/cell
     absolute magnetization    =     4.12 Bohr mag/cell

     iteration #  8     ecut=   100.00 Ry     beta= 0.70
     Davidson diagonalization with overlap
     ethr =  3.02E-05,  avg # of iterations =  3.0

     total cpu time spent up to now is      761.4 secs

     total energy              =    -811.11233038 Ry
     Harris-Foulkes estimate   =    -811.11324741 Ry
     estimated scf accuracy    <       0.01373458 Ry

     total magnetization       =     4.00 Bohr mag/cell
     absolute magnetization    =     4.12 Bohr mag/cell

     iteration #  9     ecut=   100.00 Ry     beta= 0.70
     Davidson diagonalization with overlap
     ethr =  6.87E-06,  avg # of iterations =  3.0

     total cpu time spent up to now is      771.4 secs

     total energy              =    -811.11256095 Ry
     Harris-Foulkes estimate   =    -811.11287504 Ry
     estimated scf accuracy    <       0.00401183 Ry

     total magnetization       =     4.00 Bohr mag/cell
     absolute magnetization    =     4.10 Bohr mag/cell

     iteration # 10     ecut=   100.00 Ry     beta= 0.70
     Davidson diagonalization with overlap
     ethr =  2.01E-06,  avg # of iterations =  3.0

     total cpu time spent up to now is      781.3 secs

     total energy              =    -811.11265030 Ry
     Harris-Foulkes estimate   =    -811.11276566 Ry
     estimated scf accuracy    <       0.00082595 Ry

     total magnetization       =     4.00 Bohr mag/cell
     absolute magnetization    =     4.10 Bohr mag/cell

     iteration # 11     ecut=   100.00 Ry     beta= 0.70
     Davidson diagonalization with overlap
     ethr =  4.13E-07,  avg # of iterations =  3.0

     total cpu time spent up to now is      791.9 secs

     total energy              =    -811.11275949 Ry
     Harris-Foulkes estimate   =    -811.11275865 Ry
     estimated scf accuracy    <       0.00002569 Ry

     total magnetization       =     4.00 Bohr mag/cell
     absolute magnetization    =     4.09 Bohr mag/cell

     iteration # 12     ecut=   100.00 Ry     beta= 0.70
     Davidson diagonalization with overlap
     ethr =  1.28E-08,  avg # of iterations =  3.5

     total cpu time spent up to now is      807.3 secs

     total energy              =    -811.11277010 Ry
     Harris-Foulkes estimate   =    -811.11276955 Ry
     estimated scf accuracy    <       0.00001412 Ry

     total magnetization       =     4.00 Bohr mag/cell
     absolute magnetization    =     4.08 Bohr mag/cell

     iteration # 13     ecut=   100.00 Ry     beta= 0.70
     Davidson diagonalization with overlap
     ethr =  7.06E-09,  avg # of iterations =  1.5

     total cpu time spent up to now is      816.9 secs

     total energy              =    -811.11277038 Ry
     Harris-Foulkes estimate   =    -811.11277079 Ry
     estimated scf accuracy    <       0.00000693 Ry

     total magnetization       =     4.00 Bohr mag/cell
     absolute magnetization    =     4.08 Bohr mag/cell

     iteration # 14     ecut=   100.00 Ry     beta= 0.70
     Davidson diagonalization with overlap
     ethr =  3.46E-09,  avg # of iterations =  2.0

     total cpu time spent up to now is      826.8 secs

     total energy              =    -811.11277061 Ry
     Harris-Foulkes estimate   =    -811.11277079 Ry
     estimated scf accuracy    <       0.00000288 Ry

     total magnetization       =     4.00 Bohr mag/cell
     absolute magnetization    =     4.08 Bohr mag/cell

     iteration # 15     ecut=   100.00 Ry     beta= 0.70
     Davidson diagonalization with overlap
     ethr =  1.44E-09,  avg # of iterations =  1.5

     total cpu time spent up to now is      837.1 secs

     total energy              =    -811.11277063 Ry
     Harris-Foulkes estimate   =    -811.11277074 Ry
     estimated scf accuracy    <       0.00000145 Ry

     total magnetization       =     4.00 Bohr mag/cell
     absolute magnetization    =     4.08 Bohr mag/cell

     iteration # 16     ecut=   100.00 Ry     beta= 0.70
     Davidson diagonalization with overlap
     ethr =  7.26E-10,  avg # of iterations =  2.5
 
     Magnetic moment per site:
     atom:    1    charge:    0.5972    magn:    0.0038    constr:    0.0000
     atom:    2    charge:    0.5962    magn:    0.0038    constr:    0.0000
     atom:    3    charge:    0.5972    magn:    0.0038    constr:    0.0000
     atom:    4    charge:    0.5969    magn:    0.0038    constr:    0.0000
     atom:    5    charge:    0.5908    magn:    0.0030    constr:    0.0000
     atom:    6    charge:    0.5911    magn:    0.0030    constr:    0.0000
     atom:    7    charge:    0.5923    magn:    0.0033    constr:    0.0000
     atom:    8    charge:    0.5911    magn:    0.0033    constr:    0.0000
     atom:    9    charge:    0.5957    magn:    0.0036    constr:    0.0000
     atom:   10    charge:    0.5965    magn:    0.0037    constr:    0.0000
     atom:   11    charge:    0.5608    magn:   -0.0017    constr:    0.0000
     atom:   12    charge:    0.5607    magn:   -0.0016    constr:    0.0000
     atom:   13    charge:    0.5972    magn:    0.0038    constr:    0.0000
     atom:   14    charge:    0.5962    magn:    0.0038    constr:    0.0000
     atom:   15    charge:    0.5972    magn:    0.0038    constr:    0.0000
     atom:   16    charge:    0.5969    magn:    0.0038    constr:    0.0000
     atom:   17    charge:    0.5908    magn:    0.0030    constr:    0.0000
     atom:   18    charge:    0.5911    magn:    0.0030    constr:    0.0000
     atom:   19    charge:    0.5923    magn:    0.0033    constr:    0.0000
     atom:   20    charge:    0.5911    magn:    0.0033    constr:    0.0000
     atom:   21    charge:    0.5957    magn:    0.0036    constr:    0.0000
     atom:   22    charge:    0.5965    magn:    0.0037    constr:    0.0000
     atom:   23    charge:    0.5608    magn:   -0.0017    constr:    0.0000
     atom:   24    charge:    0.5607    magn:   -0.0016    constr:    0.0000
     atom:   25    charge:    0.4111    magn:   -0.0003    constr:    0.0000
     atom:   26    charge:    0.4086    magn:   -0.0003    constr:    0.0000
     atom:   27    charge:    0.4111    magn:   -0.0003    constr:    0.0000
     atom:   28    charge:    0.4134    magn:   -0.0002    constr:    0.0000
     atom:   29    charge:    0.4147    magn:   -0.0003    constr:    0.0000
     atom:   30    charge:    0.4148    magn:    0.0002    constr:    0.0000
     atom:   31    charge:    0.4134    magn:    0.0001    constr:    0.0000
     atom:   32    charge:    0.4070    magn:   -0.0003    constr:    0.0000
     atom:   33    charge:    0.4111    magn:   -0.0003    constr:    0.0000
     atom:   34    charge:    0.4086    magn:   -0.0003    constr:    0.0000
     atom:   35    charge:    0.4111    magn:   -0.0003    constr:    0.0000
     atom:   36    charge:    0.4134    magn:   -0.0002    constr:    0.0000
     atom:   37    charge:    0.4147    magn:   -0.0003    constr:    0.0000
     atom:   38    charge:    0.4148    magn:    0.0002    constr:    0.0000
     atom:   39    charge:    0.4134    magn:    0.0001    constr:    0.0000
     atom:   40    charge:    0.4070    magn:   -0.0003    constr:    0.0000
     atom:   41    charge:    2.4602    magn:    0.0143    constr:    0.0000
     atom:   42    charge:    2.4565    magn:    0.0138    constr:    0.0000
     atom:   43    charge:    2.4602    magn:    0.0143    constr:    0.0000
     atom:   44    charge:    2.4565    magn:    0.0138    constr:    0.0000
     atom:   45    charge:    7.5382    magn:    1.2592    constr:    0.0000
     atom:   46    charge:    7.5379    magn:    1.2592    constr:    0.0000
     atom:   47    charge:    3.1421    magn:    0.0524    constr:    0.0000
     atom:   48    charge:    3.1405    magn:    0.0535    constr:    0.0000
     atom:   49    charge:    3.1394    magn:    0.0559    constr:    0.0000
     atom:   50    charge:    3.1391    magn:    0.0573    constr:    0.0000
     atom:   51    charge:    3.1420    magn:    0.0524    constr:    0.0000
     atom:   52    charge:    3.1404    magn:    0.0535    constr:    0.0000
     atom:   53    charge:    3.1393    magn:    0.0559    constr:    0.0000
     atom:   54    charge:    3.1390    magn:    0.0573    constr:    0.0000

     total cpu time spent up to now is      855.6 secs

     End of self-consistent calculation

 ------ SPIN UP ------------


          k = 0.0000 0.0000 0.0000 ( 45819 PWs)   bands (ev):

   -22.4444 -22.4409 -22.3478 -22.3453 -19.8258 -19.8169 -19.8028 -19.8024
   -19.8019 -19.7952 -19.7311 -19.7226 -15.9609 -15.8971 -15.8942 -15.8695
   -14.4928 -14.4605 -14.4585 -14.4230 -12.0622 -11.9555 -11.9383 -11.9215
   -11.1505 -11.1298 -11.1031 -11.0454  -9.6904  -9.4934  -9.4547  -9.3859
    -8.4678  -8.0683  -7.9978  -7.9326  -7.8658  -7.8460  -7.7771  -7.7676
    -7.0570  -6.9369  -6.8941  -6.7889  -6.7505  -6.6205  -6.5020  -6.4842
    -6.4116  -6.4066  -6.2800  -6.2128  -6.1716  -6.1172  -6.0561  -6.0324
    -5.9727  -5.8404  -5.6894  -5.5707  -5.4816  -5.3651  -5.3606  -5.3439
    -4.7991  -4.7230  -4.3295  -4.3277  -3.9125  -3.7573  -3.7308  -3.7060
    -3.6741  -3.6580  -3.6054  -3.5252  -3.4727  -3.4429  -3.4035  -3.3795
    -3.2709  -2.9609  -2.8550  -2.7458  -2.7206  -2.7066  -2.6855  -2.6290
    -2.5416  -2.5133  -2.4723  -2.4627  -2.3884  -2.3707  -2.3364  -2.2348
    -2.1923  -2.1004  -0.8342  -0.7956  -0.6014  -0.5923   1.7596   1.7718
     1.8039   1.8625   3.2438   3.3289   3.3717   3.5289   3.6954   4.0460
     4.2786   4.3414   4.4834   4.5351   4.7712   5.1194   5.4184   5.5091
     5.5599   5.6739

 ------ SPIN DOWN ----------


          k = 0.0000 0.0000 0.0000 ( 45819 PWs)   bands (ev):

   -22.3394 -22.3358 -22.2435 -22.2407 -19.7856 -19.7701 -19.6992 -19.6932
   -19.6747 -19.6742 -19.6656 -19.6626 -15.9219 -15.8586 -15.8556 -15.8300
   -14.4566 -14.4241 -14.4218 -14.3863 -12.0169 -11.9137 -11.8939 -11.8804
   -11.1201 -11.0995 -11.0735 -11.0163  -9.6580  -9.4620  -9.4246  -9.3543
    -8.4042  -7.9979  -7.9526  -7.8799  -7.8031  -7.8022  -7.7307  -7.7047
    -6.9357  -6.8441  -6.7535  -6.6819  -6.6590  -6.5018  -6.4027  -6.3799
    -6.3138  -6.2702  -6.2006  -6.1385  -6.1022  -6.0870  -6.0148  -6.0071
    -5.9124  -5.7607  -5.6524  -5.5461  -5.4250  -5.3457  -5.3275  -5.2807
    -4.6584  -4.1422  -3.8752  -3.8498  -3.6915  -3.6413  -3.6372  -3.5994
    -3.5562  -3.3359  -3.3116  -3.3032  -2.9832  -2.9827  -2.8933  -2.8831
    -2.8084  -2.6796  -2.5896  -2.5775  -2.5457  -2.4990  -2.3531  -2.2944
    -2.2811  -2.1806  -2.1518  -2.0162  -1.8322  -1.5808  -1.5755  -1.5581
    -1.5430  -1.4300   0.0082   0.0164   0.1792   0.2061   1.8589   1.8608
     1.9205   1.9516   3.3019   3.3702   3.4426   3.6016   3.7707   4.0871
     4.3236   4.3962   4.5527   4.5876   4.8179   5.1605   5.4673   5.5356
     5.6076   5.7276

     the spin up/dw Fermi energies are    -0.1757   -0.4624 ev

!    total energy              =    -811.11277073 Ry
     Harris-Foulkes estimate   =    -811.11277089 Ry
     estimated scf accuracy    <       0.00000056 Ry

     The total energy is the sum of the following terms:

     one-electron contribution =   -1219.22300891 Ry
     hartree contribution      =     678.93127590 Ry
     xc contribution           =    -247.19763232 Ry
     ewald contribution        =     -24.85211126 Ry
     Dispersion Correction     =      -0.19675600 Ry
     smearing contrib. (-TS)   =       1.42546186 Ry

     total magnetization       =     4.00 Bohr mag/cell
     absolute magnetization    =     4.08 Bohr mag/cell

     convergence has been achieved in  16 iterations

     Forces acting on atoms (cartesian axes, Ry/au):

     atom    1 type  1   force =    -0.00963903    0.07511046   -0.09925765
     atom    2 type  1   force =     0.00660578    0.03086707   -0.01699348
     atom    3 type  1   force =     0.10503345    0.07156560   -0.02576370
     atom    4 type  1   force =     0.01435189   -0.08103990   -0.09279599
     atom    5 type  1   force =     0.10007434    0.08217335    0.01972218
     atom    6 type  1   force =    -0.10655760   -0.08001746    0.02402470
     atom    7 type  1   force =     0.01166169   -0.07914760    0.09920985
     atom    8 type  1   force =    -0.01281469    0.08930737    0.09604479
     atom    9 type  1   force =    -0.09706762   -0.08077750   -0.02076407
     atom   10 type  1   force =    -0.00962797   -0.02990543   -0.02354588
     atom   11 type  1   force =     0.00427072   -0.01435632    0.00484774
     atom   12 type  1   force =    -0.00308577    0.01541243    0.00684849
     atom   13 type  1   force =    -0.00963903   -0.07511046   -0.09925765
     atom   14 type  1   force =     0.00660578   -0.03086707   -0.01699348
     atom   15 type  1   force =     0.10503345   -0.07156560   -0.02576370
     atom   16 type  1   force =     0.01435189    0.08103990   -0.09279599
     atom   17 type  1   force =     0.10007434   -0.08217335    0.01972218
     atom   18 type  1   force =    -0.10655760    0.08001746    0.02402470
     atom   19 type  1   force =     0.01166169    0.07914760    0.09920985
     atom   20 type  1   force =    -0.01281469   -0.08930737    0.09604479
     atom   21 type  1   force =    -0.09706762    0.08077750   -0.02076407
     atom   22 type  1   force =    -0.00962797    0.02990543   -0.02354588
     atom   23 type  1   force =     0.00427072    0.01435632    0.00484774
     atom   24 type  1   force =    -0.00308577   -0.01541243    0.00684849
     atom   25 type  2   force =    -0.00970790   -0.00065876   -0.00249577
     atom   26 type  2   force =     0.00011515   -0.00416076    0.00796037
     atom   27 type  2   force =     0.00998787    0.00224744   -0.00136168
     atom   28 type  2   force =     0.00191378    0.00294309    0.00233246
[...]

     iteration # 10     ecut=   100.00 Ry     beta= 0.70
     Davidson diagonalization with overlap
     ethr =  8.97E-06,  avg # of iterations =  2.0

     total cpu time spent up to now is    18305.0 secs

     total energy              =    -811.24663824 Ry
     Harris-Foulkes estimate   =    -811.24673378 Ry
     estimated scf accuracy    <       0.00776187 Ry

     total magnetization       =     4.00 Bohr mag/cell
     absolute magnetization    =     4.15 Bohr mag/cell

     iteration # 11     ecut=   100.00 Ry     beta= 0.70
     Davidson diagonalization with overlap
     ethr =  3.88E-06,  avg # of iterations =  3.0

     total cpu time spent up to now is    18320.6 secs

     total energy              =    -811.24771758 Ry
     Harris-Foulkes estimate   =    -811.24752094 Ry
     estimated scf accuracy    <       0.00240941 Ry

     total magnetization       =     4.00 Bohr mag/cell
     absolute magnetization    =     4.15 Bohr mag/cell

     iteration # 12     ecut=   100.00 Ry     beta= 0.70
     Davidson diagonalization with overlap
     ethr =  1.20E-06,  avg # of iterations =  3.0

     total cpu time spent up to now is    18338.4 secs

     total energy              =    -811.24796752 Ry
     Harris-Foulkes estimate   =    -811.24784954 Ry
     estimated scf accuracy    <       0.00016472 Ry

     total magnetization       =     4.00 Bohr mag/cell
     absolute magnetization    =     4.15 Bohr mag/cell

     iteration # 13     ecut=   100.00 Ry     beta= 0.70
     Davidson diagonalization with overlap
     ethr =  8.24E-08,  avg # of iterations =  3.5

     total cpu time spent up to now is    18356.1 secs

     total energy              =    -811.24800257 Ry
     Harris-Foulkes estimate   =    -811.24798537 Ry
     estimated scf accuracy    <       0.00004109 Ry

     total magnetization       =     4.00 Bohr mag/cell
     absolute magnetization    =     4.15 Bohr mag/cell

     iteration # 14     ecut=   100.00 Ry     beta= 0.70
     Davidson diagonalization with overlap
     ethr =  2.05E-08,  avg # of iterations =  2.5

     total cpu time spent up to now is    18372.2 secs

     total energy              =    -811.24801346 Ry
     Harris-Foulkes estimate   =    -811.24800610 Ry
     estimated scf accuracy    <       0.00001321 Ry

     total magnetization       =     4.00 Bohr mag/cell
     absolute magnetization    =     4.15 Bohr mag/cell

     iteration # 15     ecut=   100.00 Ry     beta= 0.70
     Davidson diagonalization with overlap
     ethr =  6.61E-09,  avg # of iterations =  3.5

     total cpu time spent up to now is    18388.0 secs

     total energy              =    -811.24801620 Ry
     Harris-Foulkes estimate   =    -811.24801480 Ry
     estimated scf accuracy    <       0.00000260 Ry

     total magnetization       =     4.00 Bohr mag/cell
     absolute magnetization    =     4.15 Bohr mag/cell

     iteration # 16     ecut=   100.00 Ry     beta= 0.70
     Davidson diagonalization with overlap
     ethr =  1.30E-09,  avg # of iterations =  3.5

     total cpu time spent up to now is    18405.2 secs

     total energy              =    -811.24801715 Ry
     Harris-Foulkes estimate   =    -811.24801644 Ry
     estimated scf accuracy    <       0.00000083 Ry

     total magnetization       =     4.00 Bohr mag/cell
     absolute magnetization    =     4.15 Bohr mag/cell

     iteration # 17     ecut=   100.00 Ry     beta= 0.70
     Davidson diagonalization with overlap
     ethr =  4.17E-10,  avg # of iterations =  3.0

     total cpu time spent up to now is    18424.9 secs

     total energy              =    -811.24801728 Ry
     Harris-Foulkes estimate   =    -811.24801724 Ry
     estimated scf accuracy    <       0.00000019 Ry

     total magnetization       =     4.00 Bohr mag/cell
     absolute magnetization    =     4.15 Bohr mag/cell

     iteration # 18     ecut=   100.00 Ry     beta= 0.70
     Davidson diagonalization with overlap
     ethr =  9.41E-11,  avg # of iterations =  3.0

     total cpu time spent up to now is    18440.8 secs

     total energy              =    -811.24801732 Ry
     Harris-Foulkes estimate   =    -811.24801730 Ry
     estimated scf accuracy    <       0.00000008 Ry

     total magnetization       =     4.00 Bohr mag/cell
     absolute magnetization    =     4.15 Bohr mag/cell

     iteration # 19     ecut=   100.00 Ry     beta= 0.70
     Davidson diagonalization with overlap
     ethr =  4.15E-11,  avg # of iterations =  2.5

     total cpu time spent up to now is    18458.6 secs

     total energy              =    -811.24801732 Ry
     Harris-Foulkes estimate   =    -811.24801733 Ry
     estimated scf accuracy    <       0.00000013 Ry

     total magnetization       =     4.00 Bohr mag/cell
     absolute magnetization    =     4.15 Bohr mag/cell

     iteration # 20     ecut=   100.00 Ry     beta= 0.70
     Davidson diagonalization with overlap
     ethr =  4.15E-11,  avg # of iterations =  2.5

     total cpu time spent up to now is    18474.0 secs

     total energy              =    -811.24801733 Ry
     Harris-Foulkes estimate   =    -811.24801733 Ry
     estimated scf accuracy    <       0.00000001 Ry

     total magnetization       =     4.00 Bohr mag/cell
     absolute magnetization    =     4.15 Bohr mag/cell

     iteration # 21     ecut=   100.00 Ry     beta= 0.70
     Davidson diagonalization with overlap
     ethr =  6.81E-12,  avg # of iterations =  2.5
 
     Magnetic moment per site:
     atom:    1    charge:    0.5737    magn:    0.0055    constr:    0.0000
     atom:    2    charge:    0.5751    magn:    0.0043    constr:    0.0000
     atom:    3    charge:    0.5735    magn:    0.0055    constr:    0.0000
     atom:    4    charge:    0.5735    magn:    0.0054    constr:    0.0000
     atom:    5    charge:    0.5674    magn:    0.0047    constr:    0.0000
     atom:    6    charge:    0.5675    magn:    0.0048    constr:    0.0000
     atom:    7    charge:    0.5674    magn:    0.0047    constr:    0.0000
     atom:    8    charge:    0.5676    magn:    0.0047    constr:    0.0000
     atom:    9    charge:    0.5741    magn:    0.0054    constr:    0.0000
     atom:   10    charge:    0.5760    magn:    0.0043    constr:    0.0000
     atom:   11    charge:    0.5551    magn:   -0.0014    constr:    0.0000
     atom:   12    charge:    0.5561    magn:   -0.0014    constr:    0.0000
     atom:   13    charge:    0.5737    magn:    0.0055    constr:    0.0000
     atom:   14    charge:    0.5751    magn:    0.0043    constr:    0.0000
     atom:   15    charge:    0.5735    magn:    0.0055    constr:    0.0000
     atom:   16    charge:    0.5735    magn:    0.0054    constr:    0.0000
     atom:   17    charge:    0.5674    magn:    0.0047    constr:    0.0000
     atom:   18    charge:    0.5675    magn:    0.0048    constr:    0.0000
     atom:   19    charge:    0.5674    magn:    0.0047    constr:    0.0000
     atom:   20    charge:    0.5676    magn:    0.0047    constr:    0.0000
     atom:   21    charge:    0.5741    magn:    0.0054    constr:    0.0000
     atom:   22    charge:    0.5760    magn:    0.0043    constr:    0.0000
     atom:   23    charge:    0.5551    magn:   -0.0014    constr:    0.0000
     atom:   24    charge:    0.5561    magn:   -0.0014    constr:    0.0000
     atom:   25    charge:    0.3683    magn:   -0.0012    constr:    0.0000
     atom:   26    charge:    0.3684    magn:   -0.0015    constr:    0.0000
     atom:   27    charge:    0.3684    magn:   -0.0012    constr:    0.0000
     atom:   28    charge:    0.3701    magn:   -0.0011    constr:    0.0000
     atom:   29    charge:    0.3699    magn:   -0.0012    constr:    0.0000
     atom:   30    charge:    0.3687    magn:   -0.0008    constr:    0.0000
     atom:   31    charge:    0.3689    magn:   -0.0008    constr:    0.0000
     atom:   32    charge:    0.3686    magn:   -0.0015    constr:    0.0000
     atom:   33    charge:    0.3683    magn:   -0.0012    constr:    0.0000
     atom:   34    charge:    0.3684    magn:   -0.0015    constr:    0.0000
     atom:   35    charge:    0.3684    magn:   -0.0012    constr:    0.0000
     atom:   36    charge:    0.3701    magn:   -0.0011    constr:    0.0000
     atom:   37    charge:    0.3699    magn:   -0.0012    constr:    0.0000
     atom:   38    charge:    0.3687    magn:   -0.0008    constr:    0.0000
     atom:   39    charge:    0.3689    magn:   -0.0008    constr:    0.0000
     atom:   40    charge:    0.3686    magn:   -0.0015    constr:    0.0000
     atom:   41    charge:    2.4110    magn:    0.0190    constr:    0.0000
     atom:   42    charge:    2.4099    magn:    0.0190    constr:    0.0000
     atom:   43    charge:    2.4110    magn:    0.0190    constr:    0.0000
     atom:   44    charge:    2.4099    magn:    0.0190    constr:    0.0000
     atom:   45    charge:    7.3560    magn:    1.0320    constr:    0.0000
     atom:   46    charge:    7.3560    magn:    1.0320    constr:    0.0000
     atom:   47    charge:    3.1182    magn:    0.0685    constr:    0.0000
     atom:   48    charge:    3.1146    magn:    0.0693    constr:    0.0000
     atom:   49    charge:    3.1171    magn:    0.0698    constr:    0.0000
     atom:   50    charge:    3.1185    magn:    0.0710    constr:    0.0000
     atom:   51    charge:    3.1182    magn:    0.0685    constr:    0.0000
     atom:   52    charge:    3.1146    magn:    0.0693    constr:    0.0000
     atom:   53    charge:    3.1171    magn:    0.0698    constr:    0.0000
     atom:   54    charge:    3.1185    magn:    0.0710    constr:    0.0000

     total cpu time spent up to now is    18487.6 secs

     End of self-consistent calculation

 ------ SPIN UP ------------


          k = 0.0000 0.0000 0.0000 ( 46801 PWs)   bands (ev):

   -22.7642 -22.7615 -22.5930 -22.5917 -19.7575 -19.7574 -19.7414 -19.7413
   -19.4885 -19.4681 -19.3214 -19.3139 -15.6760 -15.5766 -15.5720 -15.5466
   -14.3904 -14.3721 -14.3531 -14.3202 -12.0138 -11.8148 -11.7892 -11.7892
   -11.2352 -11.2304 -11.1995 -11.1386  -9.5788  -9.2630  -9.2532  -9.2162
    -8.5104  -7.9831  -7.9341  -7.8331  -7.7982  -7.7651  -7.7218  -7.5958
    -7.0353  -6.9176  -6.8946  -6.8529  -6.7949  -6.7104  -6.6431  -6.6413
    -6.6230  -6.5542  -6.3867  -6.3202  -6.3055  -6.2751  -6.1965  -6.0826
    -6.0081  -5.7696  -5.6174  -5.5826  -5.5223  -5.4314  -5.4126  -5.1286
    -4.8908  -4.7820  -4.4634  -4.3574  -4.2512  -4.1811  -4.1686  -3.9661
    -3.9415  -3.7652  -3.6999  -3.6370  -3.4802  -3.3544  -3.3237  -3.3195
    -3.2198  -2.8301  -2.7311  -2.6473  -2.6411  -2.6206  -2.5113  -2.4675
    -2.4638  -2.3688  -2.3148  -2.2580  -2.2531  -2.2036  -2.1450  -2.1072
    -2.0457  -1.9354  -0.2245  -0.2180   0.1625   0.2188   1.6445   1.7297
     1.7855   1.8482   2.9072   2.9311   3.1029   3.1452   3.4476   4.2126
     4.3111   4.3255   4.4736   4.5104   5.0819   5.2892   5.4582   5.6014
     5.6258   5.7783

 ------ SPIN DOWN ----------


          k = 0.0000 0.0000 0.0000 ( 46801 PWs)   bands (ev):

   -22.6295 -22.6266 -22.4587 -22.4573 -19.5847 -19.5846 -19.5676 -19.5675
   -19.4406 -19.4200 -19.2740 -19.2659 -15.6245 -15.5253 -15.5211 -15.4942
   -14.3393 -14.3209 -14.3021 -14.2688 -11.9547 -11.7596 -11.7349 -11.7301
   -11.1956 -11.1909 -11.1598 -11.1002  -9.5431  -9.2320  -9.2186  -9.1810
    -8.4284  -7.8850  -7.8559  -7.7397  -7.7273  -7.6724  -7.6476  -7.5408
    -6.8883  -6.7654  -6.7414  -6.7231  -6.6629  -6.6020  -6.5493  -6.5282
    -6.4979  -6.4237  -6.3290  -6.2659  -6.2481  -6.2028  -6.0926  -5.9655
    -5.8996  -5.7317  -5.5715  -5.5588  -5.4917  -5.3437  -5.3328  -5.0180
    -4.7318  -4.3167  -4.2988  -4.2257  -4.1524  -4.1467  -3.8777  -3.7283
    -3.6094  -3.5038  -3.4235  -3.3438  -3.0291  -2.9546  -2.8995  -2.8791
    -2.8387  -2.5229  -2.4487  -2.4240  -2.4019  -2.3714  -2.2358  -2.1738
    -2.1591  -2.0970  -1.9187  -1.8480  -1.8301  -1.5346  -1.5158  -1.4980
    -1.4418  -1.3591   0.5172   0.5223   0.8106   0.8837   1.7638   1.8891
     1.9216   1.9712   3.0229   3.0460   3.2181   3.2620   3.4932   4.2881
     4.3892   4.4136   4.5410   4.6135   5.1501   5.3489   5.5056   5.6335
     5.6671   5.8239

     the spin up/dw Fermi energies are     0.1201   -0.3210 ev

!    total energy              =    -811.24801735 Ry
     Harris-Foulkes estimate   =    -811.24801734 Ry
     estimated scf accuracy    <          6.2E-09 Ry

     The total energy is the sum of the following terms:

     one-electron contribution =   -1271.57870888 Ry
     hartree contribution      =     705.09957152 Ry
     xc contribution           =    -246.73883694 Ry
     ewald contribution        =       0.78696306 Ry
     Dispersion Correction     =      -0.20537685 Ry
     smearing contrib. (-TS)   =       1.38837074 Ry

     total magnetization       =     4.00 Bohr mag/cell
     absolute magnetization    =     4.15 Bohr mag/cell

     convergence has been achieved in  21 iterations

     Forces acting on atoms (cartesian axes, Ry/au):

     atom    1 type  1   force =     0.00002162   -0.00060199    0.00049642
     atom    2 type  1   force =    -0.00007609    0.00002551    0.00082880
     atom    3 type  1   force =    -0.00028047   -0.00014557    0.00057029
     atom    4 type  1   force =     0.00042610    0.00085978    0.00048004
     atom    5 type  1   force =    -0.00007346    0.00135139    0.00058110
     atom    6 type  1   force =    -0.00057208   -0.00088783    0.00027440
     atom    7 type  1   force =     0.00051178    0.00029846    0.00070512
     atom    8 type  1   force =    -0.00059634    0.00013672    0.00051129
     atom    9 type  1   force =     0.00033508    0.00004172    0.00080146
     atom   10 type  1   force =     0.00019919    0.00045039    0.00025777
     atom   11 type  1   force =     0.00050015    0.00092245    0.00005408
     atom   12 type  1   force =    -0.00045522   -0.00003231   -0.00025919
     atom   13 type  1   force =     0.00002162    0.00060199    0.00049642
     atom   14 type  1   force =    -0.00007609   -0.00002551    0.00082880
     atom   15 type  1   force =    -0.00028047    0.00014557    0.00057029
     atom   16 type  1   force =     0.00042610   -0.00085978    0.00048004
     atom   17 type  1   force =    -0.00007346   -0.00135139    0.00058110
     atom   18 type  1   force =    -0.00057208    0.00088783    0.00027440
     atom   19 type  1   force =     0.00051178   -0.00029846    0.00070512
     atom   20 type  1   force =    -0.00059634   -0.00013672    0.00051129
     atom   21 type  1   force =     0.00033508   -0.00004172    0.00080146
     atom   22 type  1   force =     0.00019919   -0.00045039    0.00025777
     atom   23 type  1   force =     0.00050015   -0.00092245    0.00005408
     atom   24 type  1   force =    -0.00045522    0.00003231   -0.00025919
     atom   25 type  2   force =     0.00036871    0.00021774    0.00061336
     atom   26 type  2   force =    -0.00043100   -0.00032501    0.00075629
     atom   27 type  2   force =     0.00009157    0.00013989    0.00067894
     atom   28 type  2   force =    -0.00191335   -0.00104602    0.00058181
     atom   29 type  2   force =     0.00122335    0.00071622    0.00042656
     atom   30 type  2   force =    -0.00051643    0.00061845   -0.00053469
     atom   31 type  2   force =     0.00099326   -0.00085261   -0.00013699
     atom   32 type  2   force =     0.00050280    0.00015758    0.00089508
     atom   33 type  2   force =     0.00036871   -0.00021774    0.00061336
     atom   34 type  2   force =    -0.00043100    0.00032501    0.00075629
     atom   35 type  2   force =     0.00009157   -0.00013989    0.00067894
     atom   36 type  2   force =    -0.00191335    0.00104602    0.00058181
     atom   37 type  2   force =     0.00122335   -0.00071622    0.00042656
     atom   38 type  2   force =    -0.00051643   -0.00061845   -0.00053469
     atom   39 type  2   force =     0.00099326    0.00085261   -0.00013699
     atom   40 type  2   force =     0.00050280   -0.00015758    0.00089508
     atom   41 type  3   force =    -0.00002477   -0.00356758   -0.00168470
     atom   42 type  3   force =    -0.00045515    0.00376683   -0.00069007
     atom   43 type  3   force =    -0.00002477    0.00356758   -0.00168470
     atom   44 type  3   force =    -0.00045515   -0.00376683   -0.00069007
     atom   45 type  4   force =    -0.00097809    0.01494643   -0.01142299
     atom   46 type  4   force =    -0.00097809   -0.01494643   -0.01142299
     atom   47 type  5   force =    -0.00128100   -0.00151954    0.00203072
     atom   48 type  5   force =     0.00168227    0.00156998    0.00215577
     atom   49 type  5   force =     0.00308800   -0.00140723   -0.00019666
     atom   50 type  5   force =    -0.00229043    0.00128005    0.00122598
     atom   51 type  5   force =    -0.00128100    0.00151954    0.00203072
     atom   52 type  5   force =     0.00168227   -0.00156998    0.00215577
     atom   53 type  5   force =     0.00308800    0.00140723   -0.00019666
     atom   54 type  5   force =    -0.00229043   -0.00128005    0.00122598

     Total force =     0.029878     Total SCF correction =     0.000146


     Computing stress (Cartesian axis) and pressure

          total   stress  (Ry/bohr**3)                   (kbar)     P=       16.99
   0.00012720   0.00000000   0.00000556           18.71        0.00        0.82
   0.00000000   0.00011273   0.00000000            0.00       16.58        0.00
   0.00000556   0.00000000   0.00010649            0.82        0.00       15.66


     Writing output data file ./QE_relaxation_results/PBESOL_vc-relax/NiPyC2_pbesol_vc-relax.save/
 
     init_run     :     25.01s CPU     27.36s WALL (       2 calls)
     electrons    :  14340.84s CPU  16635.50s WALL (      71 calls)
     update_pot   :    594.88s CPU    618.85s WALL (      69 calls)
     forces       :    479.93s CPU    510.49s WALL (      71 calls)
     stress       :    646.95s CPU    688.66s WALL (      71 calls)

     Called by init_run:
     wfcinit      :     11.39s CPU     12.79s WALL (       2 calls)
     potinit      :      6.36s CPU      6.76s WALL (       2 calls)
     hinit0       :      5.57s CPU      5.73s WALL (       2 calls)

     Called by electrons:
     c_bands      :  12040.22s CPU  13771.59s WALL (     925 calls)
     sum_band     :    982.78s CPU   1220.69s WALL (     925 calls)
     v_of_rho     :    659.97s CPU    779.13s WALL (     994 calls)
     mix_rho      :    663.61s CPU    845.47s WALL (     925 calls)

     Called by c_bands:
     init_us_2    :     20.13s CPU     21.09s WALL (    1852 calls)
     regterg      :  11984.40s CPU  13621.47s WALL (     925 calls)

     Called by sum_band:

     Called by *egterg:
     h_psi        :   5424.65s CPU   6455.99s WALL (    3224 calls)
     g_psi        :      5.58s CPU      5.69s WALL (    2297 calls)
     rdiaghg      :    267.54s CPU    273.63s WALL (    3151 calls)

     Called by h_psi:
     h_psi:calbec :   1088.49s CPU   1192.29s WALL (    3224 calls)
     vloc_psi     :   3228.77s CPU   4152.99s WALL (    3224 calls)
     add_vuspsi   :   1086.88s CPU   1089.92s WALL (    3224 calls)

     General routines
     calbec       :   1274.19s CPU   1392.94s WALL (    3579 calls)
     fft          :    477.63s CPU    634.98s WALL (   17042 calls)
     ffts         :    461.09s CPU    592.81s WALL (   16342 calls)
     fftw         :   3364.53s CPU   4474.85s WALL (  320003 calls)
 
     Parallel routines
     fft_scatt_xy :    836.31s CPU    849.77s WALL (  353387 calls)
     fft_scatt_yz :   1116.09s CPU   2456.89s WALL (  353387 calls)
 
     PWSCF        :      4h28m CPU      5h 8m WALL

 
   This run was terminated on:   0:37:41   9Jun2020            

=------------------------------------------------------------------------------=
   JOB DONE.
=------------------------------------------------------------------------------=
QE finished Tue Jun 9 00:37:41 PDT 2020
