LAMMPS (3 Mar 2020)
shell           touch running.txt
log             log.linker2MOF5
