Created on Mon Apr 11 14:59:00 2022 

        2431 atoms
        2880 bonds
        5490 angles
        5760 dihedrals
        3780 impropers

           6 atom types
           7 bond types
          13 angle types
           3 dihedral types
           1 improper types
           0.000000  31.264000 xlo xhi
           0.000000  37.570200 ylo yhi
           0.000000  30.822838 zlo zhi
           0.000000  -0.682783   0.000000 xy xz yz

Masses

    1    58.693400000 # Ni4+2
    2    15.999400000 # O_R
    3    14.006700000 # N_R
    4    12.010700000 # C_R
    5     1.007940000 # H_
    6    83.798000000 # Kr4+4

Bond Coeffs

    1      328.673665        1.841585  # Ni4+2 N_R
    2      321.720028        1.793457  # Ni4+2 O_R
    3      646.680887        1.311940  # O_R C_R
    4      663.718927        1.345073  # N_R C_R
    5      357.440381        1.081418  # C_R H_
    6      462.655054        1.379256  # C_R C_R
    7      391.669513        1.458000  # C_R C_R

Angle Coeffs

    1      182.482830               1               4 # N_R Ni4+2 N_R
    2      171.515475               1               4 # N_R Ni4+2 O_R
    3      161.490108               1               4 # O_R Ni4+2 O_R
    4      119.173173              -1               3 # C_R O_R Ni4+2
    5       88.904516              -1               3 # Ni4+2 N_R C_R
    6      120.000516              -1               3 # C_R N_R C_R
    7       57.289016              -1               3 # H_ C_R C_R
    8      111.297508              -1               3 # C_R C_R C_R
    9      102.183280              -1               3 # C_R C_R C_R
   10      153.699352              -1               3 # N_R C_R C_R
   11       79.786967              -1               3 # N_R C_R H_
   12      131.755710              -1               3 # O_R C_R C_R
   13      187.136328              -1               3 # O_R C_R O_R

Dihedral Coeffs

    1        6.737110              -1               2 # Ni4+2 O_R C_R C_R
    2        3.368555              -1               2 # Ni4+2 N_R C_R C_R
    3        1.250000              -1               2 # C_R C_R C_R O_R

Improper Coeffs

    1        2.000000        1.000000       -1.000000        0.000000               0 # Ni4+2 N_R C_R C_R

Pair Coeffs

    1        0.015000        2.524807 # Ni4+2 Ni4+2
    2        0.060000        3.118146 # O_R O_R
    3        0.069000        3.260689 # N_R N_R
    4        0.105000        3.430851 # C_R C_R
    5        0.044000        2.571134 # H_ H_
    6        0.220000        3.689212 # Kr4+4 Kr4+4

Atoms

       1      444        1     0.00000    2.90284    9.44214    8.62454
       2      444        2     0.00000    1.41938    4.37843    4.03677
       3      444        2     0.00000    4.63598    1.66661    3.80354
       4      444        2     0.00000    5.74507    4.41112    5.10941
       5      444        2     0.00000    0.30789    1.50029    4.87207
       6      444        3     0.00000    3.76768   10.55599    7.15296
       7      444        3     0.00000    2.09513    8.09138    7.34715
       8      444        4     0.00000    3.55855   12.01371    5.27480
       9      444        5     0.00000    3.02658   12.35056    4.56280
      10      444        4     0.00000    4.83825   12.49837    5.48338
      11      444        4     0.00000    5.58983   11.95484    6.52828
      12      444        5     0.00000    0.22837   12.24537    6.68341
      13      444        4     0.00000    2.42543    6.50088    5.59025
      14      444        5     0.00000    2.98702    6.14900    4.90906
      15      444        4     0.00000    2.86172    7.55413    6.38751
      16      444        5     0.00000    3.73275    7.90601    6.24572
      17      444        4     0.00000    3.06289   11.03185    6.11319
      18      444        5     0.00000    2.19487   10.68245    5.94982
      19      444        4     0.00000    5.01801   10.99180    7.33275
      20      444        5     0.00000    5.53257   10.62361    8.04066
      21      444        4     0.00000    0.86139    7.57040    7.54750
      22      444        5     0.00000    0.31361    7.94734    8.22662
      23      444        4     0.00000    0.36568    6.51591    6.80775
      24      444        5     0.00000    5.75184    6.16779    6.97727
      25      444        4     0.00000    1.17146    5.97366    5.80086
      26      444        4     0.00000    5.38640    1.11835    4.67481
      27      444        4     0.00000    0.65325    4.83652    4.94707
      28      444        1     0.00000    6.14303    3.08124    3.48739
      29      444        2     0.00000    4.43198    8.14496    9.17389
      30      444        2     0.00000    1.39579   10.85677    8.94069
      31      444        2     0.00000    2.50487    8.11227   10.24653
      32      444        2     0.00000    3.32049   11.02310   10.00919
      33      444        3     0.00000    0.75508    1.96744    2.01581
      34      444        3     0.00000    5.33533    4.43204    2.21000
      35      444        4     0.00000    0.54595    0.50971    0.13769
      36      444        5     0.00000   -0.21362    0.17282    9.69995
      37      444        4     0.00000    1.82565    0.02506    0.34623
      38      444        4     0.00000    2.57723    0.56855    1.39113
      39      444        5     0.00000    3.46857    0.27802    1.54629
      40      444        4     0.00000    5.66563    6.02250    0.45310
      41      444        5     0.00000    5.99962    6.37442   10.04618
      42      444        4     0.00000    6.10192    4.96930    1.25039
      43      444        5     0.00000    0.72015    4.61738    1.10861
      44      444        4     0.00000    0.05029    1.49154    0.97607
      45      444        5     0.00000    5.43506    1.84094    0.81271
      46      444        4     0.00000    2.00541    1.53162    2.19560
      47      444        5     0.00000    2.51996    1.89981    2.90351
      48      444        4     0.00000    4.10159    4.95299    2.41035
      49      444        5     0.00000    3.55381    4.57605    3.08947
      50      444        4     0.00000    3.60587    6.00747    1.67060
      51      444        5     0.00000    2.73923    6.35564    1.84012
      52      444        4     0.00000    4.41165    6.54973    0.66371
      53      444        4     0.00000    2.14621   11.40507    9.81193
      54      444        4     0.00000    3.66586    7.68686   10.08422
      55      444        1     0.00000    2.67524    9.44214   18.89881
      56      444        2     0.00000    1.19178    4.37843   14.31104
      57      444        2     0.00000    4.40839    1.66661   14.07781
      58      444        2     0.00000    5.51747    4.41112   15.38368
      59      444        2     0.00000    0.08029    1.50029   15.14634
      60      444        3     0.00000    3.54009   10.55599   17.42723
      61      444        3     0.00000    1.86754    8.09138   17.62142
      62      444        4     0.00000    3.33095   12.01371   15.54910
      63      444        5     0.00000    2.79898   12.35056   14.83710
      64      444        4     0.00000    4.61066   12.49837   15.75765
      65      444        4     0.00000    5.36224   11.95484   16.80255
      66      444        5     0.00000    0.00077   12.24537   16.95771
      67      444        4     0.00000    2.19784    6.50088   15.86451
      68      444        5     0.00000    2.75942    6.14900   15.18333
      69      444        4     0.00000    2.63413    7.55413   16.66181
      70      444        5     0.00000    3.50516    7.90601   16.52002
      71      444        4     0.00000    2.83529   11.03185   16.38749
      72      444        5     0.00000    1.96727   10.68245   16.22413
      73      444        4     0.00000    4.79042   10.99180   17.60702
      74      444        5     0.00000    5.30497   10.62361   18.31493
      75      444        4     0.00000    0.63380    7.57040   17.82177
      76      444        5     0.00000    0.08602    7.94734   18.50088
      77      444        4     0.00000    0.13808    6.51591   17.08202
      78      444        5     0.00000    5.52424    6.16779   17.25154
      79      444        4     0.00000    0.94386    5.97366   16.07513
      80      444        4     0.00000    5.15881    1.11835   14.94908
      81      444        4     0.00000    0.42566    4.83652   15.22133
      82      444        1     0.00000    5.91544    3.08124   13.76169
      83      444        2     0.00000    4.20439    8.14496   19.44819
      84      444        2     0.00000    1.16819   10.85677   19.21496
      85      444        2     0.00000    2.27727    8.11227   20.52083
      86      444        2     0.00000    3.09289   11.02310   20.28349
      87      444        3     0.00000    0.52749    1.96744   12.29008
      88      444        3     0.00000    5.10774    4.43204   12.48427
      89      444        4     0.00000    0.31835    0.50971   10.41195
      90      444        5     0.00000   -0.44122    0.17282   19.97422
      91      444        4     0.00000    1.59806    0.02506   10.62053
      92      444        4     0.00000    2.34963    0.56855   11.66543
      93      444        5     0.00000    3.24097    0.27802   11.82056
      94      444        4     0.00000    5.43804    6.02250   10.72736
      95      444        5     0.00000    5.77203    6.37442   20.32048
      96      444        4     0.00000    5.87433    4.96930   11.52466
      97      444        5     0.00000    0.49256    4.61738   11.38287
      98      444        4     0.00000   -0.17731    1.49154   11.25034
      99      444        5     0.00000    5.20747    1.84094   11.08697
     100      444        4     0.00000    1.77781    1.53162   12.46990
     101      444        5     0.00000    2.29237    1.89981   13.17778
     102      444        4     0.00000    3.87400    4.95299   12.68462
     103      444        5     0.00000    3.32621    4.57605   13.36377
     104      444        4     0.00000    3.37828    6.00747   11.94487
     105      444        5     0.00000    2.51164    6.35564   12.11439
     106      444        4     0.00000    4.18406    6.54973   10.93801
     107      444        4     0.00000    1.91861   11.40507   20.08623
     108      444        4     0.00000    3.43826    7.68686   20.35848
     109      444        1     0.00000    2.44765    9.44214   29.17311
     110      444        2     0.00000    0.96419    4.37843   24.58531
     111      444        2     0.00000    4.18079    1.66661   24.35211
     112      444        2     0.00000    5.28988    4.41112   25.65795
     113      444        2     0.00000   -0.14730    1.50029   25.42061
     114      444        3     0.00000    3.31249   10.55599   27.70150
     115      444        3     0.00000    1.63995    8.09138   27.89569
     116      444        4     0.00000    3.10336   12.01371   25.82337
     117      444        5     0.00000    2.57139   12.35056   25.11137
     118      444        4     0.00000    4.38307   12.49837   26.03195
     119      444        4     0.00000    5.13464   11.95484   27.07685
     120      444        5     0.00000   -0.22682   12.24537   27.23198
     121      444        4     0.00000    1.97024    6.50088   26.13878
     122      444        5     0.00000    2.53183    6.14900   25.45760
     123      444        4     0.00000    2.40654    7.55413   26.93608
     124      444        5     0.00000    3.27757    7.90601   26.79429
     125      444        4     0.00000    2.60770   11.03185   26.66176
     126      444        5     0.00000    1.73968   10.68245   26.49839
     127      444        4     0.00000    4.56282   10.99180   27.88132
     128      444        5     0.00000    5.07738   10.62361   28.58920
     129      444        4     0.00000    0.40621    7.57040   28.09603
     130      444        5     0.00000   -0.14158    7.94734   28.77518
     131      444        4     0.00000   -0.08951    6.51591   27.35629
     132      444        5     0.00000    5.29665    6.16779   27.52581
     133      444        4     0.00000    0.71627    5.97366   26.34943
     134      444        4     0.00000    4.93121    1.11835   25.22335
     135      444        4     0.00000    0.19807    4.83652   25.49563
     136      444        1     0.00000    5.68784    3.08124   24.03596
     137      444        2     0.00000    3.97679    8.14496   29.72246
     138      444        2     0.00000    0.94060   10.85677   29.48923
     139      444        2     0.00000    2.04968    8.11227   30.79510
     140      444        2     0.00000    2.86530   11.02310   30.55776
     141      444        3     0.00000    0.29989    1.96744   22.56438
     142      444        3     0.00000    4.88014    4.43204   22.75857
     143      444        4     0.00000    0.09076    0.50971   20.68622
     144      444        5     0.00000   -0.66881    0.17282   30.24852
     145      444        4     0.00000    1.37046    0.02506   20.89480
     146      444        4     0.00000    2.12204    0.56855   21.93970
     147      444        5     0.00000    3.01338    0.27802   22.09483
     148      444        4     0.00000    5.21044    6.02250   21.00166
     149      444        5     0.00000    5.54443    6.37442   30.59475
     150      444        4     0.00000    5.64673    4.96930   21.79893
     151      444        5     0.00000    0.26496    4.61738   21.65714
     152      444        4     0.00000   -0.40490    1.49154   21.52461
     153      444        5     0.00000    4.97988    1.84094   21.36124
     154      444        4     0.00000    1.55022    1.53162   22.74417
     155      444        5     0.00000    2.06478    1.89981   23.45208
     156      444        4     0.00000    3.64640    4.95299   22.95892
     157      444        5     0.00000    3.09862    4.57605   23.63803
     158      444        4     0.00000    3.15069    6.00747   22.21917
     159      444        5     0.00000    2.28404    6.35564   22.38869
     160      444        4     0.00000    3.95647    6.54973   21.21228
     161      444        4     0.00000    1.69102   11.40507   30.36050
     162      444        4     0.00000    3.21067    7.68686   30.63275
     163      444        1     0.00000    2.90284   21.96553    8.62454
     164      444        2     0.00000    1.41938   16.90182    4.03677
     165      444        2     0.00000    4.63598   14.19000    3.80354
     166      444        2     0.00000    5.74507   16.93450    5.10941
     167      444        2     0.00000    0.30789   14.02372    4.87207
     168      444        3     0.00000    3.76768   23.07937    7.15296
     169      444        3     0.00000    2.09513   20.61477    7.34715
     170      444        4     0.00000    3.55855   24.53710    5.27480
     171      444        5     0.00000    3.02658   24.87399    4.56280
     172      444        4     0.00000    4.83825   25.02175    5.48338
     173      444        4     0.00000    5.58983   24.47823    6.52828
     174      444        5     0.00000    0.22837   24.76879    6.68341
     175      444        4     0.00000    2.42543   19.02431    5.59025
     176      444        5     0.00000    2.98702   18.67239    4.90906
     177      444        4     0.00000    2.86172   20.07751    6.38751
     178      444        5     0.00000    3.73275   20.42943    6.24572
     179      444        4     0.00000    3.06289   23.55528    6.11319
     180      444        5     0.00000    2.19487   23.20587    5.94982
     181      444        4     0.00000    5.01801   23.51519    7.33275
     182      444        5     0.00000    5.53257   23.14700    8.04066
     183      444        4     0.00000    0.86139   20.09378    7.54750
     184      444        5     0.00000    0.31361   20.47076    8.22662
     185      444        4     0.00000    0.36568   19.03934    6.80775
     186      444        5     0.00000    5.75184   18.69117    6.97727
     187      444        4     0.00000    1.17146   18.49705    5.80086
     188      444        4     0.00000    5.38640   13.64174    4.67481
     189      444        4     0.00000    0.65325   17.35995    4.94707
     190      444        1     0.00000    6.14303   15.60467    3.48739
     191      444        2     0.00000    4.43198   20.66838    9.17389
     192      444        2     0.00000    1.39579   23.38020    8.94069
     193      444        2     0.00000    2.50487   20.63570   10.24653
     194      444        2     0.00000    3.32049   23.54648   10.00919
     195      444        3     0.00000    0.75508   14.49083    2.01581
     196      444        3     0.00000    5.33533   16.95543    2.21000
     197      444        4     0.00000    0.54595   13.03310    0.13769
     198      444        5     0.00000   -0.21362   12.69621    9.69995
     199      444        4     0.00000    1.82565   12.54845    0.34623
     200      444        4     0.00000    2.57723   13.09197    1.39113
     201      444        5     0.00000    3.46857   12.80141    1.54629
     202      444        4     0.00000    5.66563   18.54589    0.45310
     203      444        5     0.00000    5.99962   18.89781   10.04618
     204      444        4     0.00000    6.10192   17.49269    1.25039
     205      444        5     0.00000    0.72015   17.14077    1.10861
     206      444        4     0.00000    0.05029   14.01492    0.97607
     207      444        5     0.00000    5.43506   14.36433    0.81271
     208      444        4     0.00000    2.00541   14.05501    2.19560
     209      444        5     0.00000    2.51996   14.42320    2.90351
     210      444        4     0.00000    4.10159   17.47642    2.41035
     211      444        5     0.00000    3.55381   17.09944    3.08947
     212      444        4     0.00000    3.60587   18.53086    1.67060
     213      444        5     0.00000    2.73923   18.87903    1.84012
     214      444        4     0.00000    4.41165   19.07315    0.66371
     215      444        4     0.00000    2.14621   23.92846    9.81193
     216      444        4     0.00000    3.66586   20.21025   10.08422
     217      444        1     0.00000    2.67524   21.96553   18.89881
     218      444        2     0.00000    1.19178   16.90182   14.31104
     219      444        2     0.00000    4.40839   14.19000   14.07781
     220      444        2     0.00000    5.51747   16.93450   15.38368
     221      444        2     0.00000    0.08029   14.02372   15.14634
     222      444        3     0.00000    3.54009   23.07937   17.42723
     223      444        3     0.00000    1.86754   20.61477   17.62142
     224      444        4     0.00000    3.33095   24.53710   15.54910
     225      444        5     0.00000    2.79898   24.87399   14.83710
     226      444        4     0.00000    4.61066   25.02175   15.75765
     227      444        4     0.00000    5.36224   24.47823   16.80255
     228      444        5     0.00000    0.00077   24.76879   16.95771
     229      444        4     0.00000    2.19784   19.02431   15.86451
     230      444        5     0.00000    2.75942   18.67239   15.18333
     231      444        4     0.00000    2.63413   20.07751   16.66181
     232      444        5     0.00000    3.50516   20.42943   16.52002
     233      444        4     0.00000    2.83529   23.55528   16.38749
     234      444        5     0.00000    1.96727   23.20587   16.22413
     235      444        4     0.00000    4.79042   23.51519   17.60702
     236      444        5     0.00000    5.30497   23.14700   18.31493
     237      444        4     0.00000    0.63380   20.09378   17.82177
     238      444        5     0.00000    0.08602   20.47076   18.50088
     239      444        4     0.00000    0.13808   19.03934   17.08202
     240      444        5     0.00000    5.52424   18.69117   17.25154
     241      444        4     0.00000    0.94386   18.49705   16.07513
     242      444        4     0.00000    5.15881   13.64174   14.94908
     243      444        4     0.00000    0.42566   17.35995   15.22133
     244      444        1     0.00000    5.91544   15.60467   13.76169
     245      444        2     0.00000    4.20439   20.66838   19.44819
     246      444        2     0.00000    1.16819   23.38020   19.21496
     247      444        2     0.00000    2.27727   20.63570   20.52083
     248      444        2     0.00000    3.09289   23.54648   20.28349
     249      444        3     0.00000    0.52749   14.49083   12.29008
     250      444        3     0.00000    5.10774   16.95543   12.48427
     251      444        4     0.00000    0.31835   13.03310   10.41195
     252      444        5     0.00000   -0.44122   12.69621   19.97422
     253      444        4     0.00000    1.59806   12.54845   10.62053
     254      444        4     0.00000    2.34963   13.09197   11.66543
     255      444        5     0.00000    3.24097   12.80141   11.82056
     256      444        4     0.00000    5.43804   18.54589   10.72736
     257      444        5     0.00000    5.77203   18.89781   20.32048
     258      444        4     0.00000    5.87433   17.49269   11.52466
     259      444        5     0.00000    0.49256   17.14077   11.38287
     260      444        4     0.00000   -0.17731   14.01492   11.25034
     261      444        5     0.00000    5.20747   14.36433   11.08697
     262      444        4     0.00000    1.77781   14.05501   12.46990
     263      444        5     0.00000    2.29237   14.42320   13.17778
     264      444        4     0.00000    3.87400   17.47642   12.68462
     265      444        5     0.00000    3.32621   17.09944   13.36377
     266      444        4     0.00000    3.37828   18.53086   11.94487
     267      444        5     0.00000    2.51164   18.87903   12.11439
     268      444        4     0.00000    4.18406   19.07315   10.93801
     269      444        4     0.00000    1.91861   23.92846   20.08623
     270      444        4     0.00000    3.43826   20.21025   20.35848
     271      444        1     0.00000    2.44765   21.96553   29.17311
     272      444        2     0.00000    0.96419   16.90182   24.58531
     273      444        2     0.00000    4.18079   14.19000   24.35211
     274      444        2     0.00000    5.28988   16.93450   25.65795
     275      444        2     0.00000   -0.14730   14.02372   25.42061
     276      444        3     0.00000    3.31249   23.07937   27.70150
     277      444        3     0.00000    1.63995   20.61477   27.89569
     278      444        4     0.00000    3.10336   24.53710   25.82337
     279      444        5     0.00000    2.57139   24.87399   25.11137
     280      444        4     0.00000    4.38307   25.02175   26.03195
     281      444        4     0.00000    5.13464   24.47823   27.07685
     282      444        5     0.00000   -0.22682   24.76879   27.23198
     283      444        4     0.00000    1.97024   19.02431   26.13878
     284      444        5     0.00000    2.53183   18.67239   25.45760
     285      444        4     0.00000    2.40654   20.07751   26.93608
     286      444        5     0.00000    3.27757   20.42943   26.79429
     287      444        4     0.00000    2.60770   23.55528   26.66176
     288      444        5     0.00000    1.73968   23.20587   26.49839
     289      444        4     0.00000    4.56282   23.51519   27.88132
     290      444        5     0.00000    5.07738   23.14700   28.58920
     291      444        4     0.00000    0.40621   20.09378   28.09603
     292      444        5     0.00000   -0.14158   20.47076   28.77518
     293      444        4     0.00000   -0.08951   19.03934   27.35629
     294      444        5     0.00000    5.29665   18.69117   27.52581
     295      444        4     0.00000    0.71627   18.49705   26.34943
     296      444        4     0.00000    4.93121   13.64174   25.22335
     297      444        4     0.00000    0.19807   17.35995   25.49563
     298      444        1     0.00000    5.68784   15.60467   24.03596
     299      444        2     0.00000    3.97679   20.66838   29.72246
     300      444        2     0.00000    0.94060   23.38020   29.48923
     301      444        2     0.00000    2.04968   20.63570   30.79510
     302      444        2     0.00000    2.86530   23.54648   30.55776
     303      444        3     0.00000    0.29989   14.49083   22.56438
     304      444        3     0.00000    4.88014   16.95543   22.75857
     305      444        4     0.00000    0.09076   13.03310   20.68622
     306      444        5     0.00000   -0.66881   12.69621   30.24852
     307      444        4     0.00000    1.37046   12.54845   20.89480
     308      444        4     0.00000    2.12204   13.09197   21.93970
     309      444        5     0.00000    3.01338   12.80141   22.09483
     310      444        4     0.00000    5.21044   18.54589   21.00166
     311      444        5     0.00000    5.54443   18.89781   30.59475
     312      444        4     0.00000    5.64673   17.49269   21.79893
     313      444        5     0.00000    0.26496   17.14077   21.65714
     314      444        4     0.00000   -0.40490   14.01492   21.52461
     315      444        5     0.00000    4.97988   14.36433   21.36124
     316      444        4     0.00000    1.55022   14.05501   22.74417
     317      444        5     0.00000    2.06478   14.42320   23.45208
     318      444        4     0.00000    3.64640   17.47642   22.95892
     319      444        5     0.00000    3.09862   17.09944   23.63803
     320      444        4     0.00000    3.15069   18.53086   22.21917
     321      444        5     0.00000    2.28404   18.87903   22.38869
     322      444        4     0.00000    3.95647   19.07315   21.21228
     323      444        4     0.00000    1.69102   23.92846   30.36050
     324      444        4     0.00000    3.21067   20.21025   30.63275
     325      444        1     0.00000    2.90284   34.48896    8.62454
     326      444        2     0.00000    1.41938   29.42524    4.03677
     327      444        2     0.00000    4.63598   26.71343    3.80354
     328      444        2     0.00000    5.74507   29.45793    5.10941
     329      444        2     0.00000    0.30789   26.54710    4.87207
     330      444        3     0.00000    3.76768   35.60276    7.15296
     331      444        3     0.00000    2.09513   33.13816    7.34715
     332      444        4     0.00000    3.55855   37.06049    5.27480
     333      444        5     0.00000    3.02658   37.39738    4.56280
     334      444        4     0.00000    4.83825   37.54514    5.48338
     335      444        4     0.00000    5.58983   37.00165    6.52828
     336      444        5     0.00000    0.22837   37.29218    6.68341
     337      444        4     0.00000    2.42543   31.54770    5.59025
     338      444        5     0.00000    2.98702   31.19578    4.90906
     339      444        4     0.00000    2.86172   32.60090    6.38751
     340      444        5     0.00000    3.73275   32.95282    6.24572
     341      444        4     0.00000    3.06289   36.07866    6.11319
     342      444        5     0.00000    2.19487   35.72926    5.94982
     343      444        4     0.00000    5.01801   36.03858    7.33275
     344      444        5     0.00000    5.53257   35.67039    8.04066
     345      444        4     0.00000    0.86139   32.61721    7.54750
     346      444        5     0.00000    0.31361   32.99415    8.22662
     347      444        4     0.00000    0.36568   31.56273    6.80775
     348      444        5     0.00000    5.75184   31.21456    6.97727
     349      444        4     0.00000    1.17146   31.02047    5.80086
     350      444        4     0.00000    5.38640   26.16513    4.67481
     351      444        4     0.00000    0.65325   29.88334    4.94707
     352      444        1     0.00000    6.14303   28.12806    3.48739
     353      444        2     0.00000    4.43198   33.19177    9.17389
     354      444        2     0.00000    1.39579   35.90359    8.94069
     355      444        2     0.00000    2.50487   33.15908   10.24653
     356      444        2     0.00000    3.32049   36.06991   10.00919
     357      444        3     0.00000    0.75508   27.01421    2.01581
     358      444        3     0.00000    5.33533   29.47882    2.21000
     359      444        4     0.00000    0.54595   25.55649    0.13769
     360      444        5     0.00000   -0.21362   25.21964    9.69995
     361      444        4     0.00000    1.82565   25.07183    0.34623
     362      444        4     0.00000    2.57723   25.61536    1.39113
     363      444        5     0.00000    3.46857   25.32483    1.54629
     364      444        4     0.00000    5.66563   31.06932    0.45310
     365      444        5     0.00000    5.99962   31.42120   10.04618
     366      444        4     0.00000    6.10192   30.01607    1.25039
     367      444        5     0.00000    0.72015   29.66419    1.10861
     368      444        4     0.00000    0.05029   26.53835    0.97607
     369      444        5     0.00000    5.43506   26.88775    0.81271
     370      444        4     0.00000    2.00541   26.57840    2.19560
     371      444        5     0.00000    2.51996   26.94659    2.90351
     372      444        4     0.00000    4.10159   29.99980    2.41035
     373      444        5     0.00000    3.55381   29.62286    3.08947
     374      444        4     0.00000    3.60587   31.05429    1.67060
     375      444        5     0.00000    2.73923   31.40241    1.84012
     376      444        4     0.00000    4.41165   31.59654    0.66371
     377      444        4     0.00000    2.14621   36.45185    9.81193
     378      444        4     0.00000    3.66586   32.73368   10.08422
     379      444        1     0.00000    2.67524   34.48896   18.89881
     380      444        2     0.00000    1.19178   29.42524   14.31104
     381      444        2     0.00000    4.40839   26.71343   14.07781