Created on Tue Aug 25 11:51:27 2020 

         172 atoms
         192 bonds
         364 angles
         384 dihedrals
         192 impropers

           7 atom types
          10 bond types
          19 angle types
           5 dihedral types
           1 improper types
           0.000000  12.505600 xlo xhi
           0.000000  12.523400 ylo yhi
           0.000000  10.274279 zlo zhi
           0.000000  -0.227594   0.000000 xy xz yz

Masses

    1    58.693400000 # Ni4+2
    2    15.999400000 # O_R
    3    14.006700000 # N_R
    4    12.010700000 # C_R
    5     1.007940000 # H_
    6    14.006700000 # N_3
    7    12.010700000 # C_3

Bond Coeffs

    1      321.720028        1.793457  # Ni4+2 O_R
    2      328.673665        1.841585  # Ni4+2 N_R
    3      646.680887        1.311940  # O_R C_R
    4      663.718927        1.345073  # N_R C_R
    5      462.655054        1.379256  # C_R C_R
    6      357.440381        1.081418  # C_R H_
    7      391.669513        1.458000  # C_R C_R
    8      560.312976        1.423192  # C_R N_3
    9      528.634538        1.451071  # N_3 C_3
   10      331.069389        1.109401  # C_3 H_

Angle Coeffs

    1              cosine/periodic      322.980216               1               4 # O_R Ni4+2 O_R
    2              cosine/periodic      343.030950               1               4 # O_R Ni4+2 N_R
    3              cosine/periodic      364.965660               1               4 # N_R Ni4+2 N_R
    4              cosine/periodic      238.346347              -1               3 # C_R O_R Ni4+2
    5              cosine/periodic      177.809033              -1               3 # Ni4+2 N_R C_R
    6              cosine/periodic      240.001032              -1               3 # C_R N_R C_R
    7              cosine/periodic      114.578032              -1               3 # C_R C_R H_
    8              cosine/periodic      222.595017              -1               3 # C_R C_R C_R
    9              cosine/periodic      204.366560              -1               3 # C_R C_R C_R
   10              cosine/periodic      307.398705              -1               3 # N_R C_R C_R
   11              cosine/periodic      159.573934              -1               3 # N_R C_R H_
   12              cosine/periodic      389.516810              -1               3 # N_R C_R N_3
   13              cosine/periodic      282.369526              -1               3 # C_R C_R N_3
   14              cosine/periodic      263.511421              -1               3 # O_R C_R C_R
   15              cosine/periodic      374.272657              -1               3 # O_R C_R O_R
   16                      fourier      268.482172        0.317506        0.313225        0.272502 # C_R N_3 C_3
   17                      fourier      260.869388        0.317506        0.313225        0.272502 # C_3 N_3 C_3
   18                      fourier      169.780468        0.343737        0.374972        0.281246 # N_3 C_3 H_
   19                      fourier       75.498766        0.343737        0.374972        0.281246 # H_ C_3 H_

Dihedral Coeffs

    1        2.245703              -1               2 # Ni4+2 O_R C_R C_R
    2        1.497136              -1               2 # Ni4+2 N_R C_R C_R
    3        0.555556              -1               2 # C_R C_R C_R O_R
    4        0.111111               1               3 # N_R C_R N_3 C_3
    5        0.040687               1               3 # C_R N_3 C_3 H_

Improper Coeffs

    1        2.000000        1.000000       -1.000000        0.000000               0 # Ni4+2 N_R C_R C_R

Pair Coeffs

    1        0.015000        2.524807 # Ni4+2 Ni4+2
    2        0.060000        3.118146 # O_R O_R
    3        0.069000        3.260689 # N_R N_R
    4        0.105000        3.430851 # C_R C_R
    5        0.044000        2.571134 # H_ H_
    6        0.069000        3.260689 # N_3 N_3
    7        0.105000        3.430851 # C_3 C_3

Atoms

       1      444        1     0.00000    2.89857    9.41116    8.59265
       2      444        1     0.00000    6.17525    3.10579    3.48481
       3      444        2     0.00000    1.44827    4.35425    3.93374
       4      444        2     0.00000    4.44160    8.15245    9.05464
       5      444        2     0.00000    4.63665    1.84729    3.87523
       6      444        2     0.00000    1.36499   10.67435    9.00295
       7      444        2     0.00000    5.80609    4.46033    4.96242
       8      444        2     0.00000    2.54244    8.03270   10.06753
       9      444        2     0.00000    0.25117    1.69264    4.94273
      10      444        2     0.00000    3.23722   10.80466   10.06262
      11      444        3     0.00000    3.69677   10.66058    7.24160
      12      444        3     0.00000    0.71256    1.86420    2.11704
      13      444        3     0.00000    2.17217    8.14409    7.25198
      14      444        3     0.00000    5.44023    4.39481    2.13747
      15      444        4     0.00000    3.48546   12.14832    5.36301
      16      444        4     0.00000    0.47488    0.38955    0.22920
      17      444        5     0.00000    2.86453   12.51808    4.55267
      18      444        5     0.00000    5.86971    0.03371    9.69377
      19      444        4     0.00000    4.76073    0.14740    5.61481
      20      444        4     0.00000    1.74333   12.36991    0.47412
      21      444        4     0.00000    5.50345   12.15023    6.68209
      22      444        4     0.00000    2.49852    0.35508    1.54004
      23      444        5     0.00000    0.24768   12.50843    6.91993
      24      444        5     0.00000    3.49155   12.50668    1.77336
      25      444        4     0.00000    2.48363    6.63370    5.40822
      26      444        4     0.00000    5.72803    5.90364    0.28669
      27      444        5     0.00000    3.13294    6.27291    4.61605
      28      444        5     0.00000   -0.10828    6.26667    9.76620
      29      444        4     0.00000    2.92756    7.68099    6.23068
      30      444        4     0.00000    6.18830    4.86756    1.11596
      31      444        5     0.00000    3.89994    8.14655    6.08890
      32      444        4     0.00000    2.98256   11.13588    6.19748
      33      444        4     0.00000   -0.01036    1.40553    1.07106
      34      444        5     0.00000    1.99392   10.70905    6.04703
      35      444        5     0.00000    5.26093    1.85011    0.92351
      36      444        4     0.00000    4.93641   11.13810    7.47507
      37      444        4     0.00000    1.94823    1.37190    2.34060
      38      444        5     0.00000    2.50886    1.79214    3.17267
      39      444        4     0.00000    0.94573    7.62654    7.47302
      40      444        4     0.00000    4.21083    4.90458    2.35686
      41      444        5     0.00000    3.63605    4.47744    3.17528
      42      444        4     0.00000    0.43859    6.57577    6.69176
      43      444        4     0.00000    3.68763    5.94500    1.56944
      44      444        5     0.00000    5.70774    6.17693    6.91975
      45      444        5     0.00000    2.69824    6.32683    1.80071
      46      444        4     0.00000    1.22745    6.06471    5.65205
      47      444        4     0.00000    4.46338    6.45777    0.52027
      48      444        4     0.00000    5.31260    1.24381    4.79419
      49      444        4     0.00000    2.05020   11.26755    9.92158
      50      444        4     0.00000    0.73548    4.94016    4.83586
      51      444        4     0.00000    3.73174    7.56629    9.95688
      52      444        1     0.00000    9.15137    9.41116    8.59265
      53      444        1     0.00000   12.42805    3.10579    3.48481
      54      444        2     0.00000    7.70109    4.35425    3.93374
      55      444        2     0.00000   10.69440    8.15245    9.05464
      56      444        2     0.00000   10.88945    1.84729    3.87523
      57      444        2     0.00000    7.61779   10.67435    9.00295
      58      444        2     0.00000   12.05889    4.46033    4.96242
      59      444        2     0.00000    8.79524    8.03270   10.06753
      60      444        2     0.00000    6.50397    1.69264    4.94273
      61      444        2     0.00000    9.49002   10.80466   10.06262
      62      444        3     0.00000    9.94957   10.66058    7.24160
      63      444        3     0.00000    6.96536    1.86420    2.11704
      64      444        3     0.00000    8.42499    8.14409    7.25198
      65      444        3     0.00000   11.69303    4.39481    2.13747
      66      444        4     0.00000    9.73826   12.14832    5.36301
      67      444        4     0.00000    6.72768    0.38955    0.22920
      68      444        5     0.00000    9.11733   12.51808    4.55267
      69      444        5     0.00000   12.12251    0.03371    9.69377
      70      444        4     0.00000   11.01353    0.14740    5.61481
      71      444        4     0.00000    7.99613   12.36991    0.47412
      72      444        4     0.00000   11.75625   12.15023    6.68209
      73      444        4     0.00000    8.75132    0.35508    1.54004
      74      444        5     0.00000    6.50047   12.50843    6.91993
      75      444        5     0.00000    9.74435   12.50668    1.77336
      76      444        4     0.00000    8.73644    6.63370    5.40822
      77      444        4     0.00000   11.98084    5.90364    0.28669
      78      444        5     0.00000    9.38574    6.27291    4.61605
      79      444        5     0.00000    6.14452    6.26667    9.76620
      80      444        4     0.00000    9.18036    7.68099    6.23068
      81      444        4     0.00000   12.44110    4.86756    1.11596
      82      444        4     0.00000    9.23536   11.13588    6.19748
      83      444        4     0.00000    6.24244    1.40553    1.07106
      84      444        4     0.00000   11.18921   11.13810    7.47507
      85      444        4     0.00000    8.20102    1.37190    2.34060
      86      444        5     0.00000   11.73839   10.70967    8.30944
      87      444        4     0.00000    7.19853    7.62654    7.47302
      88      444        4     0.00000   10.46363    4.90458    2.35686
      89      444        5     0.00000    6.61608    8.05184    8.28732
      90      444        5     0.00000    9.88885    4.47744    3.17528
      91      444        4     0.00000    6.69139    6.57577    6.69176
      92      444        4     0.00000    9.94043    5.94500    1.56944
      93      444        5     0.00000   11.96054    6.17693    6.91975
      94      444        5     0.00000    8.95104    6.32683    1.80071
      95      444        4     0.00000    7.48025    6.06471    5.65205
      96      444        4     0.00000   10.71618    6.45777    0.52027
      97      444        4     0.00000   11.56540    1.24381    4.79419
      98      444        4     0.00000    8.30300   11.26755    9.92158
      99      444        4     0.00000    6.98827    4.94016    4.83586
     100      444        4     0.00000    9.98454    7.56629    9.95688
     101      444        6     0.00000    5.66676   10.58036    8.64199
     102      444        7     0.00000    5.56751    9.16569    8.96505
     103      444        5     0.00000    5.03088    8.58999    8.18293
     104      444        5     0.00000    6.58677    8.73255    9.04466
     105      444        5     0.00000    5.04188    9.03393    9.93477
     106      444        7     0.00000    6.34398   11.43674    9.60262
     107      444        5     0.00000    6.26886   12.51048    9.33325
     108      444        5     0.00000    6.09091   11.32673    0.32330
     109      444        5     0.00000    7.40886   11.13727    9.70216
     110      444        6     0.00000   11.14509    1.98641    0.87487
     111      444        7     0.00000   10.91252    3.40384    1.10366
     112      444        5     0.00000   11.85367    3.96295    1.28454
     113      444        5     0.00000   10.43779    3.85012    0.20462
     114      444        5     0.00000   10.23755    3.54174    1.97510
     115      444        7     0.00000    9.97940    1.15061    0.63526
     116      444        5     0.00000   10.23844    0.07269    0.58968
     117      444        5     0.00000    9.26291    1.26764    1.47551
     118      444        5     0.00000    9.23831    1.46406    9.97593
     119      444        6     0.00000    0.17053    8.18270    8.60906
     120      444        7     0.00000    0.20883    9.60735    8.89965
     121      444        5     0.00000    0.74039   10.18474    8.11532
     122      444        5     0.00000   11.67796   10.00268    8.94707
     123      444        5     0.00000    0.70749    9.78198    9.87681
     124      444        7     0.00000   12.01083    7.32370    9.57565
     125      444        5     0.00000   12.13260    6.24762    9.33411
     126      444        5     0.00000    0.18683    7.47547    0.30333
     127      444        5     0.00000   10.93341    7.58422    9.64526
     128      444        6     0.00000    7.53689    4.27888    0.93528
     129      444        7     0.00000    7.75301    2.85516    1.13983
     130      444        5     0.00000    6.80378    2.30075    1.29051
     131      444        5     0.00000    8.24199    2.42295    0.24155
     132      444        5     0.00000    8.40915    2.69383    2.02156
     133      444        7     0.00000    8.71409    5.10913    0.73599
     134      444        5     0.00000    8.46501    6.18998    0.70717
     135      444        5     0.00000    9.41255    4.96893    1.58781
     136      444        5     0.00000    9.01603    4.81008   10.08091
     137      444        6     0.00000    7.91585   10.51117    5.93921
     138      444        7     0.00000    7.05257   10.12851    7.04548
     139      444        5     0.00000    7.43594   10.48484    8.02383
     140      444        5     0.00000    6.04920   10.58285    6.90533
     141      444        5     0.00000    6.94739    9.02318    7.07990
     142      444        7     0.00000    7.51643   10.08901    4.60614
     143      444        5     0.00000    8.28884   10.32038    3.84394
     144      444        5     0.00000    7.38097    8.98694    4.59360
     145      444        5     0.00000    6.54776   10.55592    4.32823
     146      444        6     0.00000    8.94596    1.91723    3.50386
     147      444        7     0.00000    8.86525    3.33194    3.83194
     148      444        5     0.00000    8.32987    3.91620    3.05534
     149      444        5     0.00000    9.88995    3.75306    3.90578
     150      444        5     0.00000    8.34791    3.46668    4.80569
     151      444        7     0.00000    9.61992    1.05010    4.45713
     152      444        5     0.00000    9.53058   12.50156    4.18498
     153      444        5     0.00000    9.14746    1.16251    5.45573
     154      444        5     0.00000   10.68884    1.33701    4.55015
     155      444        6     0.00000   10.51701    8.29341    6.04502
     156      444        7     0.00000   10.70758    9.72172    6.24289
     157      444        5     0.00000    9.74872   10.25939    6.39323
     158      444        5     0.00000   11.18671   10.15881    5.34168
     159      444        5     0.00000   11.36251    9.89883    7.12248
     160      444        7     0.00000   11.70872    7.48387    5.84676
     161      444        5     0.00000   11.47932    6.39856    5.82318
     162      444        5     0.00000   -0.09930    7.64050    6.69644
     163      444        5     0.00000   12.23076    7.78845    4.91496
     164      444        6     0.00000    1.28409    4.27887    0.93529
     165      444        7     0.00000    1.50020    2.85515    1.13983
     166      444        5     0.00000    0.55097    2.30074    1.29051
     167      444        5     0.00000    1.98918    2.42294    0.24155
     168      444        5     0.00000    2.15634    2.69382    2.02156
     169      444        7     0.00000    2.46129    5.10911    0.73599
     170      444        5     0.00000    2.21222    6.18995    0.70717
     171      444        5     0.00000    3.15975    4.96891    1.58781
     172      444        5     0.00000    2.76324    4.81005   10.08091

Bonds

       1        1        1        4
       2        1        1        6
       3        1        1        8
       4        1        1       10
       5        2        1       11
       6        2        1       13
       7        1        2        5
       8        1        2        7
       9        2        2       14
      10        1        2       54
      11        1        2       60
      12        2        2       63
      13        3        3       50
      14        1        3       53
      15        3        4       51
      16        3        5       48
      17        3        6       49
      18        3        7       99
      19        3        8       51
      20        1        9       53
      21        3        9       97
      22        3       10       49
      23        4       11       32
      24        4       11       36
      25        4       12       33
      26        4       12       37
      27        2       12       53
      28        4       13       29
      29        4       13       39
      30        4       14       30
      31        4       14       40
      32        6       15       17
      33        5       15       19
      34        5       15       32
      35        5       16       20
      36        5       16       33
      37        6       16       69
      38        6       18       67
      39        5       19       21
      40        7       19       48
      41        5       20       22
      42        7       20       49
      43        5       21       36
      44        6       21       74
      45        6       22       24
      46        5       22       37
      47        6       23       72
      48        6       25       27
      49        5       25       29
      50        5       25       46
      51        5       26       30
      52        5       26       47
      53        6       26       79
      54        6       28       77
      55        6       29       31
      56        8       30      128
      57        6       32       34
      58        8       33      110
      59        6       35       83
      60        8       36      101
      61        6       37       38
      62        5       39       42
      63        8       39      119
      64        6       40       41
      65        5       40       43
      66        5       42       46
      67        6       42       93
      68        6       43       45
      69        5       43       47
      70        6       44       91
      71        7       46       50
      72        7       47       51
      73        3       48       60
      74        3       50       58
      75        1       52       55
      76        1       52       57
      77        1       52       59
      78        1       52       61
      79        2       52       62
      80        2       52       64
      81        1       53       56
      82        1       53       58
      83        2       53       65
      84        3       54       99
      85        3       55      100
      86        3       56       97
      87        3       57       98
      88        3       59      100
      89        3       61       98
      90        4       62       82
      91        4       62       84
      92        4       63       83
      93        4       63       85
      94        4       64       80
      95        4       64       87
      96        4       65       81
      97        4       65       88
      98        6       66       68
      99        5       66       70
     100        5       66       82
     101        5       67       71
     102        5       67       83
     103        5       70       72
     104        7       70       97
     105        5       71       73
     106        7       71       98
     107        5       72       84
     108        6       73       75
     109        5       73       85
     110        6       76       78
     111        5       76       80
     112        5       76       95
     113        5       77       81
     114        5       77       96
     115        8       80      155
     116        8       81      164
     117        8       82      137
     118        6       84       86
     119        8       85      146
     120        6       87       89
     121        5       87       91
     122        6       88       90
     123        5       88       92
     124        5       91       95
     125        6       92       94
     126        5       92       96
     127        7       95       99
     128        7       96      100
     129        9      101      102
     130        9      101      106
     131       10      102      103
     132       10      102      104
     133       10      102      105
     134       10      106      107
     135       10      106      108
     136       10      106      109
     137        9      110      111
     138        9      110      115
     139       10      111      112
     140       10      111      113
     141       10      111      114
     142       10      115      116
     143       10      115      117
     144       10      115      118
     145        9      119      120
     146        9      119      124
     147       10      120      121
     148       10      120      122
     149       10      120      123
     150       10      124      125
     151       10      124      126
     152       10      124      127
     153        9      128      129
     154        9      128      133
     155       10      129      130
     156       10      129      131
     157       10      129      132
     158       10      133      134
     159       10      133      135
     160       10      133      136
     161        9      137      138
     162        9      137      142
     163       10      138      139
     164       10      138      140
     165       10      138      141
     166       10      142      143
     167       10      142      144
     168       10      142      145
     169        9      146      147
     170        9      146      151
     171       10      147      148
     172       10      147      149
     173       10      147      150
     174       10      151      152
     175       10      151      153
     176       10      151      154
     177        9      155      156
     178        9      155      160
     179       10      156      157
     180       10      156      158
     181       10      156      159
     182       10      160      161
     183       10      160      162
     184       10      160      163
     185        9      164      165
     186        9      164      169
     187       10      165      166
     188       10      165      167
     189       10      165      168
     190       10      169      170
     191       10      169      171
     192       10      169      172

Angles

       1        1        4        1        6
       2        1        4        1        8
       3        1        4        1       10
       4        2        4        1       11
       5        2        4        1       13
       6        1        6        1        8
       7        1        6        1       10
       8        2        6        1       11
       9        2        6        1       13
      10        1        8        1       10
      11        2        8        1       11
      12        2        8        1       13
      13        2       10        1       11
      14        2       10        1       13
      15        3       11        1       13
      16        2       14        2        5
      17        2       14        2        7
      18        2       14        2       54
      19        2       14        2       60
      20        3       14        2       63
      21        1        5        2        7
      22        1        5        2       54
      23        1        5        2       60
      24        2        5        2       63
      25        1        7        2       54
      26        1        7        2       60
      27        2        7        2       63
      28        1       54        2       60
      29        2       54        2       63
      30        2       60        2       63
      31        4       50        3       53
      32        4        1        4       51
      33        4        2        5       48
      34        4        1        6       49
      35        4        2        7       99
      36        4        1        8       51
      37        4       53        9       97
      38        4        1       10       49
      39        5        1       11       32
      40        5        1       11       36
      41        6       32       11       36
      42        6       33       12       37
      43        5       33       12       53
      44        5       37       12       53
      45        5        1       13       29
      46        5        1       13       39
      47        6       29       13       39
      48        5        2       14       30
      49        5        2       14       40
      50        6       30       14       40
      51        7       19       15       17
      52        8       19       15       32
      53        7       17       15       32
      54        8       20       16       33
      55        7       20       16       69
      56        7       33       16       69
      57        8       15       19       21
      58        9       15       19       48
      59        9       21       19       48
      60        8       16       20       22
      61        9       16       20       49
      62        9       22       20       49
      63        8       19       21       36
      64        7       19       21       74
      65        7       36       21       74
      66        8       20       22       37
      67        7       20       22       24
      68        7       37       22       24
      69        8       29       25       46
      70        7       29       25       27
      71        7       46       25       27
      72        8       30       26       47
      73        7       30       26       79
      74        7       47       26       79
      75       10       13       29       25
      76       11       13       29       31
      77        7       25       29       31
      78       10       14       30       26
      79       12       14       30      128
      80       13       26       30      128
      81       10       11       32       15
      82       11       11       32       34
      83        7       15       32       34
      84       10       12       33       16
      85       12       12       33      110
      86       13       16       33      110
      87       10       21       36       11
      88       13       21       36      101
      89       12       11       36      101
      90       10       12       37       22
      91       11       12       37       38
      92        7       22       37       38
      93       10       13       39       42
      94       12       13       39      119
      95       13       42       39      119
      96       10       14       40       43
      97       11       14       40       41
      98        7       43       40       41
      99        8       39       42       46
     100        7       39       42       93
     101        7       46       42       93
     102        8       40       43       47
     103        7       40       43       45
     104        7       47       43       45
     105        8       25       46       42
     106        9       25       46       50
     107        9       42       46       50
     108        8       26       47       43
     109        9       26       47       51
     110        9       43       47       51
     111       14        5       48       19
     112       15        5       48       60
     113       14       19       48       60
     114       14       10       49       20
     115       15       10       49        6
     116       14       20       49        6
     117       14        3       50       46
     118       15        3       50       58
     119       14       46       50       58
     120       14        8       51       47
     121       15        8       51        4
     122       14       47       51        4
     123        1       55       52       57
     124        1       55       52       59
     125        1       55       52       61
     126        2       55       52       62
     127        2       55       52       64
     128        1       57       52       59
     129        1       57       52       61
     130        2       57       52       62
     131        2       57       52       64
     132        1       59       52       61
     133        2       59       52       62
     134        2       59       52       64
     135        2       61       52       62
     136        2       61       52       64
     137        3       62       52       64
     138        2        9       53       12
     139        1        9       53       56
     140        1        9       53        3
     141        1        9       53       58
     142        2        9       53       65
     143        2       12       53       56
     144        2       12       53        3
     145        2       12       53       58
     146        3       12       53       65
     147        1       56       53        3
     148        1       56       53       58
     149        2       56       53       65