Created on Tue Aug 25 11:51:25 2020 

         172 atoms
         192 bonds
         364 angles
         384 dihedrals
         192 impropers

           7 atom types
          10 bond types
          18 angle types
           5 dihedral types
           1 improper types
           0.000000  12.505600 xlo xhi
           0.000000  12.523400 ylo yhi
           0.000000  10.274279 zlo zhi
           0.000000  -0.227594   0.000000 xy xz yz

Masses

    1    58.693400000 # Ni4+2
    2    15.999400000 # O_R
    3    14.006700000 # N_R
    4    12.010700000 # C_R
    5     1.007940000 # H_
    6    14.006700000 # N_3
    7    12.010700000 # C_3

Bond Coeffs

    1      321.720028        1.793457  # Ni4+2 O_R
    2      328.673665        1.841585  # Ni4+2 N_R
    3      646.680887        1.311940  # O_R C_R
    4      663.718927        1.345073  # N_R C_R
    5      462.655054        1.379256  # C_R C_R
    6      560.312976        1.423192  # C_R N_3
    7      357.440381        1.081418  # H_ C_R
    8      391.669513        1.458000  # C_R C_R
    9      528.634538        1.451071  # N_3 C_3
   10      331.069389        1.109401  # C_3 H_

Angle Coeffs

    1              cosine/periodic      322.980216               1               4 # O_R Ni4+2 O_R
    2              cosine/periodic      343.030950               1               4 # O_R Ni4+2 N_R
    3              cosine/periodic      364.965660               1               4 # N_R Ni4+2 N_R
    4              cosine/periodic      238.346347              -1               3 # C_R O_R Ni4+2
    5              cosine/periodic      177.809033              -1               3 # Ni4+2 N_R C_R
    6              cosine/periodic      240.001032              -1               3 # C_R N_R C_R
    7              cosine/periodic      282.369526              -1               3 # C_R C_R N_3
    8              cosine/periodic      222.595017              -1               3 # C_R C_R C_R
    9              cosine/periodic      204.366560              -1               3 # C_R C_R C_R
   10              cosine/periodic      114.578032              -1               3 # C_R C_R H_
   11              cosine/periodic      307.398705              -1               3 # N_R C_R C_R
   12              cosine/periodic      159.573934              -1               3 # N_R C_R H_
   13              cosine/periodic      263.511421              -1               3 # O_R C_R C_R
   14              cosine/periodic      374.272657              -1               3 # O_R C_R O_R
   15                      fourier      268.482172        0.317506        0.313225        0.272502 # C_R N_3 C_3
   16                      fourier      260.869388        0.317506        0.313225        0.272502 # C_3 N_3 C_3
   17                      fourier      169.780468        0.343737        0.374972        0.281246 # N_3 C_3 H_
   18                      fourier       75.498766        0.343737        0.374972        0.281246 # H_ C_3 H_

Dihedral Coeffs

    1        2.245703              -1               2 # Ni4+2 O_R C_R C_R
    2        1.497136              -1               2 # Ni4+2 N_R C_R C_R
    3        0.111111               1               3 # C_R C_R N_3 C_3
    4        0.555556              -1               2 # C_R C_R C_R O_R
    5        0.040687               1               3 # C_R N_3 C_3 H_

Improper Coeffs

    1        2.000000        1.000000       -1.000000        0.000000               0 # Ni4+2 N_R C_R C_R

Pair Coeffs

    1        0.015000        2.524807 # Ni4+2 Ni4+2
    2        0.060000        3.118146 # O_R O_R
    3        0.069000        3.260689 # N_R N_R
    4        0.105000        3.430851 # C_R C_R
    5        0.044000        2.571134 # H_ H_
    6        0.069000        3.260689 # N_3 N_3
    7        0.105000        3.430851 # C_3 C_3

Atoms

       1      444        1     0.00000    2.89857    9.41116    8.59265
       2      444        1     0.00000    6.17525    3.10579    3.48481
       3      444        2     0.00000    1.44827    4.35425    3.93374
       4      444        2     0.00000    4.44160    8.15245    9.05464
       5      444        2     0.00000    4.63665    1.84729    3.87523
       6      444        2     0.00000    1.36499   10.67435    9.00295
       7      444        2     0.00000    5.80609    4.46033    4.96242
       8      444        2     0.00000    2.54244    8.03270   10.06753
       9      444        2     0.00000    0.25117    1.69264    4.94273
      10      444        2     0.00000    3.23722   10.80466   10.06262
      11      444        3     0.00000    3.69677   10.66058    7.24160
      12      444        3     0.00000    0.71256    1.86420    2.11704
      13      444        3     0.00000    2.17217    8.14409    7.25198
      14      444        3     0.00000    5.44023    4.39481    2.13747
      15      444        4     0.00000    3.48546   12.14832    5.36301
      16      444        4     0.00000    0.47488    0.38955    0.22920
      17      444        5     0.00000    5.86971    0.03371    9.69377
      18      444        4     0.00000    4.76073    0.14740    5.61481
      19      444        4     0.00000    1.74333   12.36991    0.47412
      20      444        4     0.00000    5.50345   12.15023    6.68209
      21      444        4     0.00000    2.49852    0.35508    1.54004
      22      444        5     0.00000    0.24768   12.50843    6.91993
      23      444        5     0.00000    3.49155   12.50668    1.77336
      24      444        4     0.00000    2.48363    6.63370    5.40822
      25      444        4     0.00000    5.72803    5.90364    0.28669
      26      444        4     0.00000    2.92756    7.68099    6.23068
      27      444        4     0.00000    6.18830    4.86756    1.11596
      28      444        5     0.00000    3.89994    8.14655    6.08890
      29      444        5     0.00000    0.91589    4.41889    0.97634
      30      444        4     0.00000    2.98256   11.13588    6.19748
      31      444        4     0.00000   -0.01036    1.40553    1.07106
      32      444        5     0.00000    1.99392   10.70905    6.04703
      33      444        5     0.00000    5.26093    1.85011    0.92351
      34      444        4     0.00000    4.93641   11.13810    7.47507
      35      444        4     0.00000    1.94823    1.37190    2.34060
      36      444        5     0.00000    5.48559   10.70967    8.30944
      37      444        5     0.00000    2.50886    1.79214    3.17267
      38      444        4     0.00000    0.94573    7.62654    7.47302
      39      444        4     0.00000    4.21083    4.90458    2.35686
      40      444        5     0.00000    0.36328    8.05184    8.28732
      41      444        5     0.00000    3.63605    4.47744    3.17528
      42      444        4     0.00000    0.43859    6.57577    6.69176
      43      444        4     0.00000    3.68763    5.94500    1.56944
      44      444        5     0.00000    5.70774    6.17693    6.91975
      45      444        4     0.00000    1.22745    6.06471    5.65205
      46      444        4     0.00000    4.46338    6.45777    0.52027
      47      444        4     0.00000    5.31260    1.24381    4.79419
      48      444        4     0.00000    2.05020   11.26755    9.92158
      49      444        4     0.00000    0.73548    4.94016    4.83586
      50      444        4     0.00000    3.73174    7.56629    9.95688
      51      444        1     0.00000    9.15137    9.41116    8.59265
      52      444        1     0.00000   12.42805    3.10579    3.48481
      53      444        2     0.00000    7.70109    4.35425    3.93374
      54      444        2     0.00000   10.69440    8.15245    9.05464
      55      444        2     0.00000   10.88945    1.84729    3.87523
      56      444        2     0.00000    7.61779   10.67435    9.00295
      57      444        2     0.00000   12.05889    4.46033    4.96242
      58      444        2     0.00000    8.79524    8.03270   10.06753
      59      444        2     0.00000    6.50397    1.69264    4.94273
      60      444        2     0.00000    9.49002   10.80466   10.06262
      61      444        3     0.00000    9.94957   10.66058    7.24160
      62      444        3     0.00000    6.96536    1.86420    2.11704
      63      444        3     0.00000    8.42499    8.14409    7.25198
      64      444        3     0.00000   11.69303    4.39481    2.13747
      65      444        4     0.00000    9.73826   12.14832    5.36301
      66      444        4     0.00000    6.72768    0.38955    0.22920
      67      444        4     0.00000   11.01353    0.14740    5.61481
      68      444        4     0.00000    7.99613   12.36991    0.47412
      69      444        4     0.00000   11.75625   12.15023    6.68209
      70      444        4     0.00000    8.75132    0.35508    1.54004
      71      444        5     0.00000    6.50047   12.50843    6.91993
      72      444        4     0.00000    8.73644    6.63370    5.40822
      73      444        4     0.00000   11.98084    5.90364    0.28669
      74      444        5     0.00000    6.14452    6.26667    9.76620
      75      444        4     0.00000    9.18036    7.68099    6.23068
      76      444        4     0.00000   12.44110    4.86756    1.11596
      77      444        5     0.00000   10.15274    8.14655    6.08890
      78      444        5     0.00000    7.16869    4.41889    0.97634
      79      444        4     0.00000    9.23536   11.13588    6.19748
      80      444        4     0.00000    6.24244    1.40553    1.07106
      81      444        5     0.00000    8.24672   10.70905    6.04703
      82      444        5     0.00000   11.51373    1.85011    0.92351
      83      444        4     0.00000   11.18921   11.13810    7.47507
      84      444        4     0.00000    8.20102    1.37190    2.34060
      85      444        5     0.00000   11.73839   10.70967    8.30944
      86      444        5     0.00000    8.76167    1.79214    3.17267
      87      444        4     0.00000    7.19853    7.62654    7.47302
      88      444        4     0.00000   10.46363    4.90458    2.35686
      89      444        5     0.00000    6.61608    8.05184    8.28732
      90      444        5     0.00000    9.88885    4.47744    3.17528
      91      444        4     0.00000    6.69139    6.57577    6.69176
      92      444        4     0.00000    9.94043    5.94500    1.56944
      93      444        5     0.00000   11.96054    6.17693    6.91975
      94      444        5     0.00000    8.95104    6.32683    1.80071
      95      444        4     0.00000    7.48025    6.06471    5.65205
      96      444        4     0.00000   10.71618    6.45777    0.52027
      97      444        4     0.00000   11.56540    1.24381    4.79419
      98      444        4     0.00000    8.30300   11.26755    9.92158
      99      444        4     0.00000    6.98827    4.94016    4.83586
     100      444        4     0.00000    9.98454    7.56629    9.95688
     101      444        6     0.00000    2.64967    0.03952    4.24156
     102      444        7     0.00000    1.20672    0.15495    4.38333
     103      444        5     0.00000    0.87323    0.02436    5.43348
     104      444        5     0.00000    0.88407    1.16828    4.06419
     105      444        5     0.00000    0.70119   11.92085    3.74721
     106      444        7     0.00000    3.20092    0.18428    2.90366
     107      444        5     0.00000    4.28809   12.48822    2.87200
     108      444        5     0.00000    2.71207   11.97933    2.22276
     109      444        5     0.00000    3.00152    1.20471    2.51312
     110      444        6     0.00000   11.86811   12.45113    9.43977
     111      444        7     0.00000   11.03570    0.86136    8.69751
     112      444        5     0.00000   11.25939    1.91882    8.94820
     113      444        5     0.00000   11.22304    0.73922    7.60994
     114      444        5     0.00000    9.96294    0.66047    8.90444
     115      444        7     0.00000   11.65582   11.03283    9.19854
     116      444        5     0.00000   12.24676   10.39684    9.88948
     117      444        5     0.00000   10.58822   10.78443    9.37635
     118      444        5     0.00000   11.89434   10.78156    8.14330
     119      444        6     0.00000    3.39364    6.16982    4.36816
     120      444        7     0.00000    4.21076    7.10697    3.61344
     121      444        5     0.00000    3.95577    8.16388    3.83485
     122      444        5     0.00000    4.04122    6.95315    2.52698
     123      444        5     0.00000    5.28564    6.94013    3.83886
     124      444        7     0.00000    3.64671    4.75224    4.16505
     125      444        5     0.00000    3.06372    4.11778    4.86410
     126      444        5     0.00000    4.71807    4.53707    4.36248
     127      444        5     0.00000    3.42901    4.46880    3.11347
     128      444        6     0.00000    2.33568    6.39570    1.87143
     129      444        7     0.00000    1.87052    6.50569    3.24513
     130      444        5     0.00000    2.68381    6.34001    3.98149
     131      444        5     0.00000    1.47715    7.52897    3.42112
     132      444        5     0.00000    1.05963    5.76961    3.43120
     133      444        7     0.00000    1.35126    6.58524    0.81797
     134      444        5     0.00000    1.53849    6.36744   10.08648
     135      444        5     0.00000    0.50741    5.87977    0.97072
     136      444        5     0.00000    0.94419    7.61803    0.85231
     137      444        6     0.00000    8.90247    0.03952    4.24156
     138      444        7     0.00000    7.45952    0.15495    4.38333
     139      444        5     0.00000    7.12603    0.02436    5.43348
     140      444        5     0.00000    7.13687    1.16828    4.06419
     141      444        5     0.00000    6.95399   11.92085    3.74721
     142      444        7     0.00000    9.45372    0.18428    2.90366
     143      444        5     0.00000   10.54089   12.48822    2.87200
     144      444        5     0.00000    8.96487   11.97933    2.22276
     145      444        5     0.00000    9.25432    1.20471    2.51312
     146      444        6     0.00000   10.07101   12.38176    1.90636
     147      444        7     0.00000   11.10896    0.76181    2.37752
     148      444        5     0.00000   10.81275    1.82764    2.29164
     149      444        5     0.00000   12.02263    0.62839    1.76091
     150      444        5     0.00000   11.35286    0.53927    3.43817
     151      444        7     0.00000   10.34582   10.95563    1.98023
     152      444        5     0.00000    9.45987   10.34343    1.71306
     153      444        5     0.00000   10.61312   10.68530    3.02358
     154      444        5     0.00000   11.20622   10.69477    1.32814
     155      444        6     0.00000    9.64645    6.16982    4.36817
     156      444        7     0.00000   10.46359    7.10695    3.61345
     157      444        5     0.00000   10.20859    8.16387    3.83485
     158      444        5     0.00000   10.29404    6.95314    2.52699
     159      444        5     0.00000   11.53845    6.94012    3.83887
     160      444        7     0.00000    9.89952    4.75224    4.16507
     161      444        5     0.00000    9.31652    4.11777    4.86411
     162      444        5     0.00000   10.97087    4.53707    4.36250
     163      444        5     0.00000    9.68182    4.46879    3.11349
     164      444        6     0.00000    0.11629    6.31008    9.46053
     165      444        7     0.00000    1.55882    6.38445    9.63109
     166      444        5     0.00000    2.09597    6.23136    0.41125
     167      444        5     0.00000    1.91470    7.39269    9.33170
     168      444        5     0.00000    2.05596    5.62177    8.99457
     169      444        7     0.00000   12.10061    6.48695    8.11449
     170      444        5     0.00000   11.00874    6.29750    8.05934
     171      444        5     0.00000    0.07712    5.75441    7.43328
     172      444        5     0.00000   -0.17074    7.50654    7.74149

Bonds

       1        1        1        4
       2        1        1        6
       3        1        1        8
       4        1        1       10
       5        2        1       11
       6        2        1       13
       7        1        2        5
       8        1        2        7
       9        2        2       14
      10        1        2       53
      11        1        2       59
      12        2        2       62
      13        3        3       49
      14        1        3       52
      15        3        4       50
      16        3        5       47
      17        3        6       48
      18        3        7       99
      19        3        8       50
      20        1        9       52
      21        3        9       97
      22        3       10       48
      23        4       11       30
      24        4       11       34
      25        4       12       31
      26        4       12       35
      27        2       12       52
      28        4       13       26
      29        4       13       38
      30        4       14       27
      31        4       14       39
      32        5       15       18
      33        5       15       30
      34        6       15      101
      35        5       16       19
      36        5       16       31
      37        6       16      110
      38        7       17       66
      39        5       18       20
      40        8       18       47
      41        5       19       21
      42        8       19       48
      43        5       20       34
      44        7       20       71
      45        7       21       23
      46        5       21       35
      47        7       22       69
      48        5       24       26
      49        5       24       45
      50        6       24      119
      51        5       25       27
      52        5       25       46
      53        7       25       74
      54        7       26       28
      55        7       27       78
      56        7       29       76
      57        7       30       32
      58        7       31       82
      59        7       33       80
      60        7       34       36
      61        7       35       37
      62        7       38       40
      63        5       38       42
      64        7       39       41
      65        5       39       43
      66        5       42       45
      67        7       42       93
      68        5       43       46
      69        6       43      128
      70        7       44       91
      71        8       45       49
      72        8       46       50
      73        3       47       59
      74        3       49       57
      75        1       51       54
      76        1       51       56
      77        1       51       58
      78        1       51       60
      79        2       51       61
      80        2       51       63
      81        1       52       55
      82        1       52       57
      83        2       52       64
      84        3       53       99
      85        3       54      100
      86        3       55       97
      87        3       56       98
      88        3       58      100
      89        3       60       98
      90        4       61       79
      91        4       61       83
      92        4       62       80
      93        4       62       84
      94        4       63       75
      95        4       63       87
      96        4       64       76
      97        4       64       88
      98        5       65       67
      99        5       65       79
     100        6       65      137
     101        5       66       68
     102        5       66       80
     103        5       67       69
     104        8       67       97
     105        5       68       70
     106        8       68       98
     107        5       69       83
     108        5       70       84
     109        6       70      146
     110        5       72       75
     111        5       72       95
     112        6       72      155
     113        5       73       76
     114        5       73       96
     115        6       73      164
     116        7       75       77
     117        7       79       81
     118        7       83       85
     119        7       84       86
     120        7       87       89
     121        5       87       91
     122        7       88       90
     123        5       88       92
     124        5       91       95
     125        7       92       94
     126        5       92       96
     127        8       95       99
     128        8       96      100
     129        9      101      102
     130        9      101      106
     131       10      102      103
     132       10      102      104
     133       10      102      105
     134       10      106      107
     135       10      106      108
     136       10      106      109
     137        9      110      111
     138        9      110      115
     139       10      111      112
     140       10      111      113
     141       10      111      114
     142       10      115      116
     143       10      115      117
     144       10      115      118
     145        9      119      120
     146        9      119      124
     147       10      120      121
     148       10      120      122
     149       10      120      123
     150       10      124      125
     151       10      124      126
     152       10      124      127
     153        9      128      129
     154        9      128      133
     155       10      129      130
     156       10      129      131
     157       10      129      132
     158       10      133      134
     159       10      133      135
     160       10      133      136
     161        9      137      138
     162        9      137      142
     163       10      138      139
     164       10      138      140
     165       10      138      141
     166       10      142      143
     167       10      142      144
     168       10      142      145
     169        9      146      147
     170        9      146      151
     171       10      147      148
     172       10      147      149
     173       10      147      150
     174       10      151      152
     175       10      151      153
     176       10      151      154
     177        9      155      156
     178        9      155      160
     179       10      156      157
     180       10      156      158
     181       10      156      159
     182       10      160      161
     183       10      160      162
     184       10      160      163
     185        9      164      165
     186        9      164      169
     187       10      165      166
     188       10      165      167
     189       10      165      168
     190       10      169      170
     191       10      169      171
     192       10      169      172

Angles

       1        1        4        1        6
       2        1        4        1        8
       3        1        4        1       10
       4        2        4        1       11
       5        2        4        1       13
       6        1        6        1        8
       7        1        6        1       10
       8        2        6        1       11
       9        2        6        1       13
      10        1        8        1       10
      11        2        8        1       11
      12        2        8        1       13
      13        2       10        1       11
      14        2       10        1       13
      15        3       11        1       13
      16        2       14        2        5
      17        2       14        2        7
      18        2       14        2       53
      19        2       14        2       59
      20        3       14        2       62
      21        1        5        2        7
      22        1        5        2       53
      23        1        5        2       59
      24        2        5        2       62
      25        1        7        2       53
      26        1        7        2       59
      27        2        7        2       62
      28        1       53        2       59
      29        2       53        2       62
      30        2       59        2       62
      31        4       49        3       52
      32        4        1        4       50
      33        4        2        5       47
      34        4        1        6       48
      35        4        2        7       99
      36        4        1        8       50
      37        4       52        9       97
      38        4        1       10       48
      39        5        1       11       30
      40        5        1       11       34
      41        6       30       11       34
      42        6       31       12       35
      43        5       31       12       52
      44        5       35       12       52
      45        5        1       13       26
      46        5        1       13       38
      47        6       26       13       38
      48        5        2       14       27
      49        5        2       14       39
      50        6       27       14       39
      51        7       18       15      101
      52        8       18       15       30
      53        7      101       15       30
      54        8       19       16       31
      55        7       19       16      110
      56        7       31       16      110
      57        8       15       18       20
      58        9       15       18       47
      59        9       20       18       47
      60        8       16       19       21
      61        9       16       19       48
      62        9       21       19       48
      63        8       18       20       34
      64       10       18       20       71
      65       10       34       20       71
      66        8       19       21       35
      67       10       19       21       23
      68       10       35       21       23
      69        8       26       24       45
      70        7       26       24      119
      71        7       45       24      119
      72        8       27       25       46
      73       10       27       25       74
      74       10       46       25       74
      75       11       13       26       24
      76       12       13       26       28
      77       10       24       26       28
      78       11       14       27       25
      79       12       14       27       78
      80       10       25       27       78
      81       11       11       30       15
      82       12       11       30       32
      83       10       15       30       32
      84       11       12       31       16
      85       12       12       31       82
      86       10       16       31       82
      87       11       20       34       11
      88       10       20       34       36
      89       12       11       34       36
      90       11       12       35       21
      91       12       12       35       37
      92       10       21       35       37
      93       11       13       38       42
      94       12       13       38       40
      95       10       42       38       40
      96       11       14       39       43
      97       12       14       39       41
      98       10       43       39       41
      99        8       38       42       45
     100       10       38       42       93
     101       10       45       42       93
     102        8       39       43       46
     103        7       39       43      128
     104        7       46       43      128
     105        8       24       45       42
     106        9       24       45       49
     107        9       42       45       49
     108        8       25       46       43
     109        9       25       46       50
     110        9       43       46       50
     111       13        5       47       18
     112       14        5       47       59
     113       13       18       47       59
     114       13       10       48       19
     115       14       10       48        6
     116       13       19       48        6
     117       13        3       49       45
     118       14        3       49       57
     119       13       45       49       57
     120       13        8       50       46
     121       14        8       50        4
     122       13       46       50        4
     123        1       54       51       56
     124        1       54       51       58
     125        1       54       51       60
     126        2       54       51       61
     127        2       54       51       63
     128        1       56       51       58
     129        1       56       51       60
     130        2       56       51       61
     131        2       56       51       63
     132        1       58       51       60
     133        2       58       51       61
     134        2       58       51       63
     135        2       60       51       61
     136        2       60       51       63
     137        3       61       51       63
     138        2        9       52       12
     139        1        9       52       55
     140        1        9       52        3
     141        1        9       52       57
     142        2        9       52       64
     143        2       12       52       55
     144        2       12       52        3
     145        2       12       52       57
     146        3       12       52       64
     147        1       55       52        3
     148        1       55       52       57
     149        2       55       52       64
     150        1        3       52       57
     151        2        3       52       64
     152        2       57       52       64