units           real
atom_style      full
boundary        p p p

pair_style      lj/cut 5.000
bond_style      harmonic
angle_style     hybrid cosine/periodic fourier
dihedral_style  harmonic
improper_style  fourier

dielectric      1.0
special_bonds   lj/coul 0.0 0.0 1.0
pair_modify     tail yes mix arithmetic
box tilt        large
read_data       data.NiPyC2_relax_sc211_ortho_functionalized_N-2CH3
  triclinic box = (0 0 0) to (12.5056 12.5234 10.2743) with tilt (0 -0.227594 0)
  1 by 1 by 1 MPI processor grid
  reading atoms ...
  172 atoms
  scanning bonds ...
  6 = max bonds/atom
  scanning angles ...
  15 = max angles/atom
  scanning dihedrals ...
  12 = max dihedrals/atom
  scanning impropers ...
  3 = max impropers/atom
  reading bonds ...
  192 bonds
  reading angles ...
  364 angles
  reading dihedrals ...
  384 dihedrals
  reading impropers ...
  192 impropers
  6 = max # of 1-2 neighbors
  9 = max # of 1-3 neighbors
  12 = max # of special neighbors
  special bonds CPU = 0.000181921 secs
  read_data CPU = 0.00555631 secs

#### Atom Groupings ####
group           fram     id   1:172
172 atoms in group fram
#### END Atom Groupings ####

dump            NiPyC2_relax_sc211_ortho_functionalized_N-2CH3_xyzmov all xyz 20000 NiPyC2_relax_sc211_ortho_functionalized_N-2CH3_mov.xyz
dump_modify     NiPyC2_relax_sc211_ortho_functionalized_N-2CH3_xyzmov element Ni O N C H N C
min_style       cg
print           "MinStep,CellMinStep,AtomMinStep,FinalStep,Energy,EDiff" file NiPyC2_relax_sc211_ortho_functionalized_N-2CH3.min.csv screen no
variable        min_eval   equal 1.00e-06
variable        prev_E     equal 50000.00
variable        iter       loop 100000
label           loop_min
min_style       cg
fix             1 all box/relax aniso 0.0 vmax 0.01
minimize        1.0e-15 1.0e-15 10000 100000
WARNING: Using 'neigh_modify every 1 delay 0 check yes' setting during minimization (src/min.cpp:190)
Neighbor list info ...
  update every 1 steps, delay 0 steps, check yes
  max neighbors/atom: 2000, page size: 100000
  master list distance cutoff = 7
  ghost atom cutoff = 7
  binsize = 3.5, bins = 4 4 3
  1 neighbor lists, perpetual/occasional/extra = 1 0 0
  (1) pair lj/cut, perpetual
      attributes: half, newton on
      pair build: half/bin/newton/tri
      stencil: half/bin/3d/newton/tri
      bin: standard
WARNING: Inconsistent image flags (src/domain.cpp:785)
WARNING: Bond/angle/dihedral extent > half of periodic box length (src/domain.cpp:906)
Per MPI rank memory allocation (min/avg/max) = 18.18 | 18.18 | 18.18 Mbytes
Step Temp E_pair E_mol TotEng Press Volume 
       0            0     95837675    2387.0457     95840062 1.6336856e+10    1609.0819 
     614            0     143.6713    1739.7693    1883.4406   -627.05555    1741.9073 
WARNING: Bond/angle/dihedral extent > half of periodic box length (src/domain.cpp:906)
Loop time of 0.25323 on 1 procs for 614 steps with 172 atoms

100.1% CPU use with 1 MPI tasks x 1 OpenMP threads

Minimization stats:
  Stopping criterion = linesearch alpha is zero
  Energy initial, next-to-last, final = 
         95840062.4201       1883.4405897       1883.4405897
  Force two-norm initial, final = 2.10426e+09 60.5321
  Force max component initial, final = 1.02464e+09 48.5143
  Final line search alpha, max atom move = 2.28425e-12 1.10819e-10
  Iterations, force evaluations = 614 1078

MPI task timing breakdown:
Section |  min time  |  avg time  |  max time  |%varavg| %total
---------------------------------------------------------------
Pair    | 0.12922    | 0.12922    | 0.12922    |   0.0 | 51.03
Bond    | 0.076703   | 0.076703   | 0.076703   |   0.0 | 30.29
Neigh   | 0.01647    | 0.01647    | 0.01647    |   0.0 |  6.50
Comm    | 0.007128   | 0.007128   | 0.007128   |   0.0 |  2.81
Output  | 0          | 0          | 0          |   0.0 |  0.00
Modify  | 0          | 0          | 0          |   0.0 |  0.00
Other   |            | 0.02371    |            |       |  9.36

Nlocal:    172 ave 172 max 172 min
Histogram: 1 0 0 0 0 0 0 0 0 0
Nghost:    1632 ave 1632 max 1632 min
Histogram: 1 0 0 0 0 0 0 0 0 0
Neighs:    11597 ave 11597 max 11597 min
Histogram: 1 0 0 0 0 0 0 0 0 0

Total # of neighbors = 11597
Ave neighs/atom = 67.4244
Ave special neighs/atom = 6.27907
Neighbor list builds = 25
Dangerous builds = 0
unfix           1
min_style       fire
variable        tempstp    equal $(step)
variable        tempstp    equal 614
variable        CellMinStep equal ${tempstp}
variable        CellMinStep equal 614
minimize        1.0e-15 1.0e-15 10000 100000
WARNING: Using 'neigh_modify every 1 delay 0 check yes' setting during minimization (src/min.cpp:190)
  Parameters for fire: 
    dmax delaystep dtgrow dtshrink alpha0 alphashrink tmax tmin    integrator halfstepback 
     0.1        20    1.1      0.5   0.25        0.99   10 0.02 eulerimplicit          yes 
WARNING: Inconsistent image flags (src/domain.cpp:785)
WARNING: Bond/angle/dihedral extent > half of periodic box length (src/domain.cpp:906)
Per MPI rank memory allocation (min/avg/max) = 17.06 | 17.06 | 17.06 Mbytes
Step Temp E_pair E_mol TotEng Press 
     614            0     143.6713    1739.7693    1883.4406   -627.05555 
    7964 1.4518499e-10    125.81518    1739.6847    1865.4999    -5216.548 
WARNING: Bond/angle/dihedral extent > half of periodic box length (src/domain.cpp:906)
Loop time of 1.47366 on 1 procs for 7350 steps with 172 atoms

100.1% CPU use with 1 MPI tasks x 1 OpenMP threads

Minimization stats:
  Stopping criterion = energy tolerance
  Energy initial, next-to-last, final = 
          1883.4405897      1865.49991701      1865.49991701
  Force two-norm initial, final = 33.4042 4.85931e-05
  Force max component initial, final = 5.1846 1.49345e-05
  Final line search alpha, max atom move = 0 0
  Iterations, force evaluations = 7350 7350

MPI task timing breakdown:
Section |  min time  |  avg time  |  max time  |%varavg| %total
---------------------------------------------------------------
Pair    | 0.91113    | 0.91113    | 0.91113    |   0.0 | 61.83
Bond    | 0.48034    | 0.48034    | 0.48034    |   0.0 | 32.59
Neigh   | 0.0009296  | 0.0009296  | 0.0009296  |   0.0 |  0.06
Comm    | 0.046113   | 0.046113   | 0.046113   |   0.0 |  3.13
Output  | 0          | 0          | 0          |   0.0 |  0.00
Modify  | 0          | 0          | 0          |   0.0 |  0.00
Other   |            | 0.03514    |            |       |  2.38

Nlocal:    172 ave 172 max 172 min
Histogram: 1 0 0 0 0 0 0 0 0 0
Nghost:    1612 ave 1612 max 1612 min
Histogram: 1 0 0 0 0 0 0 0 0 0
Neighs:    11492 ave 11492 max 11492 min
Histogram: 1 0 0 0 0 0 0 0 0 0

Total # of neighbors = 11492
Ave neighs/atom = 66.814
Ave special neighs/atom = 6.27907
Neighbor list builds = 1
Dangerous builds = 0
variable        AtomMinStep equal ${tempstp}
variable        AtomMinStep equal 614
variable        temppe     equal $(pe)
variable        temppe     equal 1865.4999170054804836
variable        min_E      equal abs(${prev_E}-${temppe})
variable        min_E      equal abs(50000-${temppe})
variable        min_E      equal abs(50000-1865.49991700548)
print           "${iter},${CellMinStep},${AtomMinStep},${AtomMinStep},$(pe),${min_E}" append NiPyC2_relax_sc211_ortho_functionalized_N-2CH3.min.csv screen no
if              "${min_E} < ${min_eval}" then "jump SELF break_min"
variable        prev_E     equal ${temppe}
variable        prev_E     equal 1865.49991700548
next            iter
jump            SELF loop_min
min_style       cg
fix             1 all box/relax aniso 0.0 vmax 0.01
minimize        1.0e-15 1.0e-15 10000 100000
WARNING: Using 'neigh_modify every 1 delay 0 check yes' setting during minimization (src/min.cpp:190)
WARNING: Inconsistent image flags (src/domain.cpp:785)
WARNING: Bond/angle/dihedral extent > half of periodic box length (src/domain.cpp:906)
Per MPI rank memory allocation (min/avg/max) = 18.18 | 18.18 | 18.18 Mbytes
Step Temp E_pair E_mol TotEng Press Volume 
    7964 1.4518499e-10    125.81518    1739.6847    1865.4999    -5216.548    1741.9073 
    7966 1.4518499e-10    131.07272    1733.9373      1865.01    465.06207     1736.583 
WARNING: Bond/angle/dihedral extent > half of periodic box length (src/domain.cpp:906)
Loop time of 0.0141533 on 1 procs for 2 steps with 172 atoms

100.2% CPU use with 1 MPI tasks x 1 OpenMP threads

Minimization stats:
  Stopping criterion = linesearch alpha is zero
  Energy initial, next-to-last, final = 
         1865.49991701      1865.01001768      1865.01001768
  Force two-norm initial, final = 356.852 45.7422
  Force max component initial, final = 336.04 38.1555
  Final line search alpha, max atom move = 3.85367e-12 1.47039e-10
  Iterations, force evaluations = 2 55

MPI task timing breakdown:
Section |  min time  |  avg time  |  max time  |%varavg| %total
---------------------------------------------------------------
Pair    | 0.00803    | 0.00803    | 0.00803    |   0.0 | 56.74
Bond    | 0.0042893  | 0.0042893  | 0.0042893  |   0.0 | 30.31
Neigh   | 0          | 0          | 0          |   0.0 |  0.00
Comm    | 0.00037792 | 0.00037792 | 0.00037792 |   0.0 |  2.67
Output  | 0          | 0          | 0          |   0.0 |  0.00
Modify  | 0          | 0          | 0          |   0.0 |  0.00
Other   |            | 0.001456   |            |       | 10.29

Nlocal:    172 ave 172 max 172 min
Histogram: 1 0 0 0 0 0 0 0 0 0
Nghost:    1620 ave 1620 max 1620 min
Histogram: 1 0 0 0 0 0 0 0 0 0
Neighs:    11494 ave 11494 max 11494 min
Histogram: 1 0 0 0 0 0 0 0 0 0

Total # of neighbors = 11494
Ave neighs/atom = 66.8256
Ave special neighs/atom = 6.27907
Neighbor list builds = 0
Dangerous builds = 0
unfix           1
min_style       fire
variable        tempstp    equal $(step)
variable        tempstp    equal 7966
variable        CellMinStep equal ${tempstp}
variable        CellMinStep equal 7966
minimize        1.0e-15 1.0e-15 10000 100000
WARNING: Using 'neigh_modify every 1 delay 0 check yes' setting during minimization (src/min.cpp:190)
  Parameters for fire: 
    dmax delaystep dtgrow dtshrink alpha0 alphashrink tmax tmin    integrator halfstepback 
     0.1        20    1.1      0.5   0.25        0.99   10 0.02 eulerimplicit          yes 
WARNING: Inconsistent image flags (src/domain.cpp:785)
WARNING: Bond/angle/dihedral extent > half of periodic box length (src/domain.cpp:906)
Per MPI rank memory allocation (min/avg/max) = 17.06 | 17.06 | 17.06 Mbytes
Step Temp E_pair E_mol TotEng Press 
    7966            0    131.07272    1733.9373      1865.01    465.06207 
   14968 1.230223e-10    129.21227    1735.5591    1864.7714   -3317.7813 
WARNING: Bond/angle/dihedral extent > half of periodic box length (src/domain.cpp:906)
Loop time of 1.40396 on 1 procs for 7002 steps with 172 atoms

100.1% CPU use with 1 MPI tasks x 1 OpenMP threads

Minimization stats:
  Stopping criterion = energy tolerance
  Energy initial, next-to-last, final = 
         1865.01001768      1864.77137114      1864.77137114
  Force two-norm initial, final = 22.6998 4.16273e-05
  Force max component initial, final = 4.46543 1.37903e-05
  Final line search alpha, max atom move = 0 0
  Iterations, force evaluations = 7002 7002

MPI task timing breakdown:
Section |  min time  |  avg time  |  max time  |%varavg| %total
---------------------------------------------------------------
Pair    | 0.869      | 0.869      | 0.869      |   0.0 | 61.90
Bond    | 0.4572     | 0.4572     | 0.4572     |   0.0 | 32.57
Neigh   | 0          | 0          | 0          |   0.0 |  0.00
Comm    | 0.044187   | 0.044187   | 0.044187   |   0.0 |  3.15
Output  | 0          | 0          | 0          |   0.0 |  0.00
Modify  | 0          | 0          | 0          |   0.0 |  0.00
Other   |            | 0.03357    |            |       |  2.39

Nlocal:    172 ave 172 max 172 min
Histogram: 1 0 0 0 0 0 0 0 0 0
Nghost:    1626 ave 1626 max 1626 min
Histogram: 1 0 0 0 0 0 0 0 0 0
Neighs:    11523 ave 11523 max 11523 min
Histogram: 1 0 0 0 0 0 0 0 0 0

Total # of neighbors = 11523
Ave neighs/atom = 66.9942
Ave special neighs/atom = 6.27907
Neighbor list builds = 0
Dangerous builds = 0
variable        AtomMinStep equal ${tempstp}
variable        AtomMinStep equal 7966
variable        temppe     equal $(pe)
variable        temppe     equal 1864.7713711445339868
variable        min_E      equal abs(${prev_E}-${temppe})
variable        min_E      equal abs(1865.49991700548-${temppe})
variable        min_E      equal abs(1865.49991700548-1864.77137114453)
print           "${iter},${CellMinStep},${AtomMinStep},${AtomMinStep},$(pe),${min_E}" append NiPyC2_relax_sc211_ortho_functionalized_N-2CH3.min.csv screen no
if              "${min_E} < ${min_eval}" then "jump SELF break_min"
variable        prev_E     equal ${temppe}
variable        prev_E     equal 1864.77137114453
next            iter
jump            SELF loop_min
min_style       cg
fix             1 all box/relax aniso 0.0 vmax 0.01
minimize        1.0e-15 1.0e-15 10000 100000
WARNING: Using 'neigh_modify every 1 delay 0 check yes' setting during minimization (src/min.cpp:190)
WARNING: Inconsistent image flags (src/domain.cpp:785)
WARNING: Bond/angle/dihedral extent > half of periodic box length (src/domain.cpp:906)
Per MPI rank memory allocation (min/avg/max) = 18.18 | 18.18 | 18.18 Mbytes
Step Temp E_pair E_mol TotEng Press Volume 
   14968 1.230223e-10    129.21227    1735.5591    1864.7714   -3317.7813     1736.583 
   14970 1.230223e-10    132.73348    1731.6807    1864.4142    467.00557    1733.1055 
WARNING: Bond/angle/dihedral extent > half of periodic box length (src/domain.cpp:906)
Loop time of 0.0141079 on 1 procs for 2 steps with 172 atoms

100.2% CPU use with 1 MPI tasks x 1 OpenMP threads

Minimization stats:
  Stopping criterion = linesearch alpha is zero
  Energy initial, next-to-last, final = 
         1864.77137114      1864.41418191      1864.41418191
  Force two-norm initial, final = 282.38 36.8877
  Force max component initial, final = 261.076 30.4537
  Final line search alpha, max atom move = 4.75351e-12 1.44762e-10
  Iterations, force evaluations = 2 55

MPI task timing breakdown:
Section |  min time  |  avg time  |  max time  |%varavg| %total
---------------------------------------------------------------
Pair    | 0.007922   | 0.007922   | 0.007922   |   0.0 | 56.15
Bond    | 0.0043164  | 0.0043164  | 0.0043164  |   0.0 | 30.60
Neigh   | 0          | 0          | 0          |   0.0 |  0.00
Comm    | 0.00037595 | 0.00037595 | 0.00037595 |   0.0 |  2.66
Output  | 0          | 0          | 0          |   0.0 |  0.00
Modify  | 0          | 0          | 0          |   0.0 |  0.00
Other   |            | 0.001494   |            |       | 10.59

Nlocal:    172 ave 172 max 172 min
Histogram: 1 0 0 0 0 0 0 0 0 0
Nghost:    1626 ave 1626 max 1626 min
Histogram: 1 0 0 0 0 0 0 0 0 0
Neighs:    11529 ave 11529 max 11529 min
Histogram: 1 0 0 0 0 0 0 0 0 0

Total # of neighbors = 11529
Ave neighs/atom = 67.0291
Ave special neighs/atom = 6.27907
Neighbor list builds = 0
Dangerous builds = 0
unfix           1
min_style       fire
variable        tempstp    equal $(step)
variable        tempstp    equal 14970
variable        CellMinStep equal ${tempstp}
variable        CellMinStep equal 14970
minimize        1.0e-15 1.0e-15 10000 100000
WARNING: Using 'neigh_modify every 1 delay 0 check yes' setting during minimization (src/min.cpp:190)
  Parameters for fire: 
    dmax delaystep dtgrow dtshrink alpha0 alphashrink tmax tmin    integrator halfstepback 
     0.1        20    1.1      0.5   0.25        0.99   10 0.02 eulerimplicit          yes 
WARNING: Inconsistent image flags (src/domain.cpp:785)
WARNING: Bond/angle/dihedral extent > half of periodic box length (src/domain.cpp:906)
Per MPI rank memory allocation (min/avg/max) = 17.06 | 17.06 | 17.06 Mbytes
Step Temp E_pair E_mol TotEng Press 
   14970            0    132.73348    1731.6807    1864.4142    467.00557 
   24970 3.1767621e-08    126.08626    1737.2998     1863.386   -3575.3828 
WARNING: Bond/angle/dihedral extent > half of periodic box length (src/domain.cpp:906)
Loop time of 2.02197 on 1 procs for 10000 steps with 172 atoms

99.5% CPU use with 1 MPI tasks x 1 OpenMP threads

Minimization stats:
  Stopping criterion = max iterations
  Energy initial, next-to-last, final = 
         1864.41418191      1863.38602769      1863.38602769
  Force two-norm initial, final = 18.6339 0.00110151
  Force max component initial, final = 3.54869 0.000251003
  Final line search alpha, max atom move = 0 0
  Iterations, force evaluations = 10000 10000

MPI task timing breakdown:
Section |  min time  |  avg time  |  max time  |%varavg| %total
---------------------------------------------------------------
Pair    | 1.2527     | 1.2527     | 1.2527     |   0.0 | 61.95
Bond    | 0.65782    | 0.65782    | 0.65782    |   0.0 | 32.53
Neigh   | 0          | 0          | 0          |   0.0 |  0.00
Comm    | 0.063577   | 0.063577   | 0.063577   |   0.0 |  3.14
Output  | 0.00019387 | 0.00019387 | 0.00019387 |   0.0 |  0.01
Modify  | 0          | 0          | 0          |   0.0 |  0.00
Other   |            | 0.04768    |            |       |  2.36

Nlocal:    172 ave 172 max 172 min
Histogram: 1 0 0 0 0 0 0 0 0 0
Nghost:    1630 ave 1630 max 1630 min
Histogram: 1 0 0 0 0 0 0 0 0 0
Neighs:    11552 ave 11552 max 11552 min
Histogram: 1 0 0 0 0 0 0 0 0 0

Total # of neighbors = 11552
Ave neighs/atom = 67.1628
Ave special neighs/atom = 6.27907
Neighbor list builds = 0
Dangerous builds = 0
variable        AtomMinStep equal ${tempstp}
variable        AtomMinStep equal 14970
variable        temppe     equal $(pe)
variable        temppe     equal 1863.3860276936484297
variable        min_E      equal abs(${prev_E}-${temppe})
variable        min_E      equal abs(1864.77137114453-${temppe})
variable        min_E      equal abs(1864.77137114453-1863.38602769365)
print           "${iter},${CellMinStep},${AtomMinStep},${AtomMinStep},$(pe),${min_E}" append NiPyC2_relax_sc211_ortho_functionalized_N-2CH3.min.csv screen no
if              "${min_E} < ${min_eval}" then "jump SELF break_min"
variable        prev_E     equal ${temppe}
variable        prev_E     equal 1863.38602769365
next            iter
jump            SELF loop_min
min_style       cg
fix             1 all box/relax aniso 0.0 vmax 0.01
minimize        1.0e-15 1.0e-15 10000 100000
WARNING: Using 'neigh_modify every 1 delay 0 check yes' setting during minimization (src/min.cpp:190)
WARNING: Inconsistent image flags (src/domain.cpp:785)
WARNING: Bond/angle/dihedral extent > half of periodic box length (src/domain.cpp:906)
Per MPI rank memory allocation (min/avg/max) = 18.18 | 18.18 | 18.18 Mbytes
Step Temp E_pair E_mol TotEng Press Volume 
   24970 3.1767621e-08    126.08626    1737.2998     1863.386   -3575.3828    1733.1055 
   24972 3.1767621e-08    129.83812    1733.1803    1863.0184    408.06186    1729.3179 
WARNING: Bond/angle/dihedral extent > half of periodic box length (src/domain.cpp:906)
Loop time of 0.0142852 on 1 procs for 2 steps with 172 atoms

100.2% CPU use with 1 MPI tasks x 1 OpenMP threads

Minimization stats:
  Stopping criterion = linesearch alpha is zero
  Energy initial, next-to-last, final = 
         1863.38602769      1863.01839587      1863.01839587
  Force two-norm initial, final = 278.151 44.0948
  Force max component initial, final = 245.889 32.5324
  Final line search alpha, max atom move = 4.38011e-12 1.42496e-10
  Iterations, force evaluations = 2 55

MPI task timing breakdown:
Section |  min time  |  avg time  |  max time  |%varavg| %total
---------------------------------------------------------------
Pair    | 0.0081166  | 0.0081166  | 0.0081166  |   0.0 | 56.82
Bond    | 0.0043397  | 0.0043397  | 0.0043397  |   0.0 | 30.38
Neigh   | 0          | 0          | 0          |   0.0 |  0.00
Comm    | 0.0003926  | 0.0003926  | 0.0003926  |   0.0 |  2.75
Output  | 0          | 0          | 0          |   0.0 |  0.00
Modify  | 0          | 0          | 0          |   0.0 |  0.00
Other   |            | 0.001436   |            |       | 10.05

Nlocal:    172 ave 172 max 172 min
Histogram: 1 0 0 0 0 0 0 0 0 0
Nghost:    1648 ave 1648 max 1648 min
Histogram: 1 0 0 0 0 0 0 0 0 0
Neighs:    11572 ave 11572 max 11572 min
Histogram: 1 0 0 0 0 0 0 0 0 0

Total # of neighbors = 11572
Ave neighs/atom = 67.2791
Ave special neighs/atom = 6.27907
Neighbor list builds = 0
Dangerous builds = 0
unfix           1
min_style       fire
variable        tempstp    equal $(step)
variable        tempstp    equal 24972
variable        CellMinStep equal ${tempstp}
variable        CellMinStep equal 24972
minimize        1.0e-15 1.0e-15 10000 100000
WARNING: Using 'neigh_modify every 1 delay 0 check yes' setting during minimization (src/min.cpp:190)
  Parameters for fire: 
    dmax delaystep dtgrow dtshrink alpha0 alphashrink tmax tmin    integrator halfstepback 
     0.1        20    1.1      0.5   0.25        0.99   10 0.02 eulerimplicit          yes 
WARNING: Inconsistent image flags (src/domain.cpp:785)
WARNING: Bond/angle/dihedral extent > half of periodic box length (src/domain.cpp:906)
Per MPI rank memory allocation (min/avg/max) = 17.06 | 17.06 | 17.06 Mbytes
Step Temp E_pair E_mol TotEng Press 
   24972            0    129.83812    1733.1803    1863.0184    408.06186 
   27795 1.1838972e-10    128.32945    1734.4039    1862.7334   -2248.8792 
WARNING: Bond/angle/dihedral extent > half of periodic box length (src/domain.cpp:906)
Loop time of 0.577364 on 1 procs for 2823 steps with 172 atoms

99.9% CPU use with 1 MPI tasks x 1 OpenMP threads

Minimization stats:
  Stopping criterion = energy tolerance
  Energy initial, next-to-last, final = 
         1863.01839587      1862.73337033      1862.73337033
  Force two-norm initial, final = 18.199 4.24924e-05
  Force max component initial, final = 3.50046 8.22199e-06
  Final line search alpha, max atom move = 0 0
  Iterations, force evaluations = 2823 2823

MPI task timing breakdown:
Section |  min time  |  avg time  |  max time  |%varavg| %total
---------------------------------------------------------------
Pair    | 0.35704    | 0.35704    | 0.35704    |   0.0 | 61.84
Bond    | 0.18779    | 0.18779    | 0.18779    |   0.0 | 32.53
Neigh   | 0          | 0          | 0          |   0.0 |  0.00
Comm    | 0.018414   | 0.018414   | 0.018414   |   0.0 |  3.19
Output  | 0          | 0          | 0          |   0.0 |  0.00
Modify  | 0          | 0          | 0          |   0.0 |  0.00
Other   |            | 0.01412    |            |       |  2.45

Nlocal:    172 ave 172 max 172 min
Histogram: 1 0 0 0 0 0 0 0 0 0
Nghost:    1648 ave 1648 max 1648 min
Histogram: 1 0 0 0 0 0 0 0 0 0
Neighs:    11601 ave 11601 max 11601 min
Histogram: 1 0 0 0 0 0 0 0 0 0

Total # of neighbors = 11601
Ave neighs/atom = 67.4477
Ave special neighs/atom = 6.27907
Neighbor list builds = 0
Dangerous builds = 0
variable        AtomMinStep equal ${tempstp}
variable        AtomMinStep equal 24972
variable        temppe     equal $(pe)
variable        temppe     equal 1862.7333703335420978
variable        min_E      equal abs(${prev_E}-${temppe})
variable        min_E      equal abs(1863.38602769365-${temppe})
variable        min_E      equal abs(1863.38602769365-1862.73337033354)
print           "${iter},${CellMinStep},${AtomMinStep},${AtomMinStep},$(pe),${min_E}" append NiPyC2_relax_sc211_ortho_functionalized_N-2CH3.min.csv screen no
if              "${min_E} < ${min_eval}" then "jump SELF break_min"
variable        prev_E     equal ${temppe}
variable        prev_E     equal 1862.73337033354
next            iter
jump            SELF loop_min
min_style       cg
fix             1 all box/relax aniso 0.0 vmax 0.01
minimize        1.0e-15 1.0e-15 10000 100000
WARNING: Using 'neigh_modify every 1 delay 0 check yes' setting during minimization (src/min.cpp:190)
WARNING: Inconsistent image flags (src/domain.cpp:785)
WARNING: Bond/angle/dihedral extent > half of periodic box length (src/domain.cpp:906)
Per MPI rank memory allocation (min/avg/max) = 18.18 | 18.18 | 18.18 Mbytes
Step Temp E_pair E_mol TotEng Press Volume 
   27795 1.1838972e-10    128.32945    1734.4039    1862.7334   -2248.8792    1729.3179 
   27798 1.1838972e-10     130.4123    1732.1012    1862.5135   -309.11813    1727.3573 
WARNING: Bond/angle/dihedral extent > half of periodic box length (src/domain.cpp:906)
Loop time of 0.0138466 on 1 procs for 3 steps with 172 atoms

100.2% CPU use with 1 MPI tasks x 1 OpenMP threads

Minimization stats:
  Stopping criterion = linesearch alpha is zero
  Energy initial, next-to-last, final = 
         1862.73337033       1862.5135112       1862.5135112
  Force two-norm initial, final = 221.886 21.0537
  Force max component initial, final = 187.486 11.6694
  Final line search alpha, max atom move = 2.25328e-11 2.62944e-10
  Iterations, force evaluations = 3 55

MPI task timing breakdown:
Section |  min time  |  avg time  |  max time  |%varavg| %total
---------------------------------------------------------------
Pair    | 0.0077614  | 0.0077614  | 0.0077614  |   0.0 | 56.05
Bond    | 0.0041902  | 0.0041902  | 0.0041902  |   0.0 | 30.26
Neigh   | 0          | 0          | 0          |   0.0 |  0.00
Comm    | 0.00038652 | 0.00038652 | 0.00038652 |   0.0 |  2.79
Output  | 0          | 0          | 0          |   0.0 |  0.00
Modify  | 0          | 0          | 0          |   0.0 |  0.00
Other   |            | 0.001508   |            |       | 10.89

Nlocal:    172 ave 172 max 172 min
Histogram: 1 0 0 0 0 0 0 0 0 0
Nghost:    1648 ave 1648 max 1648 min
Histogram: 1 0 0 0 0 0 0 0 0 0
Neighs:    11612 ave 11612 max 11612 min
Histogram: 1 0 0 0 0 0 0 0 0 0

Total # of neighbors = 11612
Ave neighs/atom = 67.5116
Ave special neighs/atom = 6.27907
Neighbor list builds = 0
Dangerous builds = 0
unfix           1
min_style       fire
variable        tempstp    equal $(step)
variable        tempstp    equal 27798
variable        CellMinStep equal ${tempstp}
variable        CellMinStep equal 27798
minimize        1.0e-15 1.0e-15 10000 100000
WARNING: Using 'neigh_modify every 1 delay 0 check yes' setting during minimization (src/min.cpp:190)
  Parameters for fire: 
    dmax delaystep dtgrow dtshrink alpha0 alphashrink tmax tmin    integrator halfstepback 
     0.1        20    1.1      0.5   0.25        0.99   10 0.02 eulerimplicit          yes 
WARNING: Inconsistent image flags (src/domain.cpp:785)
WARNING: Bond/angle/dihedral extent > half of periodic box length (src/domain.cpp:906)
Per MPI rank memory allocation (min/avg/max) = 17.06 | 17.06 | 17.06 Mbytes
Step Temp E_pair E_mol TotEng Press 
   27798            0     130.4123    1732.1012    1862.5135   -309.11813 
   30468 1.5784253e-10    129.63297    1732.6705    1862.3035   -1627.5002 
WARNING: Bond/angle/dihedral extent > half of periodic box length (src/domain.cpp:906)
Loop time of 0.544467 on 1 procs for 2670 steps with 172 atoms

99.1% CPU use with 1 MPI tasks x 1 OpenMP threads

Minimization stats:
  Stopping criterion = energy tolerance
  Energy initial, next-to-last, final = 
          1862.5135112      1862.30345616      1862.30345616
  Force two-norm initial, final = 15.2439 4.81009e-05
  Force max component initial, final = 2.49828 1.00814e-05
  Final line search alpha, max atom move = 0 0
  Iterations, force evaluations = 2670 2670

MPI task timing breakdown:
Section |  min time  |  avg time  |  max time  |%varavg| %total
---------------------------------------------------------------
Pair    | 0.33673    | 0.33673    | 0.33673    |   0.0 | 61.85
Bond    | 0.17717    | 0.17717    | 0.17717    |   0.0 | 32.54
Neigh   | 0          | 0          | 0          |   0.0 |  0.00
Comm    | 0.017358   | 0.017358   | 0.017358   |   0.0 |  3.19
Output  | 0          | 0          | 0          |   0.0 |  0.00
Modify  | 0          | 0          | 0          |   0.0 |  0.00
Other   |            | 0.01321    |            |       |  2.43

Nlocal:    172 ave 172 max 172 min
Histogram: 1 0 0 0 0 0 0 0 0 0
Nghost:    1648 ave 1648 max 1648 min
Histogram: 1 0 0 0 0 0 0 0 0 0
Neighs:    11621 ave 11621 max 11621 min
Histogram: 1 0 0 0 0 0 0 0 0 0

Total # of neighbors = 11621
Ave neighs/atom = 67.564
Ave special neighs/atom = 6.27907
Neighbor list builds = 0
Dangerous builds = 0
variable        AtomMinStep equal ${tempstp}
variable        AtomMinStep equal 27798
variable        temppe     equal $(pe)
variable        temppe     equal 1862.303456156789025
variable        min_E      equal abs(${prev_E}-${temppe})
variable        min_E      equal abs(1862.73337033354-${temppe})
variable        min_E      equal abs(1862.73337033354-1862.30345615679)
print           "${iter},${CellMinStep},${AtomMinStep},${AtomMinStep},$(pe),${min_E}" append NiPyC2_relax_sc211_ortho_functionalized_N-2CH3.min.csv screen no
if              "${min_E} < ${min_eval}" then "jump SELF break_min"
variable        prev_E     equal ${temppe}
variable        prev_E     equal 1862.30345615679
next            iter
jump            SELF loop_min
min_style       cg
fix             1 all box/relax aniso 0.0 vmax 0.01
minimize        1.0e-15 1.0e-15 10000 100000
WARNING: Using 'neigh_modify every 1 delay 0 check yes' setting during minimization (src/min.cpp:190)
WARNING: Inconsistent image flags (src/domain.cpp:785)
WARNING: Bond/angle/dihedral extent > half of periodic box length (src/domain.cpp:906)
Per MPI rank memory allocation (min/avg/max) = 18.18 | 18.18 | 18.18 Mbytes
Step Temp E_pair E_mol TotEng Press Volume 
   30468 1.5784253e-10    129.63297    1732.6705    1862.3035   -1627.5002    1727.3573 
   30470 1.5784253e-10       131.53     1730.616     1862.146    270.51027    1725.5606 
WARNING: Bond/angle/dihedral extent > half of periodic box length (src/domain.cpp:906)
Loop time of 0.0125731 on 1 procs for 2 steps with 172 atoms

82.5% CPU use with 1 MPI tasks x 1 OpenMP threads

Minimization stats:
  Stopping criterion = linesearch alpha is zero
  Energy initial, next-to-last, final = 
         1862.30345616      1862.14603392      1862.14603392
  Force two-norm initial, final = 182.989 28.6381
  Force max component initial, final = 149.353 18.0889
  Final line search alpha, max atom move = 1.50883e-11 2.7293e-10
  Iterations, force evaluations = 2 53

MPI task timing breakdown:
Section |  min time  |  avg time  |  max time  |%varavg| %total
---------------------------------------------------------------
Pair    | 0.0071117  | 0.0071117  | 0.0071117  |   0.0 | 56.56
Bond    | 0.0038192  | 0.0038192  | 0.0038192  |   0.0 | 30.38
Neigh   | 0          | 0          | 0          |   0.0 |  0.00
Comm    | 0.0003591  | 0.0003591  | 0.0003591  |   0.0 |  2.86
Output  | 0          | 0          | 0          |   0.0 |  0.00
Modify  | 0          | 0          | 0          |   0.0 |  0.00
Other   |            | 0.001283   |            |       | 10.21

Nlocal:    172 ave 172 max 172 min
Histogram: 1 0 0 0 0 0 0 0 0 0
Nghost:    1648 ave 1648 max 1648 min
Histogram: 1 0 0 0 0 0 0 0 0 0
Neighs:    11629 ave 11629 max 11629 min
Histogram: 1 0 0 0 0 0 0 0 0 0

Total # of neighbors = 11629
Ave neighs/atom = 67.6105
Ave special neighs/atom = 6.27907
Neighbor list builds = 0
Dangerous builds = 0
unfix           1
min_style       fire
variable        tempstp    equal $(step)
variable        tempstp    equal 30470
variable        CellMinStep equal ${tempstp}
variable        CellMinStep equal 30470
minimize        1.0e-15 1.0e-15 10000 100000
WARNING: Using 'neigh_modify every 1 delay 0 check yes' setting during minimization (src/min.cpp:190)
  Parameters for fire: 
    dmax delaystep dtgrow dtshrink alpha0 alphashrink tmax tmin    integrator halfstepback 
     0.1        20    1.1      0.5   0.25        0.99   10 0.02 eulerimplicit          yes 
WARNING: Inconsistent image flags (src/domain.cpp:785)
WARNING: Bond/angle/dihedral extent > half of periodic box length (src/domain.cpp:906)
Per MPI rank memory allocation (min/avg/max) = 17.06 | 17.06 | 17.06 Mbytes
Step Temp E_pair E_mol TotEng Press 
   30470            0       131.53     1730.616     1862.146    270.51027 
   33136 1.1383555e-10    130.93334    1731.1713    1862.1047   -1023.6187 
WARNING: Bond/angle/dihedral extent > half of periodic box length (src/domain.cpp:906)
Loop time of 0.54582 on 1 procs for 2666 steps with 172 atoms

98.5% CPU use with 1 MPI tasks x 1 OpenMP threads

Minimization stats:
  Stopping criterion = energy tolerance
  Energy initial, next-to-last, final = 
         1862.14603392      1862.10466908      1862.10466908
  Force two-norm initial, final = 12.5618 4.03202e-05
  Force max component initial, final = 2.22312 7.20217e-06
  Final line search alpha, max atom move = 0 0
  Iterations, force evaluations = 2666 2666

MPI task timing breakdown:
Section |  min time  |  avg time  |  max time  |%varavg| %total
---------------------------------------------------------------
Pair    | 0.33824    | 0.33824    | 0.33824    |   0.0 | 61.97
Bond    | 0.17686    | 0.17686    | 0.17686    |   0.0 | 32.40
Neigh   | 0          | 0          | 0          |   0.0 |  0.00
Comm    | 0.017463   | 0.017463   | 0.017463   |   0.0 |  3.20
Output  | 0          | 0          | 0          |   0.0 |  0.00
Modify  | 0          | 0          | 0          |   0.0 |  0.00
Other   |            | 0.01326    |            |       |  2.43

Nlocal:    172 ave 172 max 172 min
Histogram: 1 0 0 0 0 0 0 0 0 0
Nghost:    1648 ave 1648 max 1648 min
Histogram: 1 0 0 0 0 0 0 0 0 0
Neighs:    11640 ave 11640 max 11640 min
Histogram: 1 0 0 0 0 0 0 0 0 0

Total # of neighbors = 11640
Ave neighs/atom = 67.6744
Ave special neighs/atom = 6.27907
Neighbor list builds = 0
Dangerous builds = 0
variable        AtomMinStep equal ${tempstp}
variable        AtomMinStep equal 30470
variable        temppe     equal $(pe)
variable        temppe     equal 1862.1046690829475665
variable        min_E      equal abs(${prev_E}-${temppe})
variable        min_E      equal abs(1862.30345615679-${temppe})
variable        min_E      equal abs(1862.30345615679-1862.10466908295)
print           "${iter},${CellMinStep},${AtomMinStep},${AtomMinStep},$(pe),${min_E}" append NiPyC2_relax_sc211_ortho_functionalized_N-2CH3.min.csv screen no
if              "${min_E} < ${min_eval}" then "jump SELF break_min"
variable        prev_E     equal ${temppe}
variable        prev_E     equal 1862.10466908295
next            iter
jump            SELF loop_min
min_style       cg
fix             1 all box/relax aniso 0.0 vmax 0.01
minimize        1.0e-15 1.0e-15 10000 100000
WARNING: Using 'neigh_modify every 1 delay 0 check yes' setting during minimization (src/min.cpp:190)
WARNING: Inconsistent image flags (src/domain.cpp:785)
WARNING: Bond/angle/dihedral extent > half of periodic box length (src/domain.cpp:906)
Per MPI rank memory allocation (min/avg/max) = 18.18 | 18.18 | 18.18 Mbytes
Step Temp E_pair E_mol TotEng Press Volume 
   33136 1.1383555e-10    130.93334    1731.1713    1862.1047   -1023.6187    1725.5606 
   33139 1.1383555e-10    131.88415    1730.0745    1861.9587   -245.53865    1724.7009 
WARNING: Bond/angle/dihedral extent > half of periodic box length (src/domain.cpp:906)
Loop time of 0.0131521 on 1 procs for 3 steps with 172 atoms

100.2% CPU use with 1 MPI tasks x 1 OpenMP threads

Minimization stats:
  Stopping criterion = linesearch alpha is zero
  Energy initial, next-to-last, final = 
         1862.10466908       1861.9586647       1861.9586647
  Force two-norm initial, final = 151.352 15.4314
  Force max component initial, final = 115.152 8.40123
  Final line search alpha, max atom move = 2.93902e-11 2.46913e-10
  Iterations, force evaluations = 3 55

MPI task timing breakdown:
Section |  min time  |  avg time  |  max time  |%varavg| %total
---------------------------------------------------------------
Pair    | 0.0074182  | 0.0074182  | 0.0074182  |   0.0 | 56.40
Bond    | 0.0040083  | 0.0040083  | 0.0040083  |   0.0 | 30.48
Neigh   | 0          | 0          | 0          |   0.0 |  0.00
Comm    | 0.00037126 | 0.00037126 | 0.00037126 |   0.0 |  2.82
Output  | 0          | 0          | 0          |   0.0 |  0.00
Modify  | 0          | 0          | 0          |   0.0 |  0.00
Other   |            | 0.001354   |            |       | 10.30

Nlocal:    172 ave 172 max 172 min
Histogram: 1 0 0 0 0 0 0 0 0 0
Nghost:    1648 ave 1648 max 1648 min
Histogram: 1 0 0 0 0 0 0 0 0 0
Neighs:    11646 ave 11646 max 11646 min
Histogram: 1 0 0 0 0 0 0 0 0 0

Total # of neighbors = 11646
Ave neighs/atom = 67.7093
Ave special neighs/atom = 6.27907
Neighbor list builds = 0
Dangerous builds = 0
unfix           1
min_style       fire
variable        tempstp    equal $(step)
variable        tempstp    equal 33139
variable        CellMinStep equal ${tempstp}
variable        CellMinStep equal 33139
minimize        1.0e-15 1.0e-15 10000 100000
WARNING: Using 'neigh_modify every 1 delay 0 check yes' setting during minimization (src/min.cpp:190)
  Parameters for fire: 
    dmax delaystep dtgrow dtshrink alpha0 alphashrink tmax tmin    integrator halfstepback 
     0.1        20    1.1      0.5   0.25        0.99   10 0.02 eulerimplicit          yes 
WARNING: Inconsistent image flags (src/domain.cpp:785)
WARNING: Bond/angle/dihedral extent > half of periodic box length (src/domain.cpp:906)
Per MPI rank memory allocation (min/avg/max) = 17.06 | 17.06 | 17.06 Mbytes
Step Temp E_pair E_mol TotEng Press 
   33139            0    131.88415    1730.0745    1861.9587   -245.53865 
   35623 1.4768869e-10    131.62776    1730.2984    1861.9262   -795.61624 
WARNING: Bond/angle/dihedral extent > half of periodic box length (src/domain.cpp:906)
Loop time of 0.508088 on 1 procs for 2484 steps with 172 atoms

98.2% CPU use with 1 MPI tasks x 1 OpenMP threads

Minimization stats:
  Stopping criterion = energy tolerance
  Energy initial, next-to-last, final = 
          1861.9586647       1861.9261679       1861.9261679
  Force two-norm initial, final = 10.7772 4.26151e-05
  Force max component initial, final = 1.53373 8.31785e-06
  Final line search alpha, max atom move = 0 0
  Iterations, force evaluations = 2484 2484

MPI task timing breakdown:
Section |  min time  |  avg time  |  max time  |%varavg| %total
---------------------------------------------------------------
Pair    | 0.31518    | 0.31518    | 0.31518    |   0.0 | 62.03
Bond    | 0.16454    | 0.16454    | 0.16454    |   0.0 | 32.38
Neigh   | 0          | 0          | 0          |   0.0 |  0.00
Comm    | 0.016063   | 0.016063   | 0.016063   |   0.0 |  3.16
Output  | 0          | 0          | 0          |   0.0 |  0.00
Modify  | 0          | 0          | 0          |   0.0 |  0.00
Other   |            | 0.0123     |            |       |  2.42

Nlocal:    172 ave 172 max 172 min
Histogram: 1 0 0 0 0 0 0 0 0 0
Nghost:    1648 ave 1648 max 1648 min
Histogram: 1 0 0 0 0 0 0 0 0 0
Neighs:    11659 ave 11659 max 11659 min
Histogram: 1 0 0 0 0 0 0 0 0 0

Total # of neighbors = 11659
Ave neighs/atom = 67.7849
Ave special neighs/atom = 6.27907
Neighbor list builds = 0
Dangerous builds = 0
variable        AtomMinStep equal ${tempstp}
variable        AtomMinStep equal 33139
variable        temppe     equal $(pe)
variable        temppe     equal 1861.9261678995017064
variable        min_E      equal abs(${prev_E}-${temppe})
variable        min_E      equal abs(1862.10466908295-${temppe})
variable        min_E      equal abs(1862.10466908295-1861.9261678995)
print           "${iter},${CellMinStep},${AtomMinStep},${AtomMinStep},$(pe),${min_E}" append NiPyC2_relax_sc211_ortho_functionalized_N-2CH3.min.csv screen no
if              "${min_E} < ${min_eval}" then "jump SELF break_min"
variable        prev_E     equal ${temppe}
variable        prev_E     equal 1861.9261678995
next            iter
jump            SELF loop_min
min_style       cg
fix             1 all box/relax aniso 0.0 vmax 0.01
minimize        1.0e-15 1.0e-15 10000 100000
WARNING: Using 'neigh_modify every 1 delay 0 check yes' setting during minimization (src/min.cpp:190)
WARNING: Inconsistent image flags (src/domain.cpp:785)
WARNING: Bond/angle/dihedral extent > half of periodic box length (src/domain.cpp:906)
Per MPI rank memory allocation (min/avg/max) = 18.18 | 18.18 | 18.18 Mbytes
Step Temp E_pair E_mol TotEng Press Volume 
   35623 1.4768869e-10    131.62776    1730.2984    1861.9262   -795.61624    1724.7009 
   35633 1.4768869e-10    134.03368     1727.743    1861.7767   -81.447026    1722.8419 
WARNING: Bond/angle/dihedral extent > half of periodic box length (src/domain.cpp:906)
Loop time of 0.0189305 on 1 procs for 10 steps with 172 atoms

79.1% CPU use with 1 MPI tasks x 1 OpenMP threads

Minimization stats:
  Stopping criterion = linesearch alpha is zero
  Energy initial, next-to-last, final = 
          1861.9261679      1861.77672215      1861.77672215
  Force two-norm initial, final = 127.654 35.8814
  Force max component initial, final = 93.517 25.4073
  Final line search alpha, max atom move = 8.2434e-12 2.09442e-10
  Iterations, force evaluations = 10 75

MPI task timing breakdown:
Section |  min time  |  avg time  |  max time  |%varavg| %total
---------------------------------------------------------------
Pair    | 0.01053    | 0.01053    | 0.01053    |   0.0 | 55.63
Bond    | 0.0059061  | 0.0059061  | 0.0059061  |   0.0 | 31.20
Neigh   | 0          | 0          | 0          |   0.0 |  0.00
Comm    | 0.00051909 | 0.00051909 | 0.00051909 |   0.0 |  2.74
Output  | 0          | 0          | 0          |   0.0 |  0.00
Modify  | 0          | 0          | 0          |   0.0 |  0.00
Other   |            | 0.001975   |            |       | 10.43

Nlocal:    172 ave 172 max 172 min
Histogram: 1 0 0 0 0 0 0 0 0 0
Nghost:    1648 ave 1648 max 1648 min
Histogram: 1 0 0 0 0 0 0 0 0 0
Neighs:    11660 ave 11660 max 11660 min
Histogram: 1 0 0 0 0 0 0 0 0 0

Total # of neighbors = 11660
Ave neighs/atom = 67.7907
Ave special neighs/atom = 6.27907
Neighbor list builds = 0
Dangerous builds = 0
unfix           1
min_style       fire
variable        tempstp    equal $(step)
variable        tempstp    equal 35633
variable        CellMinStep equal ${tempstp}
variable        CellMinStep equal 35633
minimize        1.0e-15 1.0e-15 10000 100000
WARNING: Using 'neigh_modify every 1 delay 0 check yes' setting during minimization (src/min.cpp:190)
  Parameters for fire: 
    dmax delaystep dtgrow dtshrink alpha0 alphashrink tmax tmin    integrator halfstepback 
     0.1        20    1.1      0.5   0.25        0.99   10 0.02 eulerimplicit          yes 
WARNING: Inconsistent image flags (src/domain.cpp:785)
WARNING: Bond/angle/dihedral extent > half of periodic box length (src/domain.cpp:906)
Per MPI rank memory allocation (min/avg/max) = 17.06 | 17.06 | 17.06 Mbytes
Step Temp E_pair E_mol TotEng Press 
   35633            0    134.03368     1727.743    1861.7767   -81.447026 
   38603 9.0495405e-11    132.92238     1728.759    1861.6813   -323.75052 
WARNING: Bond/angle/dihedral extent > half of periodic box length (src/domain.cpp:906)
Loop time of 0.61923 on 1 procs for 2970 steps with 172 atoms

99.9% CPU use with 1 MPI tasks x 1 OpenMP threads

Minimization stats:
  Stopping criterion = energy tolerance
  Energy initial, next-to-last, final = 
         1861.77672215      1861.68133923      1861.68133923
  Force two-norm initial, final = 8.70524 3.77816e-05
  Force max component initial, final = 1.32025 6.77914e-06
  Final line search alpha, max atom move = 0 0
  Iterations, force evaluations = 2970 2970

MPI task timing breakdown:
Section |  min time  |  avg time  |  max time  |%varavg| %total
---------------------------------------------------------------
Pair    | 0.38398    | 0.38398    | 0.38398    |   0.0 | 62.01
Bond    | 0.20017    | 0.20017    | 0.20017    |   0.0 | 32.32
Neigh   | 0          | 0          | 0          |   0.0 |  0.00
Comm    | 0.019856   | 0.019856   | 0.019856   |   0.0 |  3.21
Output  | 0          | 0          | 0          |   0.0 |  0.00
Modify  | 0          | 0          | 0          |   0.0 |  0.00
Other   |            | 0.01523    |            |       |  2.46

Nlocal:    172 ave 172 max 172 min
Histogram: 1 0 0 0 0 0 0 0 0 0
Nghost:    1648 ave 1648 max 1648 min
Histogram: 1 0 0 0 0 0 0 0 0 0
Neighs:    11673 ave 11673 max 11673 min
Histogram: 1 0 0 0 0 0 0 0 0 0

Total # of neighbors = 11673
Ave neighs/atom = 67.8663
Ave special neighs/atom = 6.27907
Neighbor list builds = 0
Dangerous builds = 0
variable        AtomMinStep equal ${tempstp}
variable        AtomMinStep equal 35633
variable        temppe     equal $(pe)
variable        temppe     equal 1861.6813392331291652
variable        min_E      equal abs(${prev_E}-${temppe})
variable        min_E      equal abs(1861.9261678995-${temppe})
variable        min_E      equal abs(1861.9261678995-1861.68133923313)
print           "${iter},${CellMinStep},${AtomMinStep},${AtomMinStep},$(pe),${min_E}" append NiPyC2_relax_sc211_ortho_functionalized_N-2CH3.min.csv screen no
if              "${min_E} < ${min_eval}" then "jump SELF break_min"
variable        prev_E     equal ${temppe}
variable        prev_E     equal 1861.68133923313
next            iter
jump            SELF loop_min
min_style       cg
fix             1 all box/relax aniso 0.0 vmax 0.01
minimize        1.0e-15 1.0e-15 10000 100000
WARNING: Using 'neigh_modify every 1 delay 0 check yes' setting during minimization (src/min.cpp:190)
WARNING: Inconsistent image flags (src/domain.cpp:785)
WARNING: Bond/angle/dihedral extent > half of periodic box length (src/domain.cpp:906)
Per MPI rank memory allocation (min/avg/max) = 18.18 | 18.18 | 18.18 Mbytes
Step Temp E_pair E_mol TotEng Press Volume 
   38603 9.0495405e-11    132.92238     1728.759    1861.6813   -323.75052    1722.8419 
   38605 9.0495405e-11    133.39497    1728.2554    1861.6503    47.988058    1722.4642 
WARNING: Bond/angle/dihedral extent > half of periodic box length (src/domain.cpp:906)
Loop time of 0.0135598 on 1 procs for 2 steps with 172 atoms

80.8% CPU use with 1 MPI tasks x 1 OpenMP threads

Minimization stats:
  Stopping criterion = linesearch alpha is zero
  Energy initial, next-to-last, final = 
         1861.68133923      1861.65034755      1861.65034755
  Force two-norm initial, final = 84.1002 13.3346
  Force max component initial, final = 57.5829 8.08946
  Final line search alpha, max atom move = 6.86645e-11 5.55458e-10
  Iterations, force evaluations = 2 51

MPI task timing breakdown:
Section |  min time  |  avg time  |  max time  |%varavg| %total
---------------------------------------------------------------
Pair    | 0.0078506  | 0.0078506  | 0.0078506  |   0.0 | 57.90
Bond    | 0.0039874  | 0.0039874  | 0.0039874  |   0.0 | 29.41
Neigh   | 0          | 0          | 0          |   0.0 |  0.00
Comm    | 0.00036089 | 0.00036089 | 0.00036089 |   0.0 |  2.66
Output  | 0          | 0          | 0          |   0.0 |  0.00
Modify  | 0          | 0          | 0          |   0.0 |  0.00
Other   |            | 0.001361   |            |       | 10.04

Nlocal:    172 ave 172 max 172 min
Histogram: 1 0 0 0 0 0 0 0 0 0
Nghost:    1648 ave 1648 max 1648 min
Histogram: 1 0 0 0 0 0 0 0 0 0
Neighs:    11673 ave 11673 max 11673 min
Histogram: 1 0 0 0 0 0 0 0 0 0

Total # of neighbors = 11673
Ave neighs/atom = 67.8663
Ave special neighs/atom = 6.27907
Neighbor list builds = 0
Dangerous builds = 0
unfix           1
min_style       fire
variable        tempstp    equal $(step)
variable        tempstp    equal 38605
variable        CellMinStep equal ${tempstp}
variable        CellMinStep equal 38605
minimize        1.0e-15 1.0e-15 10000 100000
WARNING: Using 'neigh_modify every 1 delay 0 check yes' setting during minimization (src/min.cpp:190)
  Parameters for fire: 
    dmax delaystep dtgrow dtshrink alpha0 alphashrink tmax tmin    integrator halfstepback 
     0.1        20    1.1      0.5   0.25        0.99   10 0.02 eulerimplicit          yes 
WARNING: Inconsistent image flags (src/domain.cpp:785)
WARNING: Bond/angle/dihedral extent > half of periodic box length (src/domain.cpp:906)
Per MPI rank memory allocation (min/avg/max) = 17.06 | 17.06 | 17.06 Mbytes
Step Temp E_pair E_mol TotEng Press 
   38605            0    133.39497    1728.2554    1861.6503    47.988058 
   40893 1.014226e-10    133.26094    1728.3484    1861.6093   -231.06042 
WARNING: Bond/angle/dihedral extent > half of periodic box length (src/domain.cpp:906)
Loop time of 0.470596 on 1 procs for 2288 steps with 172 atoms

99.1% CPU use with 1 MPI tasks x 1 OpenMP threads

Minimization stats:
  Stopping criterion = energy tolerance
  Energy initial, next-to-last, final = 
         1861.65034755      1861.60933096      1861.60933096
  Force two-norm initial, final = 6.07553 3.80166e-05
  Force max component initial, final = 0.883924 7.26114e-06
  Final line search alpha, max atom move = 0 0
  Iterations, force evaluations = 2288 2288

MPI task timing breakdown:
Section |  min time  |  avg time  |  max time  |%varavg| %total
---------------------------------------------------------------
Pair    | 0.29194    | 0.29194    | 0.29194    |   0.0 | 62.04
Bond    | 0.15216    | 0.15216    | 0.15216    |   0.0 | 32.33
Neigh   | 0          | 0          | 0          |   0.0 |  0.00
Comm    | 0.014888   | 0.014888   | 0.014888   |   0.0 |  3.16
Output  | 0.00016807 | 0.00016807 | 0.00016807 |   0.0 |  0.04
Modify  | 0          | 0          | 0          |   0.0 |  0.00
Other   |            | 0.01144    |            |       |  2.43

Nlocal:    172 ave 172 max 172 min
Histogram: 1 0 0 0 0 0 0 0 0 0
Nghost:    1648 ave 1648 max 1648 min
Histogram: 1 0 0 0 0 0 0 0 0 0
Neighs:    11675 ave 11675 max 11675 min
Histogram: 1 0 0 0 0 0 0 0 0 0

Total # of neighbors = 11675
Ave neighs/atom = 67.8779
Ave special neighs/atom = 6.27907
Neighbor list builds = 0
Dangerous builds = 0
variable        AtomMinStep equal ${tempstp}
variable        AtomMinStep equal 38605
variable        temppe     equal $(pe)
variable        temppe     equal 1861.6093309626701284
variable        min_E      equal abs(${prev_E}-${temppe})
variable        min_E      equal abs(1861.68133923313-${temppe})
variable        min_E      equal abs(1861.68133923313-1861.60933096267)
print           "${iter},${CellMinStep},${AtomMinStep},${AtomMinStep},$(pe),${min_E}" append NiPyC2_relax_sc211_ortho_functionalized_N-2CH3.min.csv screen no
if              "${min_E} < ${min_eval}" then "jump SELF break_min"
variable        prev_E     equal ${temppe}
variable        prev_E     equal 1861.60933096267
next            iter
jump            SELF loop_min
min_style       cg
fix             1 all box/relax aniso 0.0 vmax 0.01
minimize        1.0e-15 1.0e-15 10000 100000
WARNING: Using 'neigh_modify every 1 delay 0 check yes' setting during minimization (src/min.cpp:190)
WARNING: Inconsistent image flags (src/domain.cpp:785)
WARNING: Bond/angle/dihedral extent > half of periodic box length (src/domain.cpp:906)
Per MPI rank memory allocation (min/avg/max) = 18.18 | 18.18 | 18.18 Mbytes
Step Temp E_pair E_mol TotEng Press Volume 
   40893 1.014226e-10    133.26094    1728.3484    1861.6093   -231.06042    1722.4642 
   40895 1.014226e-10    133.61226    1727.9694    1861.5817    19.362753    1722.1898 
WARNING: Bond/angle/dihedral extent > half of periodic box length (src/domain.cpp:906)
Loop time of 0.0133238 on 1 procs for 2 steps with 172 atoms

100.2% CPU use with 1 MPI tasks x 1 OpenMP threads

Minimization stats:
  Stopping criterion = linesearch alpha is zero
  Energy initial, next-to-last, final = 
         1861.60933096      1861.58167609      1861.58167609
  Force two-norm initial, final = 71.493 12.2547
  Force max component initial, final = 50.9963 8.07935
  Final line search alpha, max atom move = 6.78586e-11 5.48253e-10
  Iterations, force evaluations = 2 51

MPI task timing breakdown:
Section |  min time  |  avg time  |  max time  |%varavg| %total
---------------------------------------------------------------
Pair    | 0.0076101  | 0.0076101  | 0.0076101  |   0.0 | 57.12
Bond    | 0.0040076  | 0.0040076  | 0.0040076  |   0.0 | 30.08
Neigh   | 0          | 0          | 0          |   0.0 |  0.00
Comm    | 0.00035961 | 0.00035961 | 0.00035961 |   0.0 |  2.70
Output  | 0          | 0          | 0          |   0.0 |  0.00
Modify  | 0          | 0          | 0          |   0.0 |  0.00
Other   |            | 0.001347   |            |       | 10.11

Nlocal:    172 ave 172 max 172 min
Histogram: 1 0 0 0 0 0 0 0 0 0
Nghost:    1648 ave 1648 max 1648 min
Histogram: 1 0 0 0 0 0 0 0 0 0
Neighs:    11672 ave 11672 max 11672 min
Histogram: 1 0 0 0 0 0 0 0 0 0

Total # of neighbors = 11672
Ave neighs/atom = 67.8605
Ave special neighs/atom = 6.27907
Neighbor list builds = 0
Dangerous builds = 0
unfix           1
min_style       fire
variable        tempstp    equal $(step)
variable        tempstp    equal 40895
variable        CellMinStep equal ${tempstp}
variable        CellMinStep equal 40895
minimize        1.0e-15 1.0e-15 10000 100000
WARNING: Using 'neigh_modify every 1 delay 0 check yes' setting during minimization (src/min.cpp:190)
  Parameters for fire: 
    dmax delaystep dtgrow dtshrink alpha0 alphashrink tmax tmin    integrator halfstepback 
     0.1        20    1.1      0.5   0.25        0.99   10 0.02 eulerimplicit          yes 
WARNING: Inconsistent image flags (src/domain.cpp:785)
WARNING: Bond/angle/dihedral extent > half of periodic box length (src/domain.cpp:906)
Per MPI rank memory allocation (min/avg/max) = 17.06 | 17.06 | 17.06 Mbytes
Step Temp E_pair E_mol TotEng Press 
   40895            0    133.61226    1727.9694    1861.5817    19.362753 
   43162 8.0154113e-11    133.51483     1728.042    1861.5568    -175.6551 
WARNING: Bond/angle/dihedral extent > half of periodic box length (src/domain.cpp:906)
Loop time of 0.467363 on 1 procs for 2267 steps with 172 atoms

99.9% CPU use with 1 MPI tasks x 1 OpenMP threads

Minimization stats:
  Stopping criterion = energy tolerance
  Energy initial, next-to-last, final = 
         1861.58167609      1861.55682331      1861.55682331
  Force two-norm initial, final = 5.23157 3.56027e-05
  Force max component initial, final = 0.733898 6.55024e-06
  Final line search alpha, max atom move = 0 0
  Iterations, force evaluations = 2267 2267

MPI task timing breakdown:
Section |  min time  |  avg time  |  max time  |%varavg| %total
---------------------------------------------------------------
Pair    | 0.28987    | 0.28987    | 0.28987    |   0.0 | 62.02
Bond    | 0.15117    | 0.15117    | 0.15117    |   0.0 | 32.34
Neigh   | 0          | 0          | 0          |   0.0 |  0.00
Comm    | 0.014951   | 0.014951   | 0.014951   |   0.0 |  3.20
Output  | 0          | 0          | 0          |   0.0 |  0.00
Modify  | 0          | 0          | 0          |   0.0 |  0.00
Other   |            | 0.01138    |            |       |  2.43

Nlocal:    172 ave 172 max 172 min
Histogram: 1 0 0 0 0 0 0 0 0 0
Nghost:    1648 ave 1648 max 1648 min
Histogram: 1 0 0 0 0 0 0 0 0 0
Neighs:    11676 ave 11676 max 11676 min
Histogram: 1 0 0 0 0 0 0 0 0 0

Total # of neighbors = 11676
Ave neighs/atom = 67.8837
Ave special neighs/atom = 6.27907
Neighbor list builds = 0
Dangerous builds = 0
variable        AtomMinStep equal ${tempstp}
variable        AtomMinStep equal 40895
variable        temppe     equal $(pe)
variable        temppe     equal 1861.5568233103008424
variable        min_E      equal abs(${prev_E}-${temppe})
variable        min_E      equal abs(1861.60933096267-${temppe})
variable        min_E      equal abs(1861.60933096267-1861.5568233103)
print           "${iter},${CellMinStep},${AtomMinStep},${AtomMinStep},$(pe),${min_E}" append NiPyC2_relax_sc211_ortho_functionalized_N-2CH3.min.csv screen no
if              "${min_E} < ${min_eval}" then "jump SELF break_min"
variable        prev_E     equal ${temppe}
variable        prev_E     equal 1861.5568233103
next            iter
jump            SELF loop_min
min_style       cg
fix             1 all box/relax aniso 0.0 vmax 0.01
minimize        1.0e-15 1.0e-15 10000 100000
WARNING: Using 'neigh_modify every 1 delay 0 check yes' setting during minimization (src/min.cpp:190)
WARNING: Inconsistent image flags (src/domain.cpp:785)
WARNING: Bond/angle/dihedral extent > half of periodic box length (src/domain.cpp:906)
Per MPI rank memory allocation (min/avg/max) = 18.18 | 18.18 | 18.18 Mbytes
Step Temp E_pair E_mol TotEng Press Volume 
   43162 8.0154113e-11    133.51483     1728.042    1861.5568    -175.6551    1722.1898 
   43164 8.0154113e-11    133.75538    1727.7431    1861.4985   -3.2158441    1721.9769 
WARNING: Bond/angle/dihedral extent > half of periodic box length (src/domain.cpp:906)
Loop time of 0.0123461 on 1 procs for 2 steps with 172 atoms

100.2% CPU use with 1 MPI tasks x 1 OpenMP threads

Minimization stats:
  Stopping criterion = linesearch alpha is zero
  Energy initial, next-to-last, final = 
         1861.55682331      1861.49847293      1861.49847293
  Force two-norm initial, final = 61.0915 11.4274
  Force max component initial, final = 44.7029 8.00085
  Final line search alpha, max atom move = 6.78842e-11 5.43131e-10
  Iterations, force evaluations = 2 51

MPI task timing breakdown:
Section |  min time  |  avg time  |  max time  |%varavg| %total
---------------------------------------------------------------
Pair    | 0.00701    | 0.00701    | 0.00701    |   0.0 | 56.78
Bond    | 0.003749   | 0.003749   | 0.003749   |   0.0 | 30.37
Neigh   | 0          | 0          | 0          |   0.0 |  0.00
Comm    | 0.00034616 | 0.00034616 | 0.00034616 |   0.0 |  2.80
Output  | 0          | 0          | 0          |   0.0 |  0.00
Modify  | 0          | 0          | 0          |   0.0 |  0.00
Other   |            | 0.001241   |            |       | 10.05

Nlocal:    172 ave 172 max 172 min
Histogram: 1 0 0 0 0 0 0 0 0 0
Nghost:    1648 ave 1648 max 1648 min
Histogram: 1 0 0 0 0 0 0 0 0 0
Neighs:    11674 ave 11674 max 11674 min
Histogram: 1 0 0 0 0 0 0 0 0 0

Total # of neighbors = 11674
Ave neighs/atom = 67.8721
Ave special neighs/atom = 6.27907
Neighbor list builds = 0
Dangerous builds = 0
unfix           1
min_style       fire
variable        tempstp    equal $(step)
variable        tempstp    equal 43164
variable        CellMinStep equal ${tempstp}
variable        CellMinStep equal 43164
minimize        1.0e-15 1.0e-15 10000 100000
WARNING: Using 'neigh_modify every 1 delay 0 check yes' setting during minimization (src/min.cpp:190)
  Parameters for fire: 
    dmax delaystep dtgrow dtshrink alpha0 alphashrink tmax tmin    integrator halfstepback 
     0.1        20    1.1      0.5   0.25        0.99   10 0.02 eulerimplicit          yes 
WARNING: Inconsistent image flags (src/domain.cpp:785)
WARNING: Bond/angle/dihedral extent > half of periodic box length (src/domain.cpp:906)
Per MPI rank memory allocation (min/avg/max) = 17.06 | 17.06 | 17.06 Mbytes
Step Temp E_pair E_mol TotEng Press 
   43164            0    133.75538    1727.7431    1861.4985   -3.2158441 
   45316 1.501604e-10     133.6881    1727.8076    1861.4957   -143.57113 
WARNING: Bond/angle/dihedral extent > half of periodic box length (src/domain.cpp:906)
Loop time of 0.440663 on 1 procs for 2152 steps with 172 atoms

99.0% CPU use with 1 MPI tasks x 1 OpenMP threads

Minimization stats:
  Stopping criterion = energy tolerance
  Energy initial, next-to-last, final = 
         1861.49847293      1861.49565725      1861.49565725
  Force two-norm initial, final = 4.53821 4.17099e-05
  Force max component initial, final = 0.645755 7.63993e-06
  Final line search alpha, max atom move = 0 0
  Iterations, force evaluations = 2152 2152

MPI task timing breakdown:
Section |  min time  |  avg time  |  max time  |%varavg| %total
---------------------------------------------------------------
Pair    | 0.2734     | 0.2734     | 0.2734     |   0.0 | 62.04
Bond    | 0.14267    | 0.14267    | 0.14267    |   0.0 | 32.38
Neigh   | 0          | 0          | 0          |   0.0 |  0.00
Comm    | 0.013965   | 0.013965   | 0.013965   |   0.0 |  3.17
Output  | 0          | 0          | 0          |   0.0 |  0.00
Modify  | 0          | 0          | 0          |   0.0 |  0.00
Other   |            | 0.01063    |            |       |  2.41

Nlocal:    172 ave 172 max 172 min
Histogram: 1 0 0 0 0 0 0 0 0 0
Nghost:    1648 ave 1648 max 1648 min
Histogram: 1 0 0 0 0 0 0 0 0 0
Neighs:    11679 ave 11679 max 11679 min
Histogram: 1 0 0 0 0 0 0 0 0 0

Total # of neighbors = 11679
Ave neighs/atom = 67.9012
Ave special neighs/atom = 6.27907
Neighbor list builds = 0
Dangerous builds = 0
variable        AtomMinStep equal ${tempstp}
variable        AtomMinStep equal 43164
variable        temppe     equal $(pe)
variable        temppe     equal 1861.4956572539542776
variable        min_E      equal abs(${prev_E}-${temppe})
variable        min_E      equal abs(1861.5568233103-${temppe})
variable        min_E      equal abs(1861.5568233103-1861.49565725395)
print           "${iter},${CellMinStep},${AtomMinStep},${AtomMinStep},$(pe),${min_E}" append NiPyC2_relax_sc211_ortho_functionalized_N-2CH3.min.csv screen no
if              "${min_E} < ${min_eval}" then "jump SELF break_min"
variable        prev_E     equal ${temppe}
variable        prev_E     equal 1861.49565725395
next            iter
jump            SELF loop_min
min_style       cg
fix             1 all box/relax aniso 0.0 vmax 0.01
minimize        1.0e-15 1.0e-15 10000 100000
WARNING: Using 'neigh_modify every 1 delay 0 check yes' setting during minimization (src/min.cpp:190)
WARNING: Inconsistent image flags (src/domain.cpp:785)
WARNING: Bond/angle/dihedral extent > half of periodic box length (src/domain.cpp:906)
Per MPI rank memory allocation (min/avg/max) = 18.18 | 18.18 | 18.18 Mbytes
Step Temp E_pair E_mol TotEng Press Volume 
   45316 1.501604e-10     133.6881    1727.8076    1861.4957   -143.57113    1721.9769 
   45318 1.501604e-10    133.91985    1727.5593    1861.4791   -13.562306    1721.7989 
WARNING: Bond/angle/dihedral extent > half of periodic box length (src/domain.cpp:906)
Loop time of 0.0130696 on 1 procs for 2 steps with 172 atoms

99.8% CPU use with 1 MPI tasks x 1 OpenMP threads

Minimization stats:
  Stopping criterion = linesearch alpha is zero
  Energy initial, next-to-last, final = 
         1861.49565725      1861.47913978      1861.47913978
  Force two-norm initial, final = 52.5305 10.8881
  Force max component initial, final = 38.9075 7.71099
  Final line search alpha, max atom move = 6.87027e-11 5.29766e-10
  Iterations, force evaluations = 2 51

MPI task timing breakdown:
Section |  min time  |  avg time  |  max time  |%varavg| %total
---------------------------------------------------------------
Pair    | 0.0073392  | 0.0073392  | 0.0073392  |   0.0 | 56.15
Bond    | 0.0039474  | 0.0039474  | 0.0039474  |   0.0 | 30.20
Neigh   | 0          | 0          | 0          |   0.0 |  0.00
Comm    | 0.0003679  | 0.0003679  | 0.0003679  |   0.0 |  2.81
Output  | 0          | 0          | 0          |   0.0 |  0.00
Modify  | 0          | 0          | 0          |   0.0 |  0.00
Other   |            | 0.001415   |            |       | 10.83

Nlocal:    172 ave 172 max 172 min
Histogram: 1 0 0 0 0 0 0 0 0 0
Nghost:    1648 ave 1648 max 1648 min
Histogram: 1 0 0 0 0 0 0 0 0 0
Neighs:    11678 ave 11678 max 11678 min
Histogram: 1 0 0 0 0 0 0 0 0 0

Total # of neighbors = 11678
Ave neighs/atom = 67.8953
Ave special neighs/atom = 6.27907
Neighbor list builds = 0
Dangerous builds = 0
unfix           1
min_style       fire
variable        tempstp    equal $(step)
variable        tempstp    equal 45318
variable        CellMinStep equal ${tempstp}
variable        CellMinStep equal 45318
minimize        1.0e-15 1.0e-15 10000 100000
WARNING: Using 'neigh_modify every 1 delay 0 check yes' setting during minimization (src/min.cpp:190)
  Parameters for fire: 
    dmax delaystep dtgrow dtshrink alpha0 alphashrink tmax tmin    integrator halfstepback 
     0.1        20    1.1      0.5   0.25        0.99   10 0.02 eulerimplicit          yes 
WARNING: Inconsistent image flags (src/domain.cpp:785)
WARNING: Bond/angle/dihedral extent > half of periodic box length (src/domain.cpp:906)
Per MPI rank memory allocation (min/avg/max) = 17.06 | 17.06 | 17.06 Mbytes
Step Temp E_pair E_mol TotEng Press 
   45318            0    133.91985    1727.5593    1861.4791   -13.562306 
   47431 1.0374771e-10    133.85588    1727.6119    1861.4678   -115.16563 
WARNING: Bond/angle/dihedral extent > half of periodic box length (src/domain.cpp:906)
Loop time of 0.435603 on 1 procs for 2113 steps with 172 atoms

98.8% CPU use with 1 MPI tasks x 1 OpenMP threads

Minimization stats:
  Stopping criterion = energy tolerance
  Energy initial, next-to-last, final = 
         1861.47913978      1861.46781974      1861.46781974
  Force two-norm initial, final = 3.96938 3.85299e-05
  Force max component initial, final = 0.567937 7.91395e-06
  Final line search alpha, max atom move = 0 0
  Iterations, force evaluations = 2113 2113

MPI task timing breakdown:
Section |  min time  |  avg time  |  max time  |%varavg| %total
---------------------------------------------------------------
Pair    | 0.27033    | 0.27033    | 0.27033    |   0.0 | 62.06
Bond    | 0.14079    | 0.14079    | 0.14079    |   0.0 | 32.32
Neigh   | 0          | 0          | 0          |   0.0 |  0.00
Comm    | 0.01385    | 0.01385    | 0.01385    |   0.0 |  3.18
Output  | 0          | 0          | 0          |   0.0 |  0.00
Modify  | 0          | 0          | 0          |   0.0 |  0.00
Other   |            | 0.01063    |            |       |  2.44

Nlocal:    172 ave 172 max 172 min
Histogram: 1 0 0 0 0 0 0 0 0 0
Nghost:    1648 ave 1648 max 1648 min
Histogram: 1 0 0 0 0 0 0 0 0 0
Neighs:    11681 ave 11681 max 11681 min
Histogram: 1 0 0 0 0 0 0 0 0 0

Total # of neighbors = 11681
Ave neighs/atom = 67.9128
Ave special neighs/atom = 6.27907
Neighbor list builds = 0
Dangerous builds = 0
variable        AtomMinStep equal ${tempstp}
variable        AtomMinStep equal 45318
variable        temppe     equal $(pe)
variable        temppe     equal 1861.4678197369057671
variable        min_E      equal abs(${prev_E}-${temppe})
variable        min_E      equal abs(1861.49565725395-${temppe})
variable        min_E      equal abs(1861.49565725395-1861.46781973691)
print           "${iter},${CellMinStep},${AtomMinStep},${AtomMinStep},$(pe),${min_E}" append NiPyC2_relax_sc211_ortho_functionalized_N-2CH3.min.csv screen no
if              "${min_E} < ${min_eval}" then "jump SELF break_min"
variable        prev_E     equal ${temppe}
variable        prev_E     equal 1861.46781973691
next            iter
jump            SELF loop_min
min_style       cg
fix             1 all box/relax aniso 0.0 vmax 0.01
minimize        1.0e-15 1.0e-15 10000 100000
WARNING: Using 'neigh_modify every 1 delay 0 check yes' setting during minimization (src/min.cpp:190)
WARNING: Inconsistent image flags (src/domain.cpp:785)
WARNING: Bond/angle/dihedral extent > half of periodic box length (src/domain.cpp:906)
Per MPI rank memory allocation (min/avg/max) = 18.18 | 18.18 | 18.18 Mbytes
Step Temp E_pair E_mol TotEng Press Volume 
   47431 1.0374771e-10    133.85588    1727.6119    1861.4678   -115.16563    1721.7989 
   47432 1.0374771e-10    133.85588    1727.6119    1861.4678   -115.16563    1721.7989 
WARNING: Bond/angle/dihedral extent > half of periodic box length (src/domain.cpp:906)
Loop time of 0.0185906 on 1 procs for 1 steps with 172 atoms

74.4% CPU use with 1 MPI tasks x 1 OpenMP threads

Minimization stats:
  Stopping criterion = linesearch alpha is zero
  Energy initial, next-to-last, final = 
         1861.46781974      1861.46781974      1861.46781974
  Force two-norm initial, final = 45.2863 45.2863
  Force max component initial, final = 33.8544 33.8544
  Final line search alpha, max atom move = 4.40154e-12 1.49012e-10
  Iterations, force evaluations = 1 53

MPI task timing breakdown:
Section |  min time  |  avg time  |  max time  |%varavg| %total
---------------------------------------------------------------
Pair    | 0.0079135  | 0.0079135  | 0.0079135  |   0.0 | 42.57
Bond    | 0.0041934  | 0.0041934  | 0.0041934  |   0.0 | 22.56
Neigh   | 0          | 0          | 0          |   0.0 |  0.00
Comm    | 0.00037457 | 0.00037457 | 0.00037457 |   0.0 |  2.01
Output  | 0          | 0          | 0          |   0.0 |  0.00
Modify  | 0          | 0          | 0          |   0.0 |  0.00
Other   |            | 0.006109   |            |       | 32.86

Nlocal:    172 ave 172 max 172 min
Histogram: 1 0 0 0 0 0 0 0 0 0
Nghost:    1648 ave 1648 max 1648 min
Histogram: 1 0 0 0 0 0 0 0 0 0
Neighs:    11679 ave 11679 max 11679 min
Histogram: 1 0 0 0 0 0 0 0 0 0

Total # of neighbors = 11679
Ave neighs/atom = 67.9012
Ave special neighs/atom = 6.27907
Neighbor list builds = 0
Dangerous builds = 0
unfix           1
min_style       fire
variable        tempstp    equal $(step)
variable        tempstp    equal 47432
variable        CellMinStep equal ${tempstp}
variable        CellMinStep equal 47432
minimize        1.0e-15 1.0e-15 10000 100000
WARNING: Using 'neigh_modify every 1 delay 0 check yes' setting during minimization (src/min.cpp:190)
  Parameters for fire: 
    dmax delaystep dtgrow dtshrink alpha0 alphashrink tmax tmin    integrator halfstepback 
     0.1        20    1.1      0.5   0.25        0.99   10 0.02 eulerimplicit          yes 
WARNING: Inconsistent image flags (src/domain.cpp:785)
WARNING: Bond/angle/dihedral extent > half of periodic box length (src/domain.cpp:906)
Per MPI rank memory allocation (min/avg/max) = 17.06 | 17.06 | 17.06 Mbytes
Step Temp E_pair E_mol TotEng Press 
   47432            0    133.85588    1727.6119    1861.4678   -115.16563 
   47486 7.1298886e-11    133.85587     1727.612    1861.4678   -115.16865 
WARNING: Bond/angle/dihedral extent > half of periodic box length (src/domain.cpp:906)
Loop time of 0.0132982 on 1 procs for 54 steps with 172 atoms

100.2% CPU use with 1 MPI tasks x 1 OpenMP threads

Minimization stats:
  Stopping criterion = energy tolerance
  Energy initial, next-to-last, final = 
         1861.46781974      1861.46781974      1861.46781974
  Force two-norm initial, final = 3.85299e-05 3.36239e-05
  Force max component initial, final = 7.91395e-06 6.91807e-06
  Final line search alpha, max atom move = 0 0
  Iterations, force evaluations = 54 54

MPI task timing breakdown:
Section |  min time  |  avg time  |  max time  |%varavg| %total
---------------------------------------------------------------
Pair    | 0.0081126  | 0.0081126  | 0.0081126  |   0.0 | 61.01
Bond    | 0.0042377  | 0.0042377  | 0.0042377  |   0.0 | 31.87
Neigh   | 0          | 0          | 0          |   0.0 |  0.00
Comm    | 0.00040868 | 0.00040868 | 0.00040868 |   0.0 |  3.07
Output  | 0          | 0          | 0          |   0.0 |  0.00
Modify  | 0          | 0          | 0          |   0.0 |  0.00
Other   |            | 0.0005392  |            |       |  4.06

Nlocal:    172 ave 172 max 172 min
Histogram: 1 0 0 0 0 0 0 0 0 0
Nghost:    1648 ave 1648 max 1648 min
Histogram: 1 0 0 0 0 0 0 0 0 0
Neighs:    11679 ave 11679 max 11679 min
Histogram: 1 0 0 0 0 0 0 0 0 0

Total # of neighbors = 11679
Ave neighs/atom = 67.9012
Ave special neighs/atom = 6.27907
Neighbor list builds = 0
Dangerous builds = 0
variable        AtomMinStep equal ${tempstp}
variable        AtomMinStep equal 47432
variable        temppe     equal $(pe)
variable        temppe     equal 1861.4678197367691155
variable        min_E      equal abs(${prev_E}-${temppe})
variable        min_E      equal abs(1861.46781973691-${temppe})
variable        min_E      equal abs(1861.46781973691-1861.46781973677)
print           "${iter},${CellMinStep},${AtomMinStep},${AtomMinStep},$(pe),${min_E}" append NiPyC2_relax_sc211_ortho_functionalized_N-2CH3.min.csv screen no
if              "${min_E} < ${min_eval}" then "jump SELF break_min"
jump SELF break_min
undump          NiPyC2_relax_sc211_ortho_functionalized_N-2CH3_xyzmov

# Dump last snapshot for restart
variable curr_lx equal lx
variable curr_ly equal ly
variable curr_lz equal lz
change_box all x final 0 ${curr_lx} y final 0 ${curr_ly} z final 0 ${curr_lz}
change_box all x final 0 15.8992126919493 y final 0 ${curr_ly} z final 0 ${curr_lz}
change_box all x final 0 15.8992126919493 y final 0 10.280874267252 z final 0 ${curr_lz}
change_box all x final 0 15.8992126919493 y final 0 10.280874267252 z final 0 10.5335982782709
  triclinic box = (0 1.12126 -0.12966) to (15.8992 11.4021 10.4039) with tilt (0 -0.233338 0)
  triclinic box = (0 0 -0.12966) to (15.8992 10.2809 10.4039) with tilt (0 -0.233338 0)
  triclinic box = (0 0 0) to (15.8992 10.2809 10.5336) with tilt (0 -0.233338 0)

reset_timestep 0
dump            NiPyC2_relax_sc211_ortho_functionalized_N-2CH3_restart all atom 1 NiPyC2_relax_sc211_ortho_functionalized_N-2CH3_restart.lammpstrj
dump_modify     NiPyC2_relax_sc211_ortho_functionalized_N-2CH3_restart scale no sort id
run 0
WARNING: No fixes defined, atoms won't move (src/verlet.cpp:52)
WARNING: Inconsistent image flags (src/domain.cpp:785)
WARNING: Bond/angle/dihedral extent > half of periodic box length (src/domain.cpp:906)
Per MPI rank memory allocation (min/avg/max) = 17.06 | 17.06 | 17.06 Mbytes
Step Temp E_pair E_mol TotEng Press 
       0 7.1298886e-11    133.85587     1727.612    1861.4678   -115.16865 
WARNING: Bond/angle/dihedral extent > half of periodic box length (src/domain.cpp:906)
Loop time of 8.48988e-07 on 1 procs for 0 steps with 172 atoms

0.0% CPU use with 1 MPI tasks x 1 OpenMP threads

MPI task timing breakdown:
Section |  min time  |  avg time  |  max time  |%varavg| %total
---------------------------------------------------------------
Pair    | 0          | 0          | 0          |   0.0 |  0.00
Bond    | 0          | 0          | 0          |   0.0 |  0.00
Neigh   | 0          | 0          | 0          |   0.0 |  0.00
Comm    | 0          | 0          | 0          |   0.0 |  0.00
Output  | 0          | 0          | 0          |   0.0 |  0.00
Modify  | 0          | 0          | 0          |   0.0 |  0.00
Other   |            | 8.49e-07   |            |       |100.00

Nlocal:    172 ave 172 max 172 min
Histogram: 1 0 0 0 0 0 0 0 0 0
Nghost:    1584 ave 1584 max 1584 min
Histogram: 1 0 0 0 0 0 0 0 0 0
Neighs:    11679 ave 11679 max 11679 min
Histogram: 1 0 0 0 0 0 0 0 0 0

Total # of neighbors = 11679
Ave neighs/atom = 67.9012
Ave special neighs/atom = 6.27907
Neighbor list builds = 0
Dangerous builds = 0
undump          NiPyC2_relax_sc211_ortho_functionalized_N-2CH3_restart
Total wall time: 0:00:10
