ITEM: TIMESTEP
0
ITEM: NUMBER OF ATOMS
172
ITEM: BOX BOUNDS xy xz yz pp pp pp
-2.3333839450386626e-01 1.5899212691949300e+01 0.0000000000000000e+00
0.0000000000000000e+00 1.0280874267252001e+01 -2.3333839450386626e-01
0.0000000000000000e+00 1.0533598278270899e+01 0.0000000000000000e+00
ITEM: ATOMS id type x y z
1 1 2.15341 9.02667 8.85631
2 1 6.09643 3.96148 3.65641
3 2 0.00684107 4.33999 4.0498
4 2 3.46059 7.9082 8.94503
5 2 4.68133 2.93606 3.74418
6 2 0.815988 10.1483 8.98682
7 2 5.62116 5.14052 4.95321
8 2 1.58662 7.83574 10.0831
9 2 14.5959 2.26348 5.15776
10 2 2.62414 10.0931 10.2185
11 3 3.03202 10.2105 7.59867
12 3 15.1523 2.26014 2.58589
13 3 1.36527 7.96222 7.45874
14 3 5.30882 5.08442 2.32727
15 4 3.23032 0.949578 5.41542
16 4 15.2779 0.974424 0.553725
17 5 2.88417 0.9955 4.39456
18 5 6.76336 1.65423 9.67879
19 4 4.4417 1.57228 5.78317
20 4 0.797533 0.933846 0.643306
21 4 4.81051 1.49875 7.1219
22 4 1.38497 1.40297 1.80599
23 5 13.1833 2.12143 7.63725
24 5 2.4556 1.32552 1.95053
25 4 1.44144 6.42424 5.59566
26 4 5.12119 6.02708 0.125843
27 5 1.97029 6.02997 4.74837
28 5 12.8613 5.04261 9.6485
29 4 2.07884 7.35322 6.45857
30 4 5.91164 5.44136 1.16232
31 5 3.11599 7.59497 6.30665
32 4 2.47667 0.237051 6.38258
33 4 14.5063 1.59727 1.58722
34 5 1.48463 10.1685 6.13362
35 5 5.44736 2.69038 0.853777
36 4 4.2915 0.442836 7.90276
37 4 0.583026 1.97099 2.80515
38 5 1.04314 2.24553 3.74097
39 4 0.0594205 7.60707 7.65182
40 4 4.03837 5.53165 2.59735
41 5 3.56944 5.25421 3.52312
42 4 15.3685 6.57226 6.92236
43 4 3.3319 6.33242 1.68942
44 5 6.41158 5.83045 7.46868
45 5 2.41796 6.82081 1.99882
46 4 0.111566 6.02943 5.8457
47 4 3.8046 6.47225 0.393663
48 4 5.27633 2.30521 4.74872
49 4 1.40748 0.403646 10.0412
50 4 15.2849 5.07332 4.95655
51 4 2.80179 7.2457 9.88057
52 1 10.0425 8.78665 9.12634
53 1 14.3754 3.49683 3.84444
54 2 7.47233 5.00679 3.78765
55 2 11.5959 7.94267 9.20834
56 2 12.825 2.64937 3.88864
57 2 8.49251 9.61925 9.30306
58 2 13.9824 4.69162 5.10159
59 2 9.78447 7.54859 10.3993
60 2 6.53288 2.82079 4.95906
61 2 10.3595 9.98765 10.4206
62 3 10.669 10.0953 7.77725
63 3 6.97256 2.77666 2.33855
64 3 9.3411 7.53916 7.80947
65 3 13.7929 4.80558 2.4429
66 4 11.2251 0.421081 5.47502
67 4 7.27591 1.67575 0.188751
68 5 11.0451 0.301051 4.41738
69 5 14.5426 0.52103 10.25
70 4 12.3346 1.2046 5.90058
71 4 8.49118 1.06369 0.611407
72 4 12.4214 1.45094 7.26347
73 4 8.92844 1.39014 1.88373
74 5 5.68267 2.03858 7.4672
75 5 9.8632 0.995837 2.24906
76 4 9.14481 6.52477 5.63008
77 4 13.1114 5.34467 0.15015
78 5 9.59322 6.24721 4.68762
79 5 5.32461 6.21964 9.69694
80 4 9.9583 7.10822 6.67144
81 4 14.0523 4.73448 1.08172
82 4 10.3078 10.1188 6.45118
83 4 6.4428 2.37767 1.13778
84 4 11.6998 0.638513 8.17664
85 4 8.29986 2.449 2.5845
86 5 12.1488 0.462865 9.13109
87 4 8.11965 6.99583 8.12266
88 4 12.8274 5.70916 2.85184
89 5 7.66378 7.24693 9.05849
90 5 12.3602 5.56524 3.79899
91 4 7.36124 6.26487 7.18395
92 4 12.1604 6.5777 1.95523
93 5 14.367 6.2754 7.1415
94 5 11.4684 7.31288 2.34487
95 4 7.78074 6.20716 5.87798
96 4 12.1783 6.32075 0.597225
97 4 13.2924 1.90269 4.89516
98 4 9.05699 0.0883418 10.2464
99 4 6.89395 5.64389 4.77794
100 4 11.0721 7.15766 10.1588
101 6 5.27154 9.87125 8.50755
102 7 5.65645 8.74726 7.65498
103 5 5.01166 8.63734 6.76019
104 5 6.66397 8.90017 7.26485
105 5 5.62631 7.81521 8.22149
106 7 5.33096 9.71606 9.97366
107 5 6.36341 9.55006 10.2887
108 5 4.91225 0.320103 10.4839
109 5 4.8451 8.83543 10.388
110 6 13.1006 1.34727 1.69982
111 7 12.3352 2.10224 0.706839
112 5 12.6155 2.18447 10.2698
113 5 11.3156 1.73989 0.591607
114 5 12.1874 3.10971 1.072
115 7 12.7907 10.1959 1.79312
116 5 13.4844 9.6872 2.49897
117 5 11.7706 10.0519 2.19466
118 5 12.8639 9.71097 0.804941
119 6 15.1427 8.42489 8.47017
120 7 14.2889 9.29117 7.66361
121 5 14.6079 9.35908 6.59717
122 5 13.2504 8.94013 7.69621
123 5 14.3716 0.0296166 8.06963
124 7 14.4672 7.70304 9.53342
125 5 13.7411 7.02384 9.07943
126 5 15.1783 7.11505 10.1349
127 5 13.9733 8.41177 10.2167
128 6 7.3388 5.57696 1.14742
129 7 7.76127 4.99708 10.4967
130 5 8.28012 3.96727 0.165621
131 5 7.11214 4.95416 9.60506
132 5 8.72005 5.48052 10.2693
133 7 7.72775 6.95149 1.50089
134 5 7.57693 7.64557 0.656002
135 5 7.12274 7.33244 2.35358
136 5 8.77667 6.97289 1.85
137 6 8.9272 9.85963 6.10737
138 7 8.0483 0.679271 6.54419
139 5 7.65503 0.504137 7.54622
140 5 8.56334 1.65038 6.65313
141 5 7.16509 0.745542 5.89188
142 7 8.66927 9.43182 4.71842
143 5 9.50375 8.83075 4.30307
144 5 7.74853 8.81347 4.69254
145 5 8.49216 0.0104427 4.05443
146 6 9.13143 3.38248 3.28238
147 7 10.1087 4.09523 2.46645
148 5 10.038 3.85591 1.39209
149 5 11.1193 3.83252 2.77479
150 5 9.95812 5.17861 2.60092
151 7 9.56528 2.98657 4.61362
152 5 10.6277 3.19179 4.80033
153 5 9.40676 1.92155 4.72669
154 5 8.98542 3.53903 5.3775
155 6 11.3661 6.82805 6.71553
156 7 12.0889 7.44068 5.59034
157 5 11.4983 7.45771 4.65696
158 5 13.0619 6.95887 5.41445
159 5 12.3385 8.47579 5.82209
160 7 11.5817 5.37673 6.85268
161 5 11.5097 4.87434 5.87294
162 5 10.8404 4.91781 7.54626
163 5 12.5672 5.16589 7.29514
164 6 15.3216 4.20112 0.616084
165 7 15.1816 3.88815 9.71004
166 5 14.3636 3.21795 9.39395
167 5 15.1554 4.81047 9.09561
168 5 0.236504 3.35951 9.49828
169 7 0.56435 5.00689 1.06827
170 5 0.27489 5.80292 1.79022
171 5 1.30002 4.34364 1.5631
172 5 1.08121 5.49363 0.219717
