172
Atoms. Timestep: 0
Ni 2.89857 9.41116 8.59265
Ni 6.17525 3.10579 3.48481
O 1.44827 4.35425 3.93374
O 4.4416 8.15245 9.05464
O 4.63665 1.84729 3.87523
O 1.36499 10.6744 9.00295
O 5.80609 4.46033 4.96242
O 2.54244 8.0327 10.0675
O 0.25117 1.69264 4.94273
O 3.23722 10.8047 10.0626
N 3.69677 10.6606 7.2416
N 0.71256 1.8642 2.11704
N 2.17217 8.14409 7.25198
N 5.44023 4.39481 2.13747
C 3.48546 12.1483 5.36301
C 0.47488 0.38955 0.2292
H 5.86971 0.03371 9.69377
C 4.76073 0.1474 5.61481
C 1.74333 12.3699 0.47412
C 5.50345 12.1502 6.68209
C 2.49852 0.35508 1.54004
H 0.24768 12.5084 6.91993
H 3.49155 12.5067 1.77336
C 2.48363 6.6337 5.40822
C 5.72803 5.90364 0.28669
C 2.92756 7.68099 6.23068
C 6.1883 4.86756 1.11596
H 3.89994 8.14655 6.0889
H 0.91589 4.41889 0.97634
C 2.98256 11.1359 6.19748
C -0.01036 1.40553 1.07106
H 1.99392 10.709 6.04703
H 5.26093 1.85011 0.92351
C 4.93641 11.1381 7.47507
C 1.94823 1.3719 2.3406
H 5.48559 10.7097 8.30944
H 2.50886 1.79214 3.17267
C 0.94573 7.62654 7.47302
C 4.21083 4.90458 2.35686
H 0.36328 8.05184 8.28732
H 3.63605 4.47744 3.17528
C 0.43859 6.57577 6.69176
C 3.68763 5.945 1.56944
H 5.70774 6.17693 6.91975
C 1.22745 6.06471 5.65205
C 4.46338 6.45777 0.52027
C 5.3126 1.24381 4.79419
C 2.0502 11.2675 9.92158
C 0.73548 4.94016 4.83586
C 3.73174 7.56629 9.95688
Ni 9.15137 9.41116 8.59265
Ni 12.4281 3.10579 3.48481
O 7.70109 4.35425 3.93374
O 10.6944 8.15245 9.05464
O 10.8895 1.84729 3.87523
O 7.61779 10.6744 9.00295
O 12.0589 4.46033 4.96242
O 8.79524 8.0327 10.0675
O 6.50397 1.69264 4.94273
O 9.49002 10.8047 10.0626
N 9.94957 10.6606 7.2416
N 6.96536 1.8642 2.11704
N 8.42499 8.14409 7.25198
N 11.693 4.39481 2.13747
C 9.73826 12.1483 5.36301
C 6.72768 0.38955 0.2292
C 11.0135 0.1474 5.61481
C 7.99613 12.3699 0.47412
C 11.7562 12.1502 6.68209
C 8.75132 0.35508 1.54004
H 6.50047 12.5084 6.91993
C 8.73644 6.6337 5.40822
C 11.9808 5.90364 0.28669
H 6.14452 6.26667 9.7662
C 9.18036 7.68099 6.23068
C 12.4411 4.86756 1.11596
H 10.1527 8.14655 6.0889
H 7.16869 4.41889 0.97634
C 9.23536 11.1359 6.19748
C 6.24244 1.40553 1.07106
H 8.24672 10.709 6.04703
H 11.5137 1.85011 0.92351
C 11.1892 11.1381 7.47507
C 8.20102 1.3719 2.3406
H 11.7384 10.7097 8.30944
H 8.76167 1.79214 3.17267
C 7.19853 7.62654 7.47302
C 10.4636 4.90458 2.35686
H 6.61608 8.05184 8.28732
H 9.88885 4.47744 3.17528
C 6.69139 6.57577 6.69176
C 9.94043 5.945 1.56944
H 11.9605 6.17693 6.91975
H 8.95104 6.32683 1.80071
C 7.48025 6.06471 5.65205
C 10.7162 6.45777 0.52027
C 11.5654 1.24381 4.79419
C 8.303 11.2675 9.92158
C 6.98827 4.94016 4.83586
C 9.98454 7.56629 9.95688
N 2.64967 0.03952 4.24156
C 1.20672 0.15495 4.38333
H 0.87323 0.02436 5.43348
H 0.88407 1.16828 4.06419
H 0.70119 11.9208 3.74721
C 3.20092 0.18428 2.90366
H 4.28809 12.4882 2.872
H 2.71207 11.9793 2.22276
H 3.00152 1.20471 2.51312
N 11.8681 12.4511 9.43977
C 11.0357 0.86136 8.69751
H 11.2594 1.91882 8.9482
H 11.223 0.73922 7.60994
H 9.96294 0.66047 8.90444
C 11.6558 11.0328 9.19854
H 12.2468 10.3968 9.88948
H 10.5882 10.7844 9.37635
H 11.8943 10.7816 8.1433
N 3.39364 6.16982 4.36816
C 4.21076 7.10697 3.61344
H 3.95577 8.16388 3.83485
H 4.04122 6.95315 2.52698
H 5.28564 6.94013 3.83886
C 3.64671 4.75224 4.16505
H 3.06372 4.11778 4.8641
H 4.71807 4.53707 4.36248
H 3.42901 4.4688 3.11347
N 2.33568 6.3957 1.87143
C 1.87052 6.50569 3.24513
H 2.68381 6.34001 3.98149
H 1.47715 7.52897 3.42112
H 1.05963 5.76961 3.4312
C 1.35126 6.58524 0.81797
H 1.53849 6.36744 10.0865
H 0.50741 5.87977 0.97072
H 0.94419 7.61803 0.85231
N 8.90247 0.03952 4.24156
C 7.45952 0.15495 4.38333
H 7.12603 0.02436 5.43348
H 7.13687 1.16828 4.06419
H 6.95399 11.9208 3.74721
C 9.45372 0.18428 2.90366
H 10.5409 12.4882 2.872
H 8.96487 11.9793 2.22276
H 9.25432 1.20471 2.51312
N 10.071 12.3818 1.90636
C 11.109 0.76181 2.37752
H 10.8127 1.82764 2.29164
H 12.0226 0.62839 1.76091
H 11.3529 0.53927 3.43817
C 10.3458 10.9556 1.98023
H 9.45987 10.3434 1.71306
H 10.6131 10.6853 3.02358
H 11.2062 10.6948 1.32814
N 9.64645 6.16982 4.36817
C 10.4636 7.10695 3.61345
H 10.2086 8.16387 3.83485
H 10.294 6.95314 2.52699
H 11.5384 6.94012 3.83887
C 9.89952 4.75224 4.16507
H 9.31652 4.11777 4.86411
H 10.9709 4.53707 4.3625
H 9.68182 4.46879 3.11349
N 0.11629 6.31008 9.46053
C 1.55882 6.38445 9.63109
H 2.09597 6.23136 0.41125
H 1.9147 7.39269 9.3317
H 2.05596 5.62177 8.99457
C 12.1006 6.48695 8.11449
H 11.0087 6.2975 8.05934
H 0.07712 5.75441 7.43328
H -0.17074 7.50654 7.74149
172
Atoms. Timestep: 364
Ni 2.60114 9.39657 8.89047
Ni 6.07895 3.95473 2.89546
O 0.384386 4.98041 3.54982
O 4.07206 8.35095 9.06309
O 4.65625 2.92375 3.0023
O 1.18213 10.442 9.05489
O 5.62316 5.01696 4.21717
O 2.15787 8.33829 10.1101
O -0.706563 2.83353 4.6204
O 3.09714 10.607 10.145
N 3.30993 10.4913 7.47442
N -0.20708 2.84221 1.92356
N 1.75606 8.16894 7.60223
N 5.32058 5.20126 1.57124
C 3.2801 11.003 5.09473
C -0.103718 1.96191 -0.371204
H 5.80576 1.33849 10.1287
C 4.57359 1.65946 5.18577
C 1.29651 1.78616 -0.320486
C 5.14127 1.74933 6.46315
C 1.93112 2.22058 0.8539
H -1.12037 10.4149 6.22699
H 3.00493 2.20738 0.911997
C 1.86117 6.41992 5.96857
C 5.54938 6.59161 -0.39641
C 2.40212 7.10183 7.09467
C 6.10712 5.77138 0.615483
H 3.39701 6.85941 7.42483
H -0.0168043 5.53655 0.770812
C 2.61369 10.6451 6.32215
C -0.801049 2.60584 0.713581
H 1.55434 10.4694 6.35322
H 5.07332 2.82345 0.257766
C 4.60206 10.944 7.52533
C 1.16891 2.70861 1.97107
H 5.25405 10.5964 8.29332
H 1.70001 3.03984 2.84976
C 0.387333 8.1031 7.52524
C 3.9521 5.41008 1.50186
H -0.149051 8.16202 8.44056
H 3.30481 4.71128 1.99858
C -0.258051 7.39573 6.45598
C 3.37968 6.49593 0.706938
H 6.00918 5.76784 6.85611
C 0.46513 6.49789 5.6658
C 4.1918 6.99073 -0.362079
C 5.30895 2.25552 3.98367
C 1.82589 11.1048 10.0502
C -0.251664 5.64186 4.53247
C 3.34771 7.76566 10.049
Ni 9.4523 8.82304 8.8971
Ni -1.06242 4.0035 3.29873
O 7.53354 4.99609 3.12265
O 10.9228 7.87751 9.14641
O 12.014 2.99895 3.41481
O 7.93116 9.78306 8.94321
O 13.0359 5.17941 4.58591
O 9.01039 7.6397 10.2121
O 6.56282 2.75526 4.10434
O 9.78441 10.0307 10.0906
N 10.3048 9.98154 7.53943
N 6.81383 2.84135 1.4795
N 8.76423 7.5927 7.58101
N 12.7567 5.1879 1.84716
C 10.2812 1.74218 5.91089
C 6.66729 1.65335 -0.636991
C 11.7427 1.66799 5.65191
C 7.97831 11.0978 -0.48935
C 12.3773 10.5852 6.35638
C 8.57786 1.32636 0.754004
H 5.99405 2.39576 6.64
C 8.86066 6.64965 5.36132
C 12.7738 6.00116 -0.504947
H 5.92214 6.91954 10.3849
C 9.48843 7.22155 6.51807
C -1.09062 5.60962 0.740263
H 10.5524 7.30882 6.57092
H 7.15958 5.5243 0.579273
C 9.89625 11.2357 7.19997
C 6.08568 2.47429 0.373213
H 9.06643 1.75879 7.70781
H 12.8391 3.08931 0.505322
C 11.5984 9.67438 7.13516
C 8.05847 2.31152 1.64491
H 12.0657 8.78024 7.46366
H 8.67785 2.68987 2.43643
C 7.46616 7.15315 7.66865
C 11.3827 5.17618 1.71638
H 6.88805 7.38022 8.54222
H 10.7899 4.71462 2.45797
C 6.87505 6.37431 6.63494
C 10.6987 5.90634 0.715987
H 13.2404 7.44702 6.33749
H 9.63127 6.06398 0.809479
C 7.51497 6.26982 5.38611
C 11.3612 6.36065 -0.410948
C 12.5632 2.38773 4.48406
C 8.51548 10.4754 9.93601
C 6.84639 5.56255 4.162
C 10.3099 7.1749 10.0866
N 2.6311 10.8102 3.80166
C 1.26603 10.2383 3.89546
H 0.618508 10.9073 4.47629
H 0.786843 10.1382 2.90033
H 1.26092 9.26155 4.42159
C 3.46535 10.0607 2.83612
H 4.1152 9.31076 3.32045
H 2.85293 9.59798 2.05005
H 4.11563 10.7237 2.25274
N -1.0744 1.50094 10.0492
C 12.5225 2.40475 9.41695
H 12.448 3.35229 9.96351
H 12.8445 2.58578 8.37739
H 11.5025 1.98202 9.36672
C 13.0922 10.0467 10.1035
H -0.681745 9.47279 -0.699711
H 12.0339 9.90532 10.2598
H -1.27282 9.64554 9.12268
N 2.76634 5.91703 5.02192
C 3.86102 6.90185 4.79035
H 3.52567 7.95122 4.94826
H 4.22266 6.86736 3.74751
H 4.67896 6.79059 5.49577
C 3.15785 4.57077 5.42004
H 2.30478 3.99408 5.84751
H 3.9996 4.57637 6.14501
H 3.39136 4.04011 4.50445
N 2.21817 7.29624 1.23907
C 1.80502 7.07204 2.59652
H 2.09575 6.09193 2.88012
H 2.23408 7.82934 3.21921
H 0.718715 7.16101 2.77951
C 1.09559 7.94633 0.523347
H 0.772309 7.36174 -0.342813
H 0.146952 8.07331 1.07924
H 1.35117 9.01219 0.354416
N 9.31973 1.41915 4.85276
C 8.16815 10.5209 5.29549
H 7.61764 10.9767 6.12556
H 7.44345 10.3454 4.47452
H 8.51352 9.51797 5.62366
C 9.96201 10.6371 3.78996
H 10.8282 10.0247 4.09019
H 9.2468 9.96795 3.26811
H 10.3418 1.46034 3.15701
N 9.84356 10.6667 1.03687
C 10.9905 1.56234 0.819735
H 10.7264 2.63103 0.955778
H 11.3582 1.45609 -0.182291
H 11.7864 11.2057 1.52593
C 10.0714 9.20889 1.04976
H 9.12231 8.63592 0.988088
H 10.6199 8.92253 1.95347
H 10.8137 8.91352 0.300137
N 9.68784 6.05759 4.38787
C 10.7757 7.00984 4.07737
H 10.4563 8.03696 4.26885
H 10.985 7.084 3.025
H 11.6599 6.8968 4.70367
C 10.0256 4.7091 4.91073
H 9.39327 4.37674 5.77319
H 11.0308 4.63247 5.31487
H 9.79553 3.9478 4.1472
N 13.1989 5.90571 9.75803
C -0.030194 5.22796 9.7135
H 0.156245 4.53826 10.5527
H 0.775909 5.97961 9.65029
H 0.127979 4.59092 8.81768
C 12.3455 5.4972 8.60789
H 11.3743 5.05115 8.91149
H 12.8209 4.77231 7.91751
H 12.1684 6.3629 7.96209
172
Atoms. Timestep: 6667
Ni 2.42473 9.46494 8.80269
Ni 6.09983 4.22106 2.78442
O 0.365505 5.07725 3.40375
O 3.83057 8.38459 9.00798
O 4.63961 3.17822 2.93911
O 1.05891 10.5805 8.92939
O 5.61115 5.37668 4.01955
O 1.92191 8.46883 10.1197
O -0.574269 2.8668 4.58532
O 2.98244 10.6825 10.0004
N 3.21356 10.4978 7.32425
N -0.145163 2.79877 1.91081
N 1.53879 8.20578 7.5529
N 5.38176 5.3681 1.35708
C 3.33275 11.083 4.93707
C -0.160968 1.83568 -0.333216
H 6.48303 2.15361 9.72987
C 4.5693 1.81554 5.1246
C 1.24738 1.80997 -0.400902
C 5.11513 1.79412 6.42533
C 1.93921 2.2478 0.73459
H -0.97149 10.4669 6.20734
H 3.01547 2.15316 0.773711
C 1.58938 6.26286 6.16368
C 5.4323 7.29065 -0.127767
C 1.90236 6.90414 7.39851
C 6.08022 6.40542 0.78947
H 2.68788 6.48265 8.00276
H -0.0723798 5.26816 0.604182
C 2.60223 10.6179 6.10115
C -0.836234 2.29992 0.847347
H 1.55288 10.4156 6.02955
H 5.37481 3.18454 -0.0486189
C 4.4722 11.0277 7.47752
C 1.23341 2.79466 1.85291
H 4.98564 10.9084 8.41888
H 1.80027 3.19014 2.68296
C 0.286258 8.48386 7.1022
C 4.09942 5.15307 0.906863
H -0.300549 9.15579 7.67591
H 3.57417 4.28305 1.22606
C -0.325539 7.69839 6.05629
C 3.32533 6.23476 0.417728
H 5.92346 6.27031 6.61112
C 0.323406 6.55474 5.55274
C 4.02874 7.21005 -0.331735
C 5.28706 2.57332 3.96659
C 1.73322 11.2164 9.92138
C -0.330287 5.70161 4.38426
C 3.12822 7.88504 10.0547
Ni 9.56945 8.85701 8.90473
Ni -1.02796 3.9501 3.21724
O 7.55576 5.25155 2.99266
O 10.9678 7.78982 9.08535
O 12.1386 2.84554 3.37657
O 8.13511 9.92433 9.00993
O 12.9958 5.13348 4.45889
O 9.04811 7.64617 10.1599
O 6.51476 3.11562 4.08638
O 9.99215 9.96721 10.2062
N 10.4789 10.0428 7.58926
N 6.89194 3.02201 1.44611
N 8.81077 7.75118 7.4993
N 12.7097 4.99699 1.71156
C 10.4899 1.70139 5.8012
C 6.85464 2.16579 10.7443
C 11.9292 1.68426 5.65739
C 8.2926 1.46506 -0.509413
C 12.5534 10.6502 6.40726
C 8.66447 1.47384 0.853116
H 6.03294 2.32348 6.63551
C 8.9516 6.70053 5.31102
C 12.7346 5.90848 -0.592907
H 5.76217 8.01442 10.9017
C 9.56112 7.22235 6.50805
C 13.4246 5.42398 0.612245
H 10.6296 7.2067 6.61834
H 7.13936 6.50706 0.964076
C 9.98992 1.26631 7.08905
C 6.36592 2.84319 0.181948
H 9.08013 1.68984 7.4875
H 12.6553 2.39682 0.839459
C 11.7734 9.74364 7.21311
C 8.10742 2.45174 1.71691
H 12.1857 8.79563 7.4698
H 8.61714 2.69734 2.63452
C 7.46145 7.48577 7.50236
C 11.3357 4.90005 1.53783
H 6.8691 7.74358 8.36984
H 10.7513 4.27995 2.18322
C 6.84531 6.78065 6.42763
C 10.6435 5.69184 0.586118
H 13.2808 7.98706 5.651
H 9.56275 5.74175 0.621621
C 7.55616 6.51905 5.24338
C 11.3314 6.26586 -0.480694
C 12.7304 2.32048 4.45936
C 8.77207 10.5431 10.0199
C 6.86649 5.88098 3.98601
C 10.3164 7.11887 10.0295
N 2.8687 10.7884 3.58415
C 1.52211 10.186 3.50805
H 0.774829 10.8555 3.96767
H 1.20377 10.0578 2.45779
H 1.47924 9.20643 4.01588
C 3.86078 9.99888 2.82316
H 4.37625 9.25433 3.46394
H 3.41027 9.50082 1.94769
H 4.62786 10.653 2.37247
N -1.1709 11.2648 10.1517
C 12.2772 2.19198 9.74813
H 12.4603 3.23423 10.0496
H 12.1705 2.17837 8.65124
H 11.3264 1.92618 10.2206
C 13.0508 9.86313 10.4078
H -0.622524 9.22271 10.2469
H 12.9514 9.68661 -0.139769
H 12.3038 9.53483 9.70047
N 2.70311 5.95774 5.3366
C 3.62598 7.1325 5.33753
H 3.0614 8.05992 5.12999
H 4.37741 7.11127 4.55592
H 4.12333 7.29088 6.31002
C 3.30006 4.68328 5.75541
H 2.80418 4.21932 6.64076
H 4.37221 4.76922 6.00706
H 3.15595 3.98344 4.91738
N 2.12174 6.57067 1.19077
C 2.52119 6.7237 2.58055
H 2.75743 5.72131 2.98129
H 3.41849 7.35958 2.64437
H 1.72692 7.15988 3.21093
C 1.22208 7.68379 0.837646
H 0.652504 7.47608 -0.074023
H 0.410283 7.79318 1.59076
H 1.75658 8.64806 0.800212
N 9.71045 1.28368 4.65577
C 8.27157 1.26914 4.97066
H 8.00788 2.21228 5.48295
H 7.68916 11.0307 4.0476
H 7.98454 10.388 5.66139
C 10.0805 9.84735 4.35294
H 10.0356 9.23774 5.24934
H 9.3565 9.37806 3.68059
H 11.1147 9.76605 3.96742
N 9.29965 10.2806 1.44049
C 10.7636 10.3161 1.37998
H 11.1398 1.00441 2.18912
H 11.1247 10.8344 0.495145
H 11.2199 9.30726 1.46386
C 8.61577 8.98942 1.21611
H 7.9817 8.98311 0.310721
H 7.93116 8.78383 2.06443
H 9.33044 8.15075 1.13785
N 9.76169 6.00378 4.38244
C 10.7935 6.90424 3.84572
H 10.3448 7.5422 3.07179
H 11.5801 6.40893 3.32981
H 11.3289 7.48573 4.61173
C 10.2136 4.77271 5.03954
H 9.38966 4.29878 5.62175
H 11.0455 4.94992 5.74971
H 10.4411 4.03254 4.28308
N 13.1532 5.9039 9.66901
C -0.0557335 5.29517 9.63873
H -0.047456 4.29222 10.1028
H 0.693736 5.9341 10.1238
H 0.307364 5.16632 8.59885
C 12.348 5.35141 8.54519
H 11.3318 5.01918 8.8393
H 12.8124 4.4653 8.0574
H 12.2765 6.1163 7.75026
172
Atoms. Timestep: 6690
Ni 2.45875 9.49001 8.72636
Ni 6.10559 4.20164 2.82962
O 0.388452 5.05792 3.44402
O 3.86665 8.42345 8.92005
O 4.64737 3.16383 2.97233
O 1.09488 10.597 8.83514
O 5.6091 5.36245 4.04782
O 1.95061 8.49911 10.0247
O -0.528144 2.85373 4.638
O 3.01271 10.7055 9.91968
N 3.24161 10.5169 7.28099
N -0.114241 2.78753 1.98956
N 1.57956 8.23145 7.48368
N 5.3967 5.34283 1.40326
C 3.33397 11.1479 4.92784
C -0.130721 1.79188 -0.223353
H 6.48528 2.11095 9.56477
C 4.57964 1.78851 5.12349
C 1.2756 1.77706 -0.287508
C 5.12754 1.75601 6.41933
C 1.96611 2.22719 0.83823
H -0.927609 10.4983 6.17884
H 3.03933 2.12659 0.877828
C 1.60689 6.26006 6.16173
C 5.43864 7.30474 -0.0148695
C 1.91826 6.91823 7.37525
C 6.08964 6.40057 0.87034
H 2.70724 6.50319 7.9742
H -0.038693 5.26685 0.716252
C 2.61592 10.672 6.08141
C -0.806398 2.26626 0.943755
H 1.57078 10.4604 6.01978
H 5.37123 3.15035 0.0347621
C 4.49273 11.0539 7.45431
C 1.26129 2.78633 1.94175
H 5.00087 10.9227 8.39994
H 1.82294 3.18452 2.7768
C 0.322223 8.50728 7.04753
C 4.10761 5.14201 0.967141
H -0.261473 9.16878 7.6354
H 3.576 4.27657 1.29366
C -0.299024 7.70903 6.02398
C 3.33476 6.23447 0.497195
H 5.92521 6.26953 6.60331
C 0.34417 6.55459 5.54631
C 4.04196 7.22316 -0.217214
C 5.29407 2.55509 3.99251
C 1.76771 11.2412 9.81616
C -0.310108 5.68739 4.4122
C 3.15855 7.9228 9.95376
Ni 9.54969 8.87946 8.82779
Ni -0.994752 3.93069 3.27608
O 7.56021 5.22033 3.02925
O 10.9481 7.81784 9.00089
O 12.1215 2.82958 3.42153
O 8.11325 9.93828 8.91775
O 12.9571 5.11186 4.50753
O 9.02971 7.6658 10.0778
O 6.51564 3.10289 4.13492
O 9.97392 9.98984 10.1104
N 10.4549 10.0624 7.52653
N 6.89376 3.00112 1.52006
N 8.79727 7.7777 7.44666
N 12.678 4.9662 1.79142
C 10.4759 1.67513 5.79301
C 6.85405 2.12513 10.5857
C 11.9163 1.65288 5.65819
C 8.28562 1.43132 -0.404055
C 12.5356 10.6785 6.37814
C 8.65071 1.43632 0.954571
H 6.03973 2.28964 6.63221
C 8.94171 6.6933 5.29672
C 12.7159 5.9355 -0.467869
H 5.77023 8.03962 10.7711
C 9.5474 7.22247 6.48083
C 13.3992 5.4301 0.721676
H 10.612 7.20833 6.59668
H 7.14717 6.5095 1.05199
C 9.98305 11.2569 7.06917
C 6.36267 2.80857 0.262862
H 9.07301 1.64814 7.46877
H 12.6245 2.36448 0.93453
C 11.7495 9.76254 7.1533
C 8.10251 2.42433 1.80838
H 12.1612 8.81647 7.40874
H 8.62142 2.69242 2.72115
C 7.45118 7.50705 7.4689
C 11.3071 4.86003 1.61143
H 6.86605 7.77261 8.34194
H 10.7213 4.23595 2.24986
C 6.83713 6.78836 6.4118
C 10.6173 5.67639 0.691349
H 13.2417 7.99201 5.61902
H 9.53893 5.73083 0.729277
C 7.54753 6.51851 5.23349
C 11.3082 6.2791 -0.351512
C 12.7164 2.30276 4.49347
C 8.75862 10.5689 9.90746
C 6.86507 5.86304 4.00353
C 10.2982 7.14141 9.93428
N 2.8803 10.8273 3.57901
C 1.53519 10.2148 3.51969
H 0.791958 10.8843 3.98816
H 1.20418 10.0848 2.47394
H 1.50408 9.23911 4.03732
C 3.87849 10.0213 2.84671
H 4.38044 9.28632 3.51093
H 3.4388 9.51128 1.97216
H 4.65267 10.673 2.40286
N -1.13585 1.26834 10.0159
C 12.2479 2.15472 9.62867
H 12.4357 3.19641 9.94136
H 12.1338 2.16223 8.53225
H 11.3018 1.89018 10.1063
C 13.0257 9.89236 10.2919
H -0.587623 9.24809 10.1321
H 12.9298 9.7222 -0.0021282
H 12.2744 9.55727 9.59964
N 2.7263 5.95368 5.34072
C 3.64828 7.13484 5.33832
H 3.08231 8.06448 5.12998
H 4.40461 7.12165 4.56018
H 4.13913 7.2986 6.31121
C 3.31428 4.67147 5.74941
H 2.81603 4.20606 6.63126
H 4.3818 4.75395 6.00469
H 3.1671 3.97374 4.90554
N 2.12455 6.56164 1.2671
C 2.53363 6.7234 2.64522
H 2.77509 5.71913 3.03408
H 3.42376 7.37037 2.69199
H 1.74779 7.16226 3.28533
C 1.22902 7.68751 0.9309
H 0.652623 7.49562 0.0199669
H 0.422285 7.8011 1.68851
H 1.76787 8.64734 0.91273
N 9.70026 11.262 4.6504
C 8.26101 11.2517 4.96825
H 8.00952 2.16869 5.48719
H 7.67015 11.0654 4.04904
H 7.97657 10.4259 5.66126
C 10.07 9.86917 4.37102
H 10.0117 9.27033 5.26607
H 9.34226 9.38355 3.7211
H 11.1063 9.77439 3.99638
N 9.28148 10.3147 1.5359
C 10.7464 10.3492 1.4699
H 11.1307 10.9957 2.26701
H 11.1108 10.8819 0.598434
H 11.203 9.33882 1.54548
C 8.59988 9.01943 1.30272
H 7.96555 9.01323 0.396949
H 7.91334 8.80132 2.14805
H 9.31354 8.18019 1.22357
N 9.75395 5.99175 4.37471
C 10.7863 6.90702 3.85432
H 10.3383 7.55641 3.08938
H 11.588 6.4276 3.35178
H 11.3074 7.49053 4.62641
C 10.1954 4.76191 5.0467
H 9.36934 4.28976 5.62676
H 11.0208 4.93861 5.76046
H 10.4193 4.00855 4.3041
N 13.1357 5.91165 9.54441
C -0.0152593 5.28696 9.52418
H -0.0201145 4.28637 9.99432
H 0.735959 5.92004 10.0132
H 0.349683 5.1478 8.48608
C 12.3229 5.34107 8.43858
H 11.3134 5.00774 8.75075
H 12.7839 4.44718 7.96077
H 12.2401 6.10415 7.64193
172
Atoms. Timestep: 11498
Ni 2.4439 9.54324 8.72331
Ni 6.09733 4.23074 2.76383
O 0.420527 5.02381 3.46862
O 3.84901 8.48093 8.94042
O 4.61569 3.21253 2.90243
O 1.08225 10.6488 8.81166
O 5.60806 5.40989 3.96644
O 1.94509 8.5889 10.0717
O -0.534222 2.81855 4.63905
O 3.00635 10.7894 9.87596
N 3.22223 10.5322 7.23448
N -0.117434 2.77963 1.98739
N 1.56235 8.24981 7.51837
N 5.42822 5.36366 1.32827
C 3.29888 11.1774 4.87401
C -0.138043 1.81957 -0.243143
H 6.5491 2.1138 9.51387
C 4.52739 1.84201 5.06832
C 1.26849 1.82263 -0.313995
C 5.09769 1.78022 6.35393
C 1.96154 2.25296 0.816154
H -1.02588 10.2788 5.90438
H 3.03527 2.13778 0.862451
C 1.61333 6.22229 6.26429
C 5.44068 7.3994 0.0247301
C 1.86291 6.92435 7.47797
C 6.10812 6.45343 0.848593
H 2.55011 6.49944 8.18221
H -0.0286043 5.22844 0.697768
C 2.58656 10.6897 6.03231
C -0.811222 2.27894 0.930635
H 1.53046 10.5201 5.98007
H 5.39937 3.16214 -0.0583937
C 4.48402 11.0492 7.3822
C 1.25912 2.78756 1.92985
H 5.01394 10.8983 8.30978
H 1.82522 3.17094 2.76576
C 0.344505 8.54213 7.00133
C 4.15342 5.15607 0.86038
H -0.254174 9.24271 7.52861
H 3.64794 4.25169 1.10121
C -0.240947 7.72002 5.9743
C 3.361 6.25312 0.478538
H 5.90612 6.25845 6.55657
C 0.386077 6.52968 5.57507
C 4.04297 7.3015 -0.178624
C 5.24889 2.60072 3.93097
C 1.75653 1.28775 9.77863
C -0.26527 5.64054 4.45186
C 3.15541 8.01438 10.0011
Ni 9.56119 8.84492 8.82982
Ni -0.983715 3.91547 3.28623
O 7.56636 5.23239 2.97838
O 10.9595 7.7897 9.00562
O 12.1161 2.82884 3.42382
O 8.13122 9.9043 8.91893
O 12.9884 5.09149 4.53353
O 9.04434 7.64863 10.0925
O 6.47437 3.13733 4.07544
O 9.99552 9.96568 10.1084
N 10.4586 10.0099 7.51179
N 6.8876 3.01257 1.46581
N 8.79441 7.73125 7.45271
N 12.6958 4.96919 1.80625
C 10.4761 1.65522 5.80592
C 6.89602 2.13587 10.5369
C 11.9059 1.59748 5.63298
C 8.31332 1.43357 -0.428021
C 12.5016 10.5539 6.25842
C 8.65717 1.45475 0.93601
H 6.01127 2.31443 6.56954
C 8.94589 6.67593 5.28467
C 12.7142 5.88638 -0.48063
H 6.00798 8.17251 -0.475581
C 9.54366 7.16426 6.4917
C 13.4075 5.3973 0.712472
H 10.6033 7.10826 6.62647
H 7.16725 6.55474 1.02013
C 10.012 11.2283 7.08817
C 6.38522 2.82464 0.195339
H 9.13467 1.65057 7.52909
H 12.6175 2.37835 0.922786
C 11.7225 9.66227 7.07102
C 8.09467 2.44529 1.76852
H 12.1164 8.69563 7.29357
H 8.59459 2.7123 2.68499
C 7.44222 7.47961 7.45282
C 11.3218 4.87044 1.63455
H 6.848 7.74613 8.31637
H 10.743 4.20173 2.22805
C 6.82918 6.77384 6.37906
C 10.6301 5.68006 0.711156
H 13.3342 8.01085 5.50345
H 9.54993 5.7352 0.753741
C 7.55042 6.51046 5.20337
C 11.3147 6.25198 -0.350538
C 12.7024 2.28766 4.48963
C 8.77862 10.5419 9.90352
C 6.87185 5.88833 3.94621
C 10.3104 7.12171 9.94531
N 2.87155 10.8245 3.5259
C 1.5325 10.2041 3.45315
H 0.774497 10.8519 3.9281
H 1.20383 10.1058 2.40527
H 1.51254 9.21142 3.93908
C 3.8861 10.0026 2.83424
H 4.34606 9.25862 3.51746
H 3.46937 9.49509 1.94617
H 4.69191 10.6371 2.42136
N -1.13748 1.28192 9.99919
C 12.2442 2.14354 9.57898
H 12.4009 3.18778 9.89224
H 12.1699 2.13556 8.47958
H 11.288 1.85814 10.0276
C 13.0342 9.90458 10.2668
H -0.55637 9.27742 10.1747
H 12.8778 9.74546 -0.0502704
H 12.3371 9.54544 9.5229
N 2.77968 5.89106 5.50749
C 3.63383 7.12003 5.45879
H 3.03259 8.00542 5.17122
H 4.4197 7.09081 4.71533
H 4.09668 7.36748 6.43452
C 3.44782 4.75843 6.16748
H 3.81816 5.0053 7.18484
H 4.31938 4.4436 5.5958
H 2.7573 3.88861 6.23156
N 2.18129 6.50986 1.30501
C 2.62532 6.65568 2.68489
H 2.88815 5.65406 3.07939
H 3.51534 7.30728 2.73358
H 1.84211 7.08289 3.33364
C 1.23557 7.59037 0.983028
H 0.706738 7.40469 0.0411149
H 0.415996 7.63302 1.73406
H 1.73168 8.57078 0.990248
N 9.66168 11.2695 4.68101
C 8.23226 1.33847 5.01225
H 8.03521 2.32584 5.47051
H 7.6315 11.1508 4.10719
H 7.90116 10.5951 5.75081
C 9.93006 9.84958 4.42177
H 9.78386 9.26031 5.31628
H 9.19497 9.40577 3.7503
H 10.9653 9.68279 4.07161
N 9.26175 10.3372 1.5494
C 10.7277 10.3351 1.4791
H 11.1379 10.8952 2.32814
H 11.0939 10.915 0.631179
H 11.1539 9.30997 1.47531
C 8.54134 9.06269 1.3283
H 7.97401 9.03778 0.383657
H 7.78317 8.92326 2.12641
H 9.22034 8.1916 1.33574
N 9.76398 5.98899 4.35899
C 10.8124 6.90796 3.87529
H 10.3829 7.56889 3.10967
H 11.6318 6.43469 3.38483
H 11.3062 7.49576 4.66401
C 10.1873 4.74636 5.02207
H 9.36049 4.29869 5.62068
H 11.0225 4.90023 5.73013
H 10.3721 3.98333 4.2792
N 13.1272 5.87148 9.52777
C -0.0318638 5.23319 9.49396
H -0.0370547 4.24504 9.98456
H 0.735615 5.87311 9.95285
H 0.311132 5.0533 8.45568
C 12.3087 5.33664 8.4075
H 11.2757 5.05494 8.69336
H 12.7372 4.42441 7.93662
H 12.2889 6.09228 7.60295
172
Atoms. Timestep: 11506
Ni 2.4475 9.55814 8.7008
Ni 6.0985 4.22107 2.77946
O 0.425024 5.01361 3.47748
O 3.85356 8.49635 8.91315
O 4.61504 3.20236 2.91411
O 1.08453 10.6647 8.78568
O 5.60931 5.40271 3.97985
O 1.94945 8.60361 10.046
O -0.531228 2.80537 4.64945
O 3.00845 10.8069 9.85232
N 3.22674 10.5477 7.22099
N -0.114597 2.76968 2.00689
N 1.56785 8.26023 7.49931
N 5.43128 5.35591 1.34585
C 3.29934 11.2026 4.87326
C -0.135714 1.79628 -0.210231
H 6.54959 2.09346 9.48062
C 4.52837 1.82148 5.06785
C 1.27094 1.801 -0.280967
C 5.09872 1.75896 6.34818
C 1.96383 2.23435 0.844049
H -1.02155 10.2985 5.89804
H 3.03707 2.11878 0.890072
C 1.61459 6.22427 6.25971
C 5.44036 7.40298 0.0582927
C 1.86393 6.93106 7.46753
C 6.10843 6.45288 0.876123
H 2.55384 6.50232 8.16589
H -0.02609 5.22397 0.726736
C 2.58874 10.7126 6.02638
C -0.808372 2.2602 0.958325
H 1.53318 10.5402 5.97578
H 5.39964 3.14725 -0.0267215
C 4.48628 11.0706 7.37163
C 1.26179 2.77237 1.95285
H 5.01689 10.9188 8.29381
H 1.8277 3.15781 2.78404
C 0.347923 8.55064 6.98755
C 4.15347 5.15323 0.885491
H -0.24919 9.25601 7.51425
H 3.64889 4.24465 1.12556
C -0.238799 7.72569 5.96707
C 3.36208 6.25402 0.504473
H 5.9074 6.25909 6.54899
C 0.387122 6.5317 5.57158
C 4.04381 7.30463 -0.143772
C 5.25023 2.58393 3.93664
C 1.76037 1.26246 9.74671
C -0.263589 5.63711 4.45504
C 3.15764 8.02419 9.97021
Ni 9.56043 8.85759 8.80684
Ni -0.980464 3.90431 3.29936
O 7.56813 5.22245 2.99024
O 10.9611 7.80132 8.98023
O 12.1127 2.81724 3.43196
O 8.12885 9.91695 8.89244
O 12.9867 5.08302 4.54409
O 9.04514 7.65785 10.0675
O 6.4741 3.12579 4.0892
O 9.99426 9.98054 10.0824
N 10.4553 10.0247 7.4931
N 6.89042 3.00146 1.48862
N 8.79354 7.74419 7.4356
N 12.6934 4.95686 1.82732
C 10.4763 1.63324 5.8024
C 6.89667 2.11497 10.4979
C 11.9063 1.57375 5.63168
C 8.31273 1.41117 -0.394917
C 12.5011 10.573 6.25125
C 8.65537 1.43077 0.964168
H 6.01178 2.29511 6.5619
C 8.94587 6.67464 5.28195
C 12.7128 5.88692 -0.444797
H 6.00766 8.18109 -0.4396
C 9.54335 7.16818 6.48307
C 13.4048 5.39407 0.742354
H 10.6026 7.1125 6.6184
H 7.16751 6.55591 1.04639
C 10.0144 11.2504 7.08119
C 6.38484 2.80726 0.223835
H 9.13451 1.6272 7.51627
H 12.615 2.36001 0.94981
C 11.7211 9.67914 7.05726
C 8.09483 2.42668 1.79429
H 12.1146 8.70982 7.27854
H 8.59623 2.69686 2.70417
C 7.44212 7.48643 7.44042
C 11.3192 4.86189 1.65791
H 6.84799 7.75468 8.29974
H 10.7415 4.19155 2.24592
C 6.82956 6.77622 6.37223
C 10.6275 5.67671 0.740715
H 13.3315 8.01814 5.49948
H 9.54828 5.73251 0.781967
C 7.55053 6.51094 5.20092
C 11.3124 6.25268 -0.314874
C 12.7019 2.26968 4.49363
C 8.77908 10.5614 9.87099
C 6.87184 5.88516 3.95183
C 10.3098 7.127 9.91392
N 2.87297 10.8447 3.52944
C 1.5348 10.2223 3.46504
H 0.776499 10.8732 3.93595
H 1.20522 10.124 2.41878
H 1.51517 9.22659 3.94671
C 3.88888 10.0207 2.84784
H 4.34693 9.27327 3.52939
H 3.47064 9.50976 1.96394
H 4.69337 10.6569 2.43768
N -1.13472 1.25582 9.96393
C 12.2434 2.12395 9.55192
H 12.4001 3.17127 9.86195
H 12.1685 2.1164 8.45416
H 11.2867 1.83702 9.9968
C 13.0353 9.92471 10.233
H -0.552364 9.29281 10.1426
H 12.8748 9.76204 -0.0138652
H 12.3354 9.56129 9.49411
N 2.78237 5.89062 5.50239
C 3.63456 7.12245 5.45525
H 3.03484 8.01202 5.171
H 4.42303 7.0944 4.71627
H 4.09947 7.37234 6.42936
C 3.44756 4.75203 6.1599
H 3.82105 4.99946 7.17541
H 4.32115 4.435 5.59197
H 2.75955 3.87931 6.22448
N 2.17974 6.50994 1.32684
C 2.62826 6.65675 2.70442
H 2.88957 5.65281 3.09294
H 3.51649 7.31233 2.74881
H 1.8439 7.08675 3.34768
C 1.23976 7.59681 1.00957
H 0.707373 7.40998 0.0707471
H 0.417277 7.63933 1.75756
H 1.73312 8.57933 1.01792
N 9.66149 11.2895 4.67771
C 8.23223 1.31624 5.01384
H 8.03584 2.30575 5.46883
H 7.63032 11.1739 4.11106
H 7.90068 10.6159 5.74822
C 9.92955 9.8687 4.42572
H 9.78241 9.27458 5.31721
H 9.19398 9.42041 3.75953
H 10.9647 9.69816 4.07838
N 9.2592 10.3567 1.57469
C 10.7261 10.3521 1.50272
H 11.1371 10.9177 2.3476
H 11.0931 10.9377 0.658953
H 11.1519 9.3264 1.49863
C 8.54318 9.07799 1.35271
H 7.97221 9.05137 0.411011
H 7.78165 8.93591 2.14752
H 9.21917 8.20274 1.35991
N 9.76471 5.98635 4.35978
C 10.8118 6.9093 3.88164
H 10.3816 7.57519 3.1213
H 11.6312 6.43656 3.39544
H 11.3054 7.50178 4.66807
C 10.1854 4.74152 5.02306
H 9.35916 4.29023 5.61882
H 11.0221 4.8935 5.72838
H 10.3708 3.97342 4.28403
N 13.128 5.8706 9.4957
C -0.0279281 5.22817 9.46789
H -0.033491 4.23667 9.95379
H 0.739519 5.87056 9.92251
H 0.315437 5.04737 8.43086
C 12.3073 5.3306 8.38295
H 11.2744 5.04934 8.67106
H 12.7354 4.41663 7.91787
H 12.2871 6.09091 7.58493
172
Atoms. Timestep: 15966
Ni 2.44906 9.56798 8.69988
Ni 6.0974 4.22773 2.76735
O 0.427869 5 3.49279
O 3.85593 8.51129 8.91969
O 4.61159 3.21352 2.89719
O 1.08656 10.6696 8.78017
O 5.60651 5.40832 3.96856
O 1.9529 8.62185 10.0545
O -0.532341 2.79232 4.6563
O 3.01026 10.8216 9.8433
N 3.22462 10.5491 7.20949
N -0.114743 2.76585 2.00954
N 1.56929 8.26484 7.50398
N 5.43866 5.36235 1.33137
C 3.29518 11.2089 4.85565
C -0.135494 1.80297 -0.216636
H 6.58165 2.10041 9.45333
C 4.51798 1.83548 5.05558
C 1.27085 1.81159 -0.287876
C 5.08871 1.7696 6.33986
C 1.964 2.24827 0.838362
H -1.05942 10.2263 5.80473
H 3.03775 2.13365 0.884924
C 1.61942 6.2202 6.27914
C 5.44378 7.42226 0.0696065
C 1.86228 6.9361 7.48473
C 6.11449 6.46343 0.873126
H 2.54373 6.51663 8.19733
H -0.0213729 5.20985 0.727069
C 2.58618 10.7121 6.01046
C -0.808682 2.26285 0.954925
H 1.52965 10.545 5.95999
H 5.42309 3.17158 -0.067018
C 4.48355 11.0715 7.35996
C 1.26152 2.77816 1.95175
H 5.01497 10.9181 8.28645
H 1.8272 3.15766 2.78961
C 0.358861 8.55884 6.96851
C 4.16564 5.15711 0.857411
H -0.233378 9.28621 7.46587
H 3.66507 4.24437 1.07686
C -0.228134 7.71733 5.95822
C 3.36895 6.25697 0.495726
H 5.90812 6.25974 6.56221
C 0.393478 6.51797 5.58521
C 4.04768 7.32158 -0.137085
C 5.24056 2.5986 3.92567
C 1.76021 1.27007 9.74008
C -0.256393 5.61543 4.47567
C 3.16463 8.05023 9.98272
Ni 9.56884 8.85258 8.81602
Ni -0.978797 3.89631 3.30825
O 7.5681 5.22338 2.98732
O 10.9687 7.80128 8.9918
O 12.1139 2.81362 3.43713
O 8.13898 9.9098 8.90063
O 12.9897 5.06988 4.55856
O 9.05527 7.66231 10.0839
O 6.46502 3.13413 4.07811
O 10.0063 9.98086 10.0866
N 10.4612 10.0093 7.49311
N 6.89123 3.00816 1.47524
N 8.79814 7.73231 7.44884
N 12.6987 4.95486 1.83629
C 10.4766 1.62331 5.80906
C 6.91894 2.12536 10.4797
C 11.9025 1.54978 5.62004
C 8.32583 1.41618 -0.397984
C 12.4873 10.5264 6.20361
C 8.65542 1.43875 0.968186
H 5.99781 2.31013 6.5596
C 8.9477 6.66802 5.28835
C 12.7169 5.88084 -0.442986
H 6.00762 8.20696 -0.415928
C 9.54489 7.15323 6.49512
C 13.4102 5.38411 0.74459
H 10.6017 7.0849 6.63541
H 7.1732 6.56582 1.04667
C 10.0286 11.2408 7.09182
C 6.40191 2.82384 0.199371
H 9.16522 1.62545 7.54917
H 12.6144 2.36048 0.947565
C 11.712 9.6441 7.02729
C 8.09188 2.43477 1.79109
H 12.1028 8.67532 7.24762
H 8.58682 2.70448 2.70925
C 7.44508 7.48486 7.45077
C 11.3243 4.85993 1.66567
H 6.85191 7.75665 8.31338
H 10.7456 4.17744 2.24248
C 6.83046 6.77469 6.38109
C 10.6347 5.67976 0.752987
H 13.3449 8.00037 5.47745
H 9.55491 5.74013 0.798766
C 7.55157 6.50478 5.20697
C 11.3197 6.25346 -0.305613
C 12.6979 2.26524 4.49774
C 8.78853 10.5552 9.87717
C 6.87296 5.88214 3.95149
C 10.3205 7.13522 9.9317
N 2.87855 10.8463 3.5072
C 1.54105 10.2223 3.43111
H 0.77992 10.863 3.91197
H 1.21124 10.1358 2.38275
H 1.52639 9.22329 3.90606
C 3.8979 10.0183 2.83082
H 4.33943 9.26906 3.52059
H 3.48968 9.51433 1.93558
H 4.71599 10.6484 2.43467