ITEM: TIMESTEP
0
ITEM: NUMBER OF ATOMS
172
ITEM: BOX BOUNDS xy xz yz pp pp pp
-2.3755546222262588e-01 1.4159905646495901e+01 0.0000000000000000e+00
0.0000000000000000e+00 1.0606102211559501e+01 -2.3755546222262588e-01
0.0000000000000000e+00 1.0723969422960300e+01 0.0000000000000000e+00
ITEM: ATOMS id type x y z
1 1 2.56327 9.65741 8.5052
2 1 6.12007 3.90033 2.72642
3 2 0.701007 4.72792 3.67386
4 2 3.98365 8.63061 8.74349
5 2 4.66675 2.85313 2.77973
6 2 1.18702 0.126783 8.54776
7 2 5.56163 5.00243 3.96185
8 2 2.10155 8.7496 9.92442
9 2 13.8749 2.50503 4.81386
10 2 3.12587 0.353286 9.57739
11 3 3.31201 10.5815 6.98558
12 3 0.084158 2.54686 2.18491
13 3 1.69781 8.3094 7.37064
14 3 5.47843 5.09313 1.33366
15 4 3.29338 0.808252 4.70331
16 4 14.1534 1.46495 0.02616
17 5 6.43042 1.34351 9.08988
18 4 4.55918 1.42953 4.89084
19 4 1.15947 1.47923 10.6405
20 4 5.19754 1.20763 6.11725
21 4 2.12087 2.00196 0.976217
22 5 12.8319 9.94614 4.96807
23 5 3.197 1.92293 0.976396
24 4 1.77712 6.14924 6.38044
25 4 5.58425 7.25242 0.26119
26 4 1.93906 6.97004 7.50926
27 4 6.21587 6.16571 0.902451
28 5 2.55079 6.59398 8.29995
29 5 0.227029 4.89192 0.931038
30 4 2.60723 0.321661 5.86658
31 4 13.5156 1.98755 1.18851
32 5 1.53751 0.367896 5.90679
33 5 5.12796 2.73067 10.7169
34 4 4.62413 0.347916 7.06941
35 4 1.45508 2.55449 2.09073
36 5 5.21725 0.0121149 7.90123
37 5 2.04492 2.93625 2.90916
38 4 0.617187 8.63035 6.58821
39 4 4.17298 5.01307 0.922849
40 5 0.127678 9.57004 6.72761
41 5 3.61442 4.13177 1.13297
42 4 0.0454744 7.65942 5.70365
43 4 3.4455 6.19422 0.674954
44 5 6.43745 5.16853 6.68479
45 4 0.618073 6.38759 5.59468
46 4 4.18012 7.27647 0.12255
47 4 5.28935 2.20367 3.7923
48 4 1.87238 0.857504 9.45161
49 4 0.0156567 5.35266 4.63908
50 4 3.33633 8.21199 9.84464
51 1 9.50493 8.75083 8.59909
52 1 13.4295 3.66569 3.50579
53 2 7.55391 4.91374 2.99829
54 2 10.9742 7.76365 8.75951
55 2 12.0018 2.61918 3.62119
56 2 8.01987 9.7174 8.70585
57 2 12.9387 4.81325 4.76176
58 2 9.06241 7.5484 9.86685
59 2 6.50306 2.7477 3.99645
60 2 9.90445 9.89593 9.88124
61 3 10.3074 9.9535 7.26613
62 3 6.95602 2.77922 1.4133
63 3 8.78141 7.60437 7.20783
64 3 12.6466 4.78863 2.10462
65 4 10.6058 1.48756 6.18137
66 4 6.80271 1.49743 10.0854
67 4 11.8537 1.1022 5.62734
68 4 8.00182 0.872772 10.5069
69 4 12.1222 10.3482 5.66906
70 4 8.7072 1.20165 1.06214
71 5 6.1441 1.66883 6.32916
72 4 8.50722 7.13633 4.88863
73 4 12.4174 5.66821 10.5355
74 5 5.94884 8.05666 10.5791
75 4 8.76407 8.05101 5.92022
76 4 13.3372 5.12036 0.970895
77 5 8.66632 9.09481 5.71813
78 5 7.28643 6.17376 1.01237
79 4 10.0757 0.69535 7.24225
80 4 6.3487 2.37101 0.25184
81 5 9.27096 1.11101 7.81395
82 5 12.4515 2.11937 1.19933
83 4 11.3423 9.47704 6.48693
84 4 8.24377 2.39183 1.62991
85 5 11.5665 8.42605 6.49026
86 5 8.81539 2.85505 2.41879
87 4 7.8811 6.58898 7.49879
88 4 11.2727 4.88382 2.06719
89 5 7.68218 6.29764 8.5163
90 5 10.6775 4.35741 2.784
91 4 7.14203 5.95421 6.44866
92 4 10.5997 5.60072 1.05677
93 5 13.3598 7.90208 5.0865
94 5 9.52699 5.70701 1.10933
95 4 7.41941 6.28753 5.10043
96 4 11.0598 6.12643 10.7011
97 4 12.6156 1.98773 4.62436
98 4 8.63382 10.3516 9.71455
99 4 6.80703 5.52693 3.93838
100 4 10.3351 7.06271 9.70443
101 6 2.88882 0.374232 3.37534
102 7 1.54424 10.3691 3.32511
103 5 0.792871 0.40359 3.82159
104 5 1.19946 10.2966 2.27805
105 5 1.53666 9.36633 3.79799
106 7 3.89876 10.0925 2.76815
107 5 4.30291 9.37288 3.51265
108 5 3.49096 9.54538 1.8964
109 5 4.73766 0.0820605 2.35988
110 6 13.1377 0.980909 9.65685
111 7 12.013 1.85918 9.30788
112 5 12.0835 2.86134 9.7717
113 5 12.0614 2.05277 8.22901
114 5 11.041 1.44138 9.62256
115 7 12.8188 10.1662 9.83123
116 5 13.7375 9.56311 9.97634
117 5 12.2033 9.98993 10.7231
118 5 12.337 9.78657 8.92181
119 6 2.98388 5.68785 5.74753
120 7 4.00857 6.77615 5.80336
121 5 3.55643 7.78125 5.64908
122 5 4.70432 6.7556 4.97716
123 5 4.56072 6.78301 6.76787
124 7 3.44308 4.45315 6.40067
125 5 3.63639 4.60573 7.48606
126 5 4.37825 4.09498 5.93405
127 5 2.68167 3.65208 6.27677
128 6 2.33386 6.43873 1.57674
129 7 2.84825 6.6727 2.92162
130 5 3.11562 5.68721 3.34228
131 5 3.75818 7.30276 2.90708
132 5 2.10259 7.15698 3.57572
133 7 1.27432 7.38622 1.22517
134 5 0.884979 7.1994 0.209418
135 5 0.42073 7.27391 1.9267
136 5 1.6214 8.41706 1.34655
137 6 9.65664 2.1209 5.32062
138 7 8.89343 3.13666 6.05785
139 5 8.46592 3.83766 5.3286
140 5 8.07105 2.70896 6.66444
141 5 9.54371 3.69265 6.76424
142 7 8.77911 1.05741 4.79654
143 5 8.02969 0.712815 5.5381
144 5 8.25671 1.37851 3.91737
145 5 9.37174 0.179371 4.4805
146 6 9.11928 0.160808 1.95864
147 7 10.5423 10.4294 1.88807
148 5 10.9986 10.4927 2.89311
149 5 11.0749 0.54386 1.25701
150 5 10.7158 9.42413 1.46578
151 7 8.15879 9.65278 2.05806
152 5 7.11321 10.0136 1.94308
153 5 8.20762 9.2059 3.06635
154 5 8.34782 8.88116 1.28454
155 6 9.64308 6.57721 4.21448
156 7 10.3916 7.58715 3.45819
157 5 9.89818 7.70177 2.4849
158 5 11.4375 7.27242 3.25386
159 5 10.4479 8.55615 3.98873
160 7 10.4946 5.87605 5.18513
161 5 10.0371 5.73552 6.17593
162 5 11.4268 6.43667 5.37778
163 5 10.6549 4.84685 4.84306
164 6 13.0322 5.59029 9.20009
165 7 0.15136 4.84637 9.14463
166 5 0.0485687 3.83837 9.57875
167 5 0.95533 5.39555 9.6659
168 5 0.492198 4.69398 8.10393
169 7 12.1194 5.09099 8.14678
170 5 11.1556 4.70042 8.53672
171 5 12.5501 4.27735 7.52228
172 5 11.9291 5.92688 7.46226
