ITEM: TIMESTEP
0
ITEM: NUMBER OF ATOMS
172
ITEM: BOX BOUNDS xy xz yz pp pp pp
-2.2759399999999999e-01 1.2505599999999999e+01 0.0000000000000000e+00
0.0000000000000000e+00 1.2523400000000001e+01 -2.2759399999999999e-01
0.0000000000000000e+00 1.0274279000000000e+01 0.0000000000000000e+00
ITEM: ATOMS id type x y z
1 1 3.46763 9.82279 8.65432
2 1 6.10958 3.38386 3.46018
3 2 1.92649 3.9969 4.23193
4 2 4.99434 8.88542 8.65903
5 2 4.6557 2.37356 3.32335
6 2 1.96536 10.7222 9.03403
7 2 5.44048 4.51835 4.70301
8 2 3.1845 8.59589 9.89487
9 2 0.88626 1.65495 5.26
10 2 3.9428 10.974 9.98257
11 3 3.93932 11.1913 7.2343
12 3 1.1173 1.81455 2.55912
13 3 2.74076 8.51988 7.25047
14 3 5.68336 4.75333 1.98022
15 4 5.0045 11.676 5.0922
16 4 0.903451 0.272096 0.658109
17 5 5.52432 11.2848 4.2289
18 5 6.11496 0.243656 9.65972
19 4 4.52871 0.475006 5.08378
20 4 2.2333 12.3499 0.77731
21 4 3.61233 0.798621 6.03244
22 4 2.94054 0.318187 1.87223
23 5 10.8281 1.38567 7.648
24 5 3.92255 12.4462 2.09628
25 4 2.92229 6.8052 5.44048
26 4 5.08689 5.63512 10.0016
27 5 3.32861 6.55607 4.48065
28 5 11.4782 5.05195 9.79525
29 4 3.42927 7.97488 6.16341
30 4 5.8812 4.62034 0.597438
31 5 4.35632 8.38687 5.84147
32 4 4.83686 10.8596 6.25441
33 4 0.337467 1.24624 1.58373
34 5 5.47982 10.0195 6.40141
35 5 5.41359 2.04486 0.889595
36 4 3.36575 12.4802 7.14777
37 4 2.3238 1.2326 2.78431
38 5 2.70308 1.31849 3.74858
39 4 1.66053 7.83432 7.66843
40 4 5.38176 6.05305 2.40704
41 5 5.13299 6.26592 3.41119
42 4 1.38121 6.47498 7.20934
43 4 5.3542 7.16229 1.53615
44 5 5.48289 6.15807 7.05289
45 5 5.21896 8.15384 1.95289
46 4 1.90284 5.98837 5.99147
47 4 5.22573 6.97492 0.174103
48 4 5.2093 1.61491 4.31815
49 4 2.6267 11.2977 10.0655
50 4 1.33742 4.63773 5.27462
51 4 4.37146 8.09589 9.60141
52 1 9.02759 9.18074 9.08544
53 1 0.426862 2.9716 4.05785
54 2 7.49737 4.39435 3.87667
55 2 10.4745 8.14636 9.34944
56 2 11.4875 1.93567 4.22489
57 2 7.50872 10.207 9.22305
58 2 0.0860741 4.0896 5.45357
59 2 8.79513 7.92894 0.111336
60 2 6.30941 2.2011 4.75927
61 2 9.60478 10.3403 0.137213
62 3 9.83185 10.5778 7.66304
63 3 7.04871 2.07446 2.22933
64 3 8.36311 7.90994 7.65849
65 3 12.0915 4.33628 2.7765
66 4 11.2452 11.2067 5.68469
67 4 6.82413 0.481368 0.313873
68 5 11.8308 10.839 4.85718
69 5 0.0267021 12.3162 10.2088
70 4 11.4026 0.0395958 6.06537
71 4 7.78183 12.118 0.811377
72 4 10.7649 0.369921 7.28096
73 4 8.1927 12.3971 2.12363
74 5 3.26234 1.82259 6.05414
75 5 8.49671 11.5754 2.71864
76 4 8.46088 6.59735 5.60557
77 4 11.6769 5.3015 0.557177
78 5 9.01962 6.22616 4.78687
79 5 4.77101 5.38184 9.00289
80 4 9.12654 7.24442 6.70753
81 4 0.0105972 4.55125 1.49035
82 4 10.213 10.3443 6.3131
83 4 6.34502 1.58838 1.13138
84 4 10.098 11.8868 8.09997
85 4 8.0045 1.18138 2.75463
86 5 9.78896 12.2 9.06583
87 4 7.11394 7.38511 7.84816
88 4 11.0308 5.12138 3.20472
89 5 6.74011 7.3974 8.82822
90 5 10.6606 4.97686 4.19617
91 4 6.47512 6.53814 6.87136
92 4 10.4041 6.14421 2.36281
93 5 0.753645 5.83705 7.77932
94 5 9.55607 6.68813 2.73357
95 4 7.18224 6.11379 5.74038
96 4 10.7501 6.29111 1.00647
97 4 12.1278 1.14936 5.11814
98 4 8.12147 10.8511 10.2671
99 4 6.70296 4.99969 4.7905
100 4 10.0582 7.41465 0.0176493
101 6 2.83412 0.608364 8.29828
102 7 3.75545 1.64677 8.76644
103 5 4.80253 1.40917 8.51282
104 5 3.5474 2.64243 8.31464
105 5 3.65566 1.69992 9.85283
106 7 1.50228 1.15453 8.01543
107 5 1.54092 2.08316 7.41741
108 5 0.882727 0.364299 7.57047
109 5 1.00129 1.48113 8.91597
110 6 11.4547 1.19653 1.80658
111 7 10.6799 1.75457 0.691482
112 5 11.0547 1.90757 10.043
113 5 9.80885 1.14347 0.432351
114 5 10.3002 2.73427 1.01973
115 7 11.1217 12.3708 2.28325
116 5 10.4741 12.4581 3.15768
117 5 10.7106 11.7635 1.48095
118 5 11.9954 11.8023 2.68244
119 6 0.89852 8.4502 8.68432
120 7 -0.0545105 9.4153 8.16673
121 5 0.413695 10.0675 7.39931
122 5 11.659 8.89935 7.66798
123 5 12.0621 10.0509 8.99062
124 7 0.53528 7.62965 9.80371
125 5 -0.138867 6.90429 9.39135
126 5 1.40088 7.08858 10.1885
127 5 0.33746 8.24069 0.353522
128 6 7.03824 3.89517 0.109373
129 7 6.81877 3.60396 8.93474
130 5 5.8064 3.40101 8.54922
131 5 7.24753 4.44478 8.35267
132 5 7.44065 2.70367 8.74346
133 7 8.26638 4.56594 0.512685
134 5 8.15367 5.65303 0.389519
135 5 8.48644 4.33236 1.57023
136 5 8.9003 4.22966 10.1764
137 6 9.38586 9.5131 5.44074
138 7 7.94775 9.8428 5.4658
139 5 7.67847 10.4788 6.33428
140 5 7.61017 10.304 4.51854
141 5 7.33784 8.92922 5.51215
142 7 9.85484 9.38933 4.04047
143 5 10.8937 9.02509 3.95931
144 5 9.18006 8.73223 3.45719
145 5 9.88747 10.3565 3.55279
146 6 8.55839 1.35258 4.11395
147 7 9.04263 2.57739 4.74832
148 5 9.46715 3.23075 3.98007
149 5 9.77526 2.36067 5.54273
150 5 8.3129 3.02665 5.43989
151 7 8.23515 0.329421 5.08484
152 5 8.17169 0.698957 6.13328
153 5 9.002 12.1044 4.99554
154 5 7.28722 12.4111 4.83951
155 6 10.4671 6.83477 7.00288
156 7 11.3328 7.07556 5.82147
157 5 11.9455 6.23618 5.60019
158 5 11.9843 7.95521 5.90234
159 5 10.8132 7.19054 4.88149
160 7 10.4049 5.39848 7.36596
161 5 9.73456 5.24989 8.23704
162 5 11.3873 4.99146 7.62549
163 5 10.0379 4.764 6.53176
164 6 1.37421 4.24979 1.15884
165 7 1.39478 3.94594 10.0283
166 5 0.510926 3.49717 9.53564
167 5 1.73136 4.82963 9.45989
168 5 2.19595 3.21737 10.015
169 7 2.33809 5.20215 1.73181
170 5 1.86542 5.93672 2.42311
171 5 3.10171 4.62495 2.27971
172 5 2.8903 5.76662 0.966347
