172
Atoms. Timestep: 0
Ni 2.89857 9.41116 8.59265
Ni 6.17525 3.10579 3.48481
O 1.44827 4.35425 3.93374
O 4.4416 8.15245 9.05464
O 4.63665 1.84729 3.87523
O 1.36499 10.6744 9.00295
O 5.80609 4.46033 4.96242
O 2.54244 8.0327 10.0675
O 0.25117 1.69264 4.94273
O 3.23722 10.8047 10.0626
N 3.69677 10.6606 7.2416
N 0.71256 1.8642 2.11704
N 2.17217 8.14409 7.25198
N 5.44023 4.39481 2.13747
C 3.48546 12.1483 5.36301
C 0.47488 0.38955 0.2292
H 2.86453 12.5181 4.55267
H 5.86971 0.03371 9.69377
C 4.76073 0.1474 5.61481
C 1.74333 12.3699 0.47412
C 5.50345 12.1502 6.68209
C 2.49852 0.35508 1.54004
H 0.24768 12.5084 6.91993
H 3.49155 12.5067 1.77336
C 2.48363 6.6337 5.40822
C 5.72803 5.90364 0.28669
H 3.13294 6.27291 4.61605
H -0.10828 6.26667 9.7662
C 2.92756 7.68099 6.23068
C 6.1883 4.86756 1.11596
H 3.89994 8.14655 6.0889
C 2.98256 11.1359 6.19748
C -0.01036 1.40553 1.07106
H 1.99392 10.709 6.04703
H 5.26093 1.85011 0.92351
C 4.93641 11.1381 7.47507
C 1.94823 1.3719 2.3406
H 2.50886 1.79214 3.17267
C 0.94573 7.62654 7.47302
C 4.21083 4.90458 2.35686
H 3.63605 4.47744 3.17528
C 0.43859 6.57577 6.69176
C 3.68763 5.945 1.56944
H 5.70774 6.17693 6.91975
H 2.69824 6.32683 1.80071
C 1.22745 6.06471 5.65205
C 4.46338 6.45777 0.52027
C 5.3126 1.24381 4.79419
C 2.0502 11.2675 9.92158
C 0.73548 4.94016 4.83586
C 3.73174 7.56629 9.95688
Ni 9.15137 9.41116 8.59265
Ni 12.4281 3.10579 3.48481
O 7.70109 4.35425 3.93374
O 10.6944 8.15245 9.05464
O 10.8895 1.84729 3.87523
O 7.61779 10.6744 9.00295
O 12.0589 4.46033 4.96242
O 8.79524 8.0327 10.0675
O 6.50397 1.69264 4.94273
O 9.49002 10.8047 10.0626
N 9.94957 10.6606 7.2416
N 6.96536 1.8642 2.11704
N 8.42499 8.14409 7.25198
N 11.693 4.39481 2.13747
C 9.73826 12.1483 5.36301
C 6.72768 0.38955 0.2292
H 9.11733 12.5181 4.55267
H 12.1225 0.03371 9.69377
C 11.0135 0.1474 5.61481
C 7.99613 12.3699 0.47412
C 11.7562 12.1502 6.68209
C 8.75132 0.35508 1.54004
H 6.50047 12.5084 6.91993
H 9.74435 12.5067 1.77336
C 8.73644 6.6337 5.40822
C 11.9808 5.90364 0.28669
H 9.38574 6.27291 4.61605
H 6.14452 6.26667 9.7662
C 9.18036 7.68099 6.23068
C 12.4411 4.86756 1.11596
C 9.23536 11.1359 6.19748
C 6.24244 1.40553 1.07106
C 11.1892 11.1381 7.47507
C 8.20102 1.3719 2.3406
H 11.7384 10.7097 8.30944
C 7.19853 7.62654 7.47302
C 10.4636 4.90458 2.35686
H 6.61608 8.05184 8.28732
H 9.88885 4.47744 3.17528
C 6.69139 6.57577 6.69176
C 9.94043 5.945 1.56944
H 11.9605 6.17693 6.91975
H 8.95104 6.32683 1.80071
C 7.48025 6.06471 5.65205
C 10.7162 6.45777 0.52027
C 11.5654 1.24381 4.79419
C 8.303 11.2675 9.92158
C 6.98827 4.94016 4.83586
C 9.98454 7.56629 9.95688
N 5.66676 10.5804 8.64199
C 5.56751 9.16569 8.96505
H 5.03088 8.58999 8.18293
H 6.58677 8.73255 9.04466
H 5.04188 9.03393 9.93477
C 6.34398 11.4367 9.60262
H 6.26886 12.5105 9.33325
H 6.09091 11.3267 0.3233
H 7.40886 11.1373 9.70216
N 11.1451 1.98641 0.87487
C 10.9125 3.40384 1.10366
H 11.8537 3.96295 1.28454
H 10.4378 3.85012 0.20462
H 10.2375 3.54174 1.9751
C 9.9794 1.15061 0.63526
H 10.2384 0.07269 0.58968
H 9.26291 1.26764 1.47551
H 9.23831 1.46406 9.97593
N 0.17053 8.1827 8.60906
C 0.20883 9.60735 8.89965
H 0.74039 10.1847 8.11532
H 11.678 10.0027 8.94707
H 0.70749 9.78198 9.87681
C 12.0108 7.3237 9.57565
H 12.1326 6.24762 9.33411
H 0.18683 7.47547 0.30333
H 10.9334 7.58422 9.64526
N 7.53689 4.27888 0.93528
C 7.75301 2.85516 1.13983
H 6.80378 2.30075 1.29051
H 8.24199 2.42295 0.24155
H 8.40915 2.69383 2.02156
C 8.71409 5.10913 0.73599
H 8.46501 6.18998 0.70717
H 9.41255 4.96893 1.58781
H 9.01603 4.81008 10.0809
N 7.91585 10.5112 5.93921
C 7.05257 10.1285 7.04548
H 7.43594 10.4848 8.02383
H 6.0492 10.5829 6.90533
H 6.94739 9.02318 7.0799
C 7.51643 10.089 4.60614
H 8.28884 10.3204 3.84394
H 7.38097 8.98694 4.5936
H 6.54776 10.5559 4.32823
N 8.94596 1.91723 3.50386
C 8.86525 3.33194 3.83194
H 8.32987 3.9162 3.05534
H 9.88995 3.75306 3.90578
H 8.34791 3.46668 4.80569
C 9.61992 1.0501 4.45713
H 9.53058 12.5016 4.18498
H 9.14746 1.16251 5.45573
H 10.6888 1.33701 4.55015
N 10.517 8.29341 6.04502
C 10.7076 9.72172 6.24289
H 9.74872 10.2594 6.39323
H 11.1867 10.1588 5.34168
H 11.3625 9.89883 7.12248
C 11.7087 7.48387 5.84676
H 11.4793 6.39856 5.82318
H -0.0993 7.6405 6.69644
H 12.2308 7.78845 4.91496
N 1.28409 4.27887 0.93529
C 1.5002 2.85515 1.13983
H 0.55097 2.30074 1.29051
H 1.98918 2.42294 0.24155
H 2.15634 2.69382 2.02156
C 2.46129 5.10911 0.73599
H 2.21222 6.18995 0.70717
H 3.15975 4.96891 1.58781
H 2.76324 4.81005 10.0809
172
Atoms. Timestep: 614
Ni 2.03853 9.09473 8.88117
Ni 6.10204 3.88488 3.69295
O -0.0955318 4.32975 4.10898
O 3.37048 8.00197 9.02956
O 4.67926 2.86233 3.77819
O 0.677453 10.2068 8.9517
O 5.65962 5.04133 5.0248
O 1.46368 7.90924 10.1183
O -1.39809 2.24523 5.17417
O 2.43829 10.2016 10.2242
N 2.94682 10.2642 7.63511
N -0.895077 2.30805 2.60405
N 1.29776 7.98601 7.48132
N 5.28823 5.0655 2.38513
C 3.19793 11.2539 5.44157
C -0.766767 1.20885 0.472049
H 2.83573 11.3376 4.42781
H 6.78567 1.52649 9.62081
C 4.45038 1.45431 5.79447
C 0.630258 11.3862 0.628933
C 4.85101 1.34518 7.1225
C 1.19613 1.36695 1.84503
H 13.1552 2.16887 7.60565
H 2.25201 1.20413 2.02383
C 1.41805 6.29054 5.75368
C 4.89342 5.85733 0.137013
H 1.97421 5.81155 4.9686
H 13.3082 5.42385 9.6467
C 2.04418 7.27976 6.57253
C 5.76342 5.27647 1.12841
H 3.09442 7.49519 6.45273
C 2.42144 10.5643 6.40492
C -1.53686 1.81784 1.51164
H 1.43059 10.2191 6.13889
H 5.48394 2.62884 0.844746
C 4.1924 10.784 7.9923
C 0.401346 1.92127 2.84724
H 0.857468 2.14493 3.80084
C -0.0370609 7.70117 7.59742
C 4.11181 5.6765 2.76168
H 3.72202 5.50724 3.74525
C -0.588961 6.56218 7.00858
C 3.37961 6.4969 1.87595
H 6.26497 6.43829 7.30679
H 2.54165 7.07168 2.24521
C 0.0643135 5.9396 5.9804
C 3.68793 6.48969 0.519801
C 5.28286 2.19626 4.7593
C 1.24262 10.7904 9.99046
C -0.695936 5.04076 5.04812
C 2.69902 7.33507 9.94905
Ni 10.1364 8.82583 9.05991
Ni -1.63487 3.50622 3.89572
O 7.49024 4.91946 3.82472
O 11.6945 7.98537 9.15126
O 12.9231 2.66813 3.92789
O 8.58686 9.67836 9.2302
O 14.1001 4.67425 5.18486
O 9.88894 7.59625 10.3613
O 6.54397 2.70537 4.97081
O 10.4449 10.0564 10.3498
N 10.7393 10.1112 7.68019
N 6.97823 2.70998 2.35609
N 9.42831 7.5656 7.76309
N 13.8702 4.8296 2.53892
C 11.4775 10.6078 5.39634
C 7.31603 1.60723 0.205699
H 11.4217 10.408 4.34207
H -1.48339 11.2295 10.0147
C 12.4691 1.1482 5.86467
C 8.54446 11.3831 0.625337
C 12.4504 1.44756 7.21523
C 8.95407 1.34214 1.90435
H 5.81444 1.7456 7.40874
H 9.92578 11.3855 2.22855
C 9.25463 6.19062 5.77474
C 13.4152 5.60278 0.249794
H 9.73127 5.6826 4.95328
H 4.92214 5.83971 9.53825
C 10.0622 6.89512 6.7561
C 14.2643 4.90755 1.2147
C 10.5106 10.0253 6.3104
C 6.46837 2.30766 1.15056
C 11.7339 10.9705 8.10564
C 8.29634 2.35719 2.63461
H 12.1707 10.8154 9.06795
C 8.1438 7.22857 8.02461
C 12.7586 5.53885 2.9133
H 7.75139 7.47632 8.98231
H 12.2598 5.24384 3.81478
C 7.30259 6.62604 7.07107
C 12.089 6.4417 2.04572
H -1.58527 6.26961 7.25916
H 11.2669 7.03259 2.42798
C 7.83281 6.1304 5.91599
C 12.3222 6.40977 0.679108
C 13.407 1.89002 4.90009
C 9.1398 10.4397 10.1649
C 6.93435 5.541 4.83356
C 11.1909 7.22337 10.1339
N 5.05259 10.0304 8.87779
C 5.69704 8.92085 8.22292
H 5.21218 8.64834 7.25864
H 6.70349 9.24471 8.01097
H 5.70736 8.03503 8.88856
C 4.99645 9.95592 10.358
H 6.22204 9.71307 0.340313
H 4.59371 10.8866 10.7923
H 4.65561 9.1029 0.290595
N 13.1566 1.62678 1.57019
C 12.4396 2.29259 0.47318
H 12.7826 2.3095 9.97127
H 11.4299 1.87825 0.32534
H 12.2827 3.3451 0.735648
C 12.8349 10.5652 1.81145
H 13.4744 10.1427 2.62569
H 11.7949 10.4576 2.14408
H 12.9764 9.96491 0.902726
N -0.904651 8.69408 8.09931
C -1.6296 9.41737 7.06594
H -1.31918 9.13232 6.03576
H 13.4059 9.22948 7.17207
H -1.39688 10.4911 7.19433
C -1.63345 8.32159 9.30267
H 13.9282 7.40158 9.10301
H -0.943988 8.14192 10.1503
H 13.7888 9.13416 9.60178
N 7.18593 5.25809 0.935447
C 7.36335 4.83654 10.0384
H 6.86215 3.91513 9.71487
H 7.00772 5.53934 9.31139
H 8.46361 4.71999 9.95959
C 7.74834 6.55344 1.35
H 7.52118 7.35451 0.621712
H 7.31957 6.89745 2.31698
H 8.83237 6.44421 1.52648
N 9.25518 9.47277 5.80616
C 8.09495 10.3428 6.03376
H 8.17213 10.9048 6.98766
H 7.93385 11.0469 5.20251
H 7.18116 9.72136 6.01509
C 9.25611 9.00051 4.40752
H 10.1457 8.40237 4.17511
H 8.35897 8.37559 4.21684
H 9.22372 9.84293 3.70521
N 9.11749 3.27377 3.35971
C 10.0579 3.9809 2.49819
H 9.73488 4.01418 1.43905
H 11.0398 3.49288 2.53263
H 10.1097 5.01984 2.85159
C 9.66019 2.78636 4.6246
H 10.6847 3.14789 4.79869
H 9.68717 1.70311 4.61352
H 9.04114 3.1418 5.47267
N 11.4748 6.65257 6.84622
C 12.1664 7.1615 5.66006
H 11.6004 6.96 4.74822
H 13.1901 6.78555 5.57427
H 12.2672 8.23981 5.69808
C 11.7325 5.2263 7.10046
H 11.5576 4.61841 6.19512
H 11.0869 4.85425 7.92592
H 12.7752 5.06556 7.41765
N -0.526478 4.4412 0.843827
C -0.533754 4.195 9.85527
H -1.34325 3.57174 9.42168
H -0.462047 5.15176 9.30291
H 0.419417 3.64518 9.72003
C 0.522578 5.28361 1.42194
H 0.157352 5.97374 2.21877
H 1.30219 4.62989 1.85743
H 0.982027 5.90602 0.649707
172
Atoms. Timestep: 7964
Ni 2.09774 9.05363 8.86993
Ni 6.11552 3.9017 3.69198
O -0.123967 4.31026 4.10697
O 3.4149 7.93998 8.97307
O 4.70129 2.87413 3.77446
O 0.759902 10.1757 8.98172
O 5.65519 5.06007 5.01224
O 1.53157 7.85987 10.1018
O -1.45746 2.22248 5.17026
O 2.54808 10.1355 10.2354
N 2.99206 10.2338 7.61545
N -0.886367 2.26798 2.60748
N 1.30454 7.97679 7.46728
N 5.30517 5.05462 2.38739
C 3.23151 11.2363 5.4252
C -0.716867 1.02661 0.549442
H 2.87243 11.3193 4.41046
H 6.74661 1.59072 9.61152
C 4.4603 1.47717 5.79312
C 0.697566 11.2884 0.691975
C 4.82724 1.39816 7.13163
C 1.254 1.37673 1.87872
H 13.1412 2.10268 7.61577
H 2.31646 1.27018 2.05848
C 1.38136 6.31942 5.69855
C 5.06821 6.00867 0.19342
H 1.93804 5.81754 4.92764
H 13.052 5.2187 9.63535
C 2.02636 7.28561 6.52631
C 5.88381 5.42172 1.21454
H 3.0819 7.47831 6.40308
C 2.46212 10.5281 6.38569
C -1.51246 1.6584 1.56433
H 1.47309 10.1796 6.12359
H 5.45239 2.66331 0.876697
C 4.25119 10.7388 7.93941
C 0.430095 1.93944 2.86285
H 0.864043 2.1731 3.82323
C -0.0297889 7.68559 7.61814
C 4.04135 5.51138 2.68744
H 3.59468 5.24346 3.62753
C -0.63693 6.63852 6.91965
C 3.31314 6.31806 1.79384
H 6.37327 5.96392 7.46237
H 2.40576 6.80508 2.12418
C 0.0183659 6.00264 5.90679
C 3.76073 6.46869 0.489011
C 5.29906 2.21989 4.76265
C 1.3329 10.7269 10.0329
C -0.72641 5.03019 5.03326
C 2.75525 7.27414 9.90455
Ni 10.067 8.80755 9.09067
Ni -1.66386 3.486 3.88451
O 7.49413 4.94117 3.82624
O 11.6364 7.98695 9.19033
O 12.8814 2.6478 3.90585
O 8.49863 9.63267 9.24935
O 14.0664 4.66781 5.16915
O 10.0639 7.58545 -0.0497175
O 6.55933 2.73004 4.97443
O 10.3679 10.0403 10.3576
N 10.6772 10.0944 7.71259
N 6.9887 2.74332 2.34972
N 9.3767 7.5281 7.80662
N 13.86 4.82302 2.51593
C 11.3374 10.6323 5.4163
C 7.27271 1.6352 0.20152
H 11.2299 10.4528 4.35903
H -1.43027 10.9494 10.1344
C 12.3853 1.13617 5.86704
C 8.48802 11.3726 0.622085
C 12.4104 1.40622 7.22487
C 8.93468 1.35369 1.88527
H 5.73419 1.88807 7.46153
H 9.90329 11.3591 2.20805
C 9.21118 6.37883 5.69116
C 13.2581 5.47739 0.229071
H 9.674 6.04177 4.77351
H 5.23836 6.1654 9.6583
C 10.0102 7.02352 6.71042
C 14.168 4.82506 1.16491
C 10.387 10.0525 6.3637
C 6.44822 2.34586 1.15393
C 11.7021 10.9196 8.12046
C 8.32933 2.43635 2.56719
H 12.1725 10.707 9.05599
C 8.13983 7.03052 8.11901
C 12.8303 5.65045 2.9288
H 7.70071 7.29294 9.0574
H 12.3336 5.42715 3.85098
C 7.35616 6.3237 7.18797
C 12.1746 6.55753 2.05594
H -1.65285 6.38969 7.12578
H 11.4323 7.2361 2.45404
C 7.82226 6.135 5.91529
C 12.2618 6.38642 0.686171
C 13.3459 1.87 4.89022
C 9.06188 10.4083 10.1739
C 6.92699 5.56716 4.82573
C 11.1331 7.21736 10.1641
N 5.18509 9.90299 8.63196
C 5.69517 8.80708 7.82457
H 5.11222 8.64398 6.89145
H 6.72216 9.03674 7.53578
H 5.67128 7.88358 8.40618
C 5.23522 9.78516 10.1
H 6.50216 9.59733 -0.0285944
H 5.06127 10.6909 0.134989
H 4.94159 8.92404 0.0701374
N 13.1798 1.43756 1.62482
C 12.4763 2.12366 0.538858
H 12.8049 2.10725 10.0403
H 11.4486 1.76572 0.41625
H 12.3511 3.16891 0.787975
C 12.8599 10.3611 1.76505
H 13.5324 9.87147 2.50456
H 11.8315 10.2378 2.14545
H 12.9431 9.83836 0.797376
N -0.842944 8.54199 8.40234
C -1.69347 9.38939 7.56918
H -1.38195 9.40907 6.49892
H 13.3703 9.05043 7.6241
H -1.60297 10.4257 7.93514
C -1.52652 7.86085 9.48963
H 13.8265 7.19947 9.05831
H -0.82583 7.26058 10.0956
H 14.1129 8.59593 10.1614
N 7.3088 5.5762 1.18102
C 7.72472 5.02315 10.4297
H 7.95645 3.97334 10.5846
H 7.08269 5.03731 9.53581
H 8.70473 5.48757 10.236
C 7.69201 6.94805 1.55077
H 7.5414 7.65236 0.714675
H 7.08403 7.31564 2.40696
H 8.74119 6.96875 1.90076
N 9.04556 9.68899 5.94303
C 8.10323 10.7743 6.23325
H 8.05305 10.9926 7.31526
H 8.40531 11.6937 5.73633
H 7.08687 10.5118 5.87431
C 8.90974 9.25001 4.54342
H 9.75124 8.60849 4.22381
H 7.97132 8.66871 4.42704
H 8.85521 10.1123 3.86429
N 9.1957 3.44076 3.11512
C 10.1625 3.99517 2.16567
H 10.0484 3.61325 1.13569
H 11.186 3.74538 2.46781
H 10.0322 5.08799 2.14499
C 9.75926 3.10959 4.41732
H 10.6726 3.6845 4.61567
H 10.0126 2.05365 4.43971
H 9.04659 3.37308 5.22134
N 11.4261 6.79001 6.77647
C 12.146 7.35864 5.62902
H 11.5459 7.35525 4.70725
H 13.103 6.85606 5.44359
H 12.4184 8.39393 5.83212
C 11.702 5.36702 7.03097
H 11.6452 4.7808 6.10585
H 10.9952 4.94281 7.77967
H 12.7103 5.23245 7.4455
N -0.666592 4.28922 0.715388
C -0.778134 4.00025 9.72022
H -1.60885 3.36307 9.36786
H -0.762088 4.9348 9.12372
H 0.165482 3.44776 9.52293
C 0.471121 5.07805 1.20342
H 0.183587 5.82262 1.97886
H 1.22096 4.39082 1.64366
H 0.963476 5.62697 0.38123
172
Atoms. Timestep: 7966
Ni 2.10789 9.05127 8.87132
Ni 6.11562 3.9037 3.69144
O -0.107762 4.31191 4.10659
O 3.42164 7.93856 8.97449
O 4.70505 2.87699 3.77395
O 0.773503 10.1724 8.98315
O 5.6564 5.06109 5.0122
O 1.5431 7.85852 10.1037
O -1.43788 2.22589 5.17028
O 2.55698 10.1322 10.2373
N 2.99998 10.2305 7.61637
N -0.868093 2.27135 2.60653
N 1.31684 7.97534 7.46814
N 5.30745 5.05564 2.38636
C 3.23896 11.2321 5.42531
C -0.698897 11.3732 0.547735
H 2.88087 11.315 4.41019
H 6.7447 1.59466 9.61318
C 4.46455 1.48121 5.79337
C 0.711872 11.2841 0.690321
C 4.83045 1.40227 7.13238
C 1.26679 1.38085 1.87751
H 13.1229 2.1062 7.61669
H 2.32649 1.2744 2.05733
C 1.39358 6.31937 5.69876
C 5.07125 6.00889 0.191581
H 1.94886 5.81792 4.92756
H 13.0338 5.21958 9.63702
C 2.03685 7.28474 6.52683
C 5.88468 5.42243 1.21308
H 3.08967 7.47728 6.40355
C 2.47149 10.5245 6.38615
C -1.4925 1.66229 1.563
H 1.48504 10.1763 6.12395
H 5.4544 2.66635 0.875112
C 4.25584 10.735 7.94045
C 0.444949 1.9431 2.862
H 0.877714 2.17655 3.82274
C -0.0140571 7.68439 7.61907
C 4.04688 5.51202 2.68653
H 3.6013 5.24432 3.62697
C -0.619583 6.6382 6.92031
C 3.32062 6.31801 1.7926
H 6.37247 5.96417 7.46323
H 2.41556 6.80462 2.12306
C 0.0340853 6.00286 5.90708
C 3.76713 6.46852 0.487281
C 5.30121 2.22331 4.76251
C 1.34495 10.7231 10.0347
C -0.708708 5.03123 5.03322
C 2.76364 7.27329 9.90632
Ni 10.0566 8.8054 9.09215
Ni -1.64366 3.48835 3.88404
O 7.49066 4.94228 3.82575
O 11.6219 7.98549 9.19183
O 12.864 2.65086 3.90539
O 8.49221 9.62982 9.25088
O 14.0458 4.66916 5.16916
O 10.054 7.58433 -0.0516476
O 6.55821 2.73302 4.97437
O 10.3566 10.0371 10.3596
N 10.6653 10.0911 7.71355
N 6.98664 2.7463 2.34868
N 9.36811 7.52703 7.80762
N 13.8401 4.82424 2.51495
C 11.3239 10.6286 5.41641
C 7.27006 1.63911 0.199684
H 11.2167 10.4492 4.35874
H -1.41109 10.9455 10.1363
C 12.369 1.1405 5.86731
C 8.4822 11.3683 0.620404
C 12.394 1.41032 7.22565
C 8.92762 1.35784 1.88406
H 5.73504 1.89177 7.46239
H 9.89371 11.3548 2.20696
C 9.20316 6.37873 5.69137
C 13.2399 5.47805 0.227245
H 9.66484 6.04196 4.77338
H 5.24034 6.16548 9.65998
C 10 7.02287 6.71101
C 14.1475 4.82627 1.16343
C 10.3759 10.0493 6.36415
C 6.44764 2.34917 1.15245
C 11.6875 10.9156 8.12157
C 8.32379 2.43959 2.56623
H 12.1566 10.7033 9.05745
C 8.13442 7.02987 8.12012
C 12.8131 5.65097 2.92797
H 7.69637 7.29206 9.05886
H 12.3176 5.42786 3.8505
C 7.35283 6.32365 7.18873
C 12.1592 6.55728 2.05479
H -1.63289 6.38958 7.12652
H 11.4187 7.23528 2.45304
C 7.81781 6.13511 5.91558
C 12.2462 6.38632 0.684515
C 13.3272 1.87371 4.89013
C 9.05395 10.4048 10.1758
C 6.92493 5.56774 4.82561
C 11.1198 7.21655 10.166
N 5.18728 9.89991 8.63326
C 5.6961 8.80493 7.82557
H 5.11471 8.64196 6.8921
H 6.72044 9.03439 7.53668
H 5.67223 7.88221 8.4074
C 5.23719 9.78218 10.1019
H 6.50151 9.59451 -0.0305166
H 5.06434 10.6872 0.133128
H 4.94497 8.92178 0.068252
N 13.1618 1.44164 1.62351
C 12.4602 2.12716 0.537147
H 12.7873 2.11076 10.0421
H 11.4351 1.76952 0.414494
H 12.3353 3.17152 0.786357
C 12.8427 10.3576 1.7638
H 13.5134 9.86842 2.50358
H 11.817 10.2344 2.14434
H 12.9257 9.83533 0.795761
N -0.825162 8.54006 8.40356
C -1.67344 9.38674 7.57008
H -1.36265 9.40641 6.49943
H 13.3514 9.04807 7.62503
H -1.58319 10.4222 7.93619
C -1.50705 7.8595 9.49125
H 13.8064 7.19868 9.05977
H -0.808204 7.25974 10.0974
H -1.97386 8.59395 10.1633
N 7.30599 5.57678 1.17955
C 7.95175 5.02419 -0.0199881
H 8.18287 3.97528 0.13503
H 7.07991 5.03835 9.53744
H 8.69772 5.48823 10.2379
C 7.68818 6.94747 1.54944
H 7.53801 7.65119 0.713029
H 7.08172 7.31475 2.40595
H 8.73463 6.96815 1.89955
N 9.03795 9.68609 5.94333
C 8.09803 10.7705 6.23366
H 8.04791 10.9886 7.31607
H 8.39936 1.34693 5.73655
H 7.08432 10.5082 5.87458
C 8.90257 9.24748 4.5432
H 9.74192 8.60651 4.22347
H 7.96659 8.66667 4.42678
H 8.84823 10.1091 3.86381
N 9.18789 3.44315 3.11437
C 10.1523 3.99709 2.16457
H 10.0385 3.61549 1.1342
H 11.1731 3.74751 2.46682
H 10.0222 5.08898 2.14388
C 9.7499 3.11226 4.41705
H 10.6609 3.68668 4.61547
H 10.0026 2.05721 4.43945
H 9.03902 3.37552 5.22137
N 11.4123 6.78957 6.77708
C 12.1304 7.35771 5.6292
H 11.532 7.35433 4.70709
H 13.0849 6.85556 5.44371
H 12.402 8.39213 5.83238
C 11.6875 5.36777 7.03167
H 11.6308 4.78205 6.10621
H 10.9824 4.94393 7.78065
H 12.6932 5.23332 7.44636
N -0.648762 4.29089 0.713743
C -0.760606 4.00216 9.72192
H -1.58915 3.36552 9.36944
H -0.744562 4.93592 9.1252
H 0.180585 3.45014 9.52457
C 0.485979 5.07905 1.20196
H 0.199136 5.82299 1.97768
H 1.23385 4.3924 1.64236
H 0.977115 5.62751 0.37946
172
Atoms. Timestep: 14968
Ni 2.1088 9.05208 8.86841
Ni 6.11188 3.90751 3.68915
O -0.099673 4.3111 4.10658
O 3.42282 7.9368 8.9701
O 4.69903 2.87923 3.77206
O 0.772892 10.1759 8.98138
O 5.64914 5.06626 5.00764
O 1.54004 7.85983 10.099
O -1.43264 2.22542 5.17163
O 2.56246 10.1309 10.2333
N 3.0019 10.2307 7.61472
N -0.862179 2.26735 2.60942
N 1.31702 7.97809 7.46608
N 5.30337 5.05712 2.38356
C 3.23555 11.2327 5.42496
C -0.697567 11.3643 0.55429
H 2.87805 11.3098 4.40933
H 6.74258 1.59979 9.61423
C 4.46159 1.48678 5.79237
C 0.716935 11.2811 0.691183
C 4.8293 1.41047 7.13098
C 1.27694 1.37994 1.87568
H 13.1252 2.11249 7.61723
H 2.3404 1.27652 2.0515
C 1.39816 6.32366 5.69645
C 5.07169 6.00839 0.189
H 1.95593 5.82251 4.92669
H 13.0239 5.19892 9.63675
C 2.04026 7.29023 6.52402
C 5.8845 5.42258 1.21164
H 3.09517 7.48512 6.401
C 2.46861 10.5255 6.3866
C -1.49046 1.65292 1.57047
H 1.479 10.1771 6.12667
H 5.44655 2.66619 0.877342
C 4.26026 10.7379 7.93704
C 0.455352 1.94197 2.86168
H 0.891605 2.17825 3.82023
C -0.0151771 7.68343 7.61866
C 4.04008 5.5148 2.68139
H 3.59071 5.24481 3.61904
C -0.621283 6.63944 6.91584
C 3.31613 6.32345 1.78746
H 6.37265 5.94506 7.46354
H 2.41011 6.81397 2.11648
C 0.0364431 6.00503 5.90378
C 3.76482 6.46939 0.482697
C 5.2982 2.22727 4.76095
C 1.34866 10.7243 10.033
C -0.704529 5.03168 5.03098
C 2.76169 7.27205 9.90117
Ni 10.056 8.80386 9.09306
Ni -1.63903 3.48661 3.88411
O 7.48879 4.9484 3.82276
O 11.6248 7.98349 9.19046
O 12.8653 2.64881 3.90578
O 8.48828 9.62753 9.25396
O 14.0474 4.66883 5.166
O 10.053 7.58067 -0.0538383
O 6.55748 2.73867 4.97216
O 10.3584 10.0337 10.3611
N 10.6642 10.093 7.71702
N 6.98449 2.74888 2.34861
N 9.36673 7.5266 7.80717
N 13.8458 4.82207 2.51268
C 11.3206 10.6309 5.42079
C 7.26754 1.6413 0.200832
H 11.2118 10.4512 4.36367
H -1.41318 10.9322 10.1466
C 12.3689 1.14284 5.87004
C 8.48233 11.3696 0.62119
C 12.3944 1.41533 7.22753
C 8.93065 1.36077 1.88341
H 5.73309 1.906 7.46113
H 9.89757 11.3548 2.2081
C 9.20032 6.39191 5.68478
C 13.2369 5.46507 0.225017
H 9.66271 6.0585 4.76547
H 5.24484 6.16746 9.65934
C 9.99931 7.03179 6.70618
C 14.1493 4.8167 1.16043
C 10.3707 10.0535 6.36928
C 6.44313 2.35028 1.15365
C 11.687 10.9207 8.12445
C 8.32436 2.44165 2.56659
H 12.1585 10.7087 9.05937
C 8.13338 7.021 8.12063
C 12.8228 5.65793 2.92513
H 7.69181 7.28303 9.05805
H 12.3238 5.43853 3.84679
C 7.35245 6.31278 7.18844
C 12.1703 6.56455 2.04996
H -1.63729 6.39076 7.1189
H 11.4345 7.25069 2.44713
C 7.81397 6.14054 5.91159
C 12.249 6.38284 0.68116
C 13.3294 1.87299 4.89186
C 9.05283 10.402 10.1787
C 6.92013 5.57442 4.8215
C 11.1211 7.21225 10.1628
N 5.20012 9.90087 8.62062
C 5.69504 8.80128 7.80756
H 5.10898 8.64818 6.8749
H 6.72291 9.0194 7.51508
H 5.6648 7.87546 8.38482
C 5.24849 9.77457 10.0885
H 6.5147 9.58906 -0.0432115
H 5.072 10.6762 0.124848
H 4.96002 8.90982 0.0518826
N 13.1608 1.43074 1.63453
C 12.4559 2.11978 0.55154
H 12.7831 2.10821 10.0561
H 11.428 1.76413 0.429347
H 12.3313 3.16338 0.804534
C 12.8424 10.3448 1.77103
H 13.5164 9.85388 2.50834
H 11.8147 10.2188 2.15217
H 12.9253 9.82518 0.801773
N -0.82736 8.53445 8.40904
C -1.67912 9.38502 7.58085
H -1.36738 9.41213 6.51076
H 13.3441 9.04349 7.63354
H -1.5902 10.4192 7.95258
C -1.5091 7.84597 9.49258
H 13.8078 7.18073 9.05755
H -0.806743 7.24767 10.098
H -1.98212 8.57607 10.1662
N 7.30935 5.57637 1.18057
C 7.95778 5.02047 -0.0167024
H 8.19155 3.97201 0.141764
H 7.08413 5.02917 9.54095
H 8.70564 5.48466 10.2397
C 7.69163 6.9489 1.54903
H 7.54318 7.6516 0.711478
H 7.08139 7.31829 2.40286
H 8.73964 6.97065 1.90215
N 9.02615 9.69833 5.95219
C 8.08813 10.7843 6.25575
H 8.02457 10.9767 7.34086
H 8.40375 1.37387 5.79279
H 7.07463 10.5381 5.87822
C 8.8821 9.26753 4.55101
H 9.72159 8.62703 4.2228
H 7.94298 8.68681 4.43701
H 8.82282 10.1344 3.87814
N 9.18884 3.4428 3.12255
C 10.1569 4.00511 2.17998
H 10.0468 3.62896 1.14774
H 11.179 3.75478 2.4835
H 10.0254 5.09783 2.16678
C 9.74518 3.10799 4.42657
H 10.6703 3.66334 4.62417
H 9.97489 2.04717 4.45484
H 9.03748 3.39152 5.22801
N 11.4148 6.79705 6.77005
C 12.1333 7.36728 5.62208
H 11.5302 7.37154 4.70173
H 13.0877 6.86187 5.43179
H 12.4117 8.40014 5.82841
C 11.6873 5.37244 7.02015
H 11.6388 4.79174 6.0913
H 10.9731 4.94382 7.75941
H 12.6905 5.23449 7.44522
N -0.645378 4.27816 0.708983
C -0.75929 3.98984 9.71723
H -1.58872 3.35022 9.36667
H -0.747118 4.92445 9.12051
H 0.185327 3.43988 9.51761
C 0.493982 5.06589 1.19435
H 0.210075 5.80564 1.97556
H 1.24772 4.37761 1.62608
H 0.979892 5.62022 0.372048
172
Atoms. Timestep: 14970
Ni 2.11686 9.0505 8.8708
Ni 6.11195 3.90885 3.68822
O -0.0867536 4.31221 4.10592
O 3.42814 7.93585 8.97254
O 4.70202 2.88115 3.77119
O 0.783709 10.1736 8.98383
O 5.65009 5.06693 5.00755
O 1.5492 7.85892 10.1022
O -1.41702 2.22771 5.17165
O 2.56949 10.1287 10.2365
N 3.00817 10.2285 7.6163
N -0.847588 2.26961 2.6078
N 1.3268 7.97712 7.46757
N 5.30519 5.0578 2.3818
C 3.24148 11.2299 5.42514
C -0.683195 11.3614 0.551362
H 2.88478 11.307 4.40886
H 6.74099 1.60244 9.6171
C 4.46495 1.48949 5.79279
C 0.728366 11.2782 0.688343
C 4.83182 1.41322 7.13226
C 1.28714 1.38271 1.8736
H 13.1105 2.11484 7.61881
H 2.34839 1.27935 2.04952
C 1.40788 6.32362 5.69681
C 5.07412 6.00853 0.185839
H 1.96454 5.82276 4.92655
H 13.0093 5.19952 9.63962
C 2.0486 7.28964 6.5249
C 5.88518 5.42305 1.20913
H 3.10133 7.48442 6.4018
C 2.47607 10.5231 6.3874
C -1.4745 1.65553 1.56819
H 1.48852 10.1749 6.1273
H 5.44816 2.66823 0.87462
C 4.26391 10.7353 7.93883
C 0.467196 1.94442 2.86023
H 0.902486 2.18057 3.81939
C -0.00264394 7.68262 7.62024
C 4.0445 5.51523 2.67982
H 3.59601 5.24538 3.61807
C -0.607451 6.63922 6.91697
C 3.3221 6.32342 1.78532
H 6.37195 5.94524 7.46502
H 2.41794 6.81365 2.11455
C 0.0489723 6.00517 5.90427
C 3.76995 6.46927 0.479723
C 5.29989 2.22956 4.76071
C 1.35822 10.7217 10.0362
C -0.690411 5.03238 5.03092
C 2.76833 7.27147 9.90422
Ni 10.0476 8.80242 9.09559
Ni -1.62291 3.48818 3.88331
O 7.48599 4.94914 3.82192
O 11.6131 7.98252 9.19305
O 12.8514 2.65086 3.90499
O 8.48308 9.62561 9.25659
O 14.031 4.66973 5.16601
O 10.0452 7.57992 -0.0571549
O 6.55655 2.74067 4.97206
O 10.3493 10.0315 10.3644
N 10.6546 10.0908 7.71867
N 6.98283 2.75087 2.34682
N 9.35979 7.52588 7.80887
N 13.8299 4.82289 2.511
C 11.3098 10.6284 5.42098
C 7.26541 1.64392 0.197678
H 11.2013 10.4488 4.36317
H -1.3979 10.9295 10.1498
C 12.3559 1.14575 5.8705
C 8.47766 11.3667 0.618305
C 12.3813 1.41808 7.22887
C 8.92498 1.36355 1.88133
H 5.73371 1.90847 7.46262
H 9.88987 11.3519 2.20622
C 9.19386 6.39184 5.68513
C 13.2224 5.46552 0.221879
H 9.65535 6.05862 4.76523
H 5.24635 6.16751 9.66223
C 9.99114 7.03135 6.70718
C 14.1329 4.81752 1.15789
C 10.3617 10.0513 6.37007
C 6.44266 2.3525 1.15111
C 11.6752 10.9181 8.12636
C 8.31991 2.44382 2.56495
H 12.1457 10.7061 9.06187
C 8.12899 7.02057 8.12254
C 12.809 5.65827 2.92371
H 7.68828 7.28245 9.06055
H 12.311 5.439 3.84597
C 7.34973 6.31275 7.18975
C 12.1579 6.56438 2.04799
H -1.62136 6.39069 7.12017
H 11.4236 7.25013 2.44541
C 7.81037 6.1406 5.91208
C 12.2365 6.38277 0.678313
C 13.3144 1.87548 4.8917
C 9.04641 10.3996 10.182
C 6.91845 5.57481 4.82129
C 11.1104 7.21171 10.166
N 5.20178 9.89881 8.62285
C 5.69573 8.79984 7.80927
H 5.11093 8.64683 6.87601
H 6.72148 9.01784 7.5166
H 5.66551 7.87454 8.3869
C 5.24996 9.77258 10.0916
H 6.51416 9.58717 -0.0465213
H 5.07444 10.6737 0.121646
H 4.96269 8.90832 0.0486336
N 13.1463 1.43348 1.63229
C 12.443 2.12213 0.54861
H 12.769 2.11057 10.0592
H 11.4172 1.76668 0.426339
H 12.3186 3.16514 0.801766
C 12.8287 10.3425 1.76888
H 13.5011 9.85184 2.50666
H 11.803 10.2165 2.15026
H 12.9114 9.82316 0.799003
N -0.813191 8.53316 8.41113
C -1.66314 9.38324 7.58241
H -1.35197 9.41034 6.51164
H 13.3289 9.04192 7.63514
H -1.57442 10.4168 7.95437
C -1.49358 7.84507 9.49536
H 13.7916 7.1802 9.06005
H -0.792718 7.24711 10.1011
H -1.96566 8.57476 10.1694
N 7.30709 5.57676 1.17804
C 7.95424 5.02117 -0.0199953
H 8.18752 3.97331 0.138573
H 7.08182 5.02987 9.54377
H 8.69993 5.4851 10.243
C 7.68855 6.94851 1.54673
H 7.54045 7.65081 0.70865
H 7.07952 7.31769 2.40111
H 8.73436 6.97025 1.90008
N 9.02004 9.69638 5.95271
C 8.08394 10.7818 6.25647
H 8.02045 10.9741 7.34227
H 8.39893 1.37664 5.79321
H 7.07257 10.5357 5.87869
C 8.87637 9.26582 4.55064
H 9.71414 8.62569 4.22221
H 7.9392 8.68544 4.43656
H 8.81725 10.1322 3.87734
N 9.18256 3.4444 3.12127
C 10.1487 4.00639 2.17809
H 10.0389 3.63045 1.14519
H 11.1686 3.7562 2.4818
H 10.0174 5.09849 2.16488
C 9.73767 3.10978 4.42611
H 10.6608 3.66482 4.62384
H 9.9669 2.04957 4.4544
H 9.03138 3.39315 5.22807
N 11.4037 6.79674 6.77109
C 12.1208 7.36665 5.62239
H 11.519 7.37091 4.70145
H 13.0732 6.86153 5.43198
H 12.3986 8.39893 5.82885
C 11.6756 5.37295 7.02135
H 11.6272 4.79257 6.09191
H 10.9628 4.94456 7.76108
H 12.6767 5.23507 7.44669
N -0.631123 4.27928 0.706154
C -0.74534 3.99113 9.72016
H -1.57303 3.35188 9.36937
H -0.733158 4.92521 9.12306
H 0.19733 3.44148 9.52041
C 0.505845 5.06657 1.19183
H 0.222481 5.8059 1.97354
H 1.25799 4.37868 1.62383
H 0.990797 5.62058 0.369004
172
Atoms. Timestep: 20000
Ni 2.11803 9.04944 8.86703
Ni 6.10971 3.91239 3.68491
O -0.078807 4.31339 4.10247
O 3.42935 7.9326 8.96694
O 4.6984 2.88291 3.76889
O 0.783366 10.1745 8.98191
O 5.64424 5.07271 5.00109
O 1.5475 7.85793 10.0965
O -1.41051 2.23038 5.17306
O 2.57487 10.1255 10.2317
N 3.01029 10.2277 7.61349
N -0.840645 2.26502 2.61004
N 1.32698 7.97809 7.46492
N 5.30243 5.05771 2.37723
C 3.239 11.231 5.42438
C -0.681678 11.3495 0.558916
H 2.88311 11.3031 4.40791
H 6.74224 1.60289 9.61988
C 4.46243 1.49531 5.79184
C 0.733343 11.2728 0.68919
C 4.82982 1.42093 7.13083
C 1.29739 1.38163 1.87052
H 13.1219 2.11669 7.62286
H 2.36201 1.28222 2.04181
C 1.41126 6.33062 5.69046
C 5.07631 6.00783 0.1823
H 1.96926 5.83387 4.91861
H 12.9973 5.17326 9.63494
C 2.05093 7.29568 6.51976
C 5.88632 5.4226 1.20652
H 3.10481 7.49349 6.39613
C 2.47407 10.5236 6.38685
C -1.47154 1.64344 1.5768
H 1.4841 10.1751 6.12852
H 5.44387 2.66495 0.876474
C 4.26859 10.7361 7.9336
C 0.478547 1.94448 2.85822
H 0.91792 2.18557 3.81401
C -0.00286056 7.67856 7.62037
C 4.03848 5.51404 2.67187
H 3.58611 5.24117 3.60691
C -0.608345 6.63881 6.91127
C 3.31794 6.32392 1.77738
H 6.37716 5.92396 7.46399
H 2.41188 6.81555 2.10462
C 0.0512732 6.00847 5.8978
C 3.76907 6.46826 0.473484
C 5.29817 2.23404 4.75942
C 1.36172 10.7201 10.0343
C -0.686441 5.0361 5.02382
C 2.76741 7.26846 9.89776
Ni 10.0494 8.80026 9.09668
Ni -1.61731 3.48737 3.8813
O 7.48467 4.95577 3.81748
O 11.6174 7.97894 9.18952
O 12.8549 2.64905 3.9051
O 8.48293 9.62169 9.26255
O 14.0334 4.67191 5.15882
O 10.0463 7.57299 -0.0627228
O 6.55699 2.74662 4.96995
O 10.3539 10.0246 10.3689
N 10.6565 10.0954 7.72555
N 6.98285 2.75261 2.34646
N 9.3596 7.52832 7.80559
N 13.8361 4.81931 2.50463
C 11.3043 10.6397 5.42907
C 7.26605 1.64268 0.200261
H 11.1906 10.4633 4.37175
H -1.40004 10.913 10.1618
C 12.3574 1.1518 5.87602
C 8.48157 11.3669 0.620713
C 12.3884 1.42199 7.23433
C 8.93186 1.36827 1.88082
H 5.72894 1.9236 7.46286
H 9.89637 11.3532 2.20936
C 9.18911 6.41487 5.67266
C 13.2175 5.44678 0.215383
H 9.65037 6.0863 4.75088
H 5.25295 6.1701 9.66127
C 9.9897 7.04732 6.69707
C 14.1334 4.80359 1.15064
C 10.3553 10.0648 6.38005
C 6.44114 2.35104 1.15263
C 11.6801 10.9226 8.13257
C 8.32201 2.44576 2.56565
H 12.151 10.7115 9.06802
C 8.13016 7.0132 8.1203
C 12.822 5.66643 2.91632
H 7.68642 7.27309 9.05744
H 12.3227 5.45502 3.83925
C 7.3523 6.30264 7.18699
C 12.172 6.57064 2.03763
H -1.62529 6.39097 7.10992
H 11.4446 7.2665 2.43347
C 7.80654 6.1511 5.90446
C 12.2395 6.37534 0.670238
C 13.3184 1.87747 4.89486
C 9.04843 10.3932 10.1888
C 6.91418 5.58271 4.81484
C 11.1128 7.20374 10.1585
N 5.21515 9.89676 8.60556
C 5.69017 8.79143 7.7864
H 5.09465 8.6457 6.85901
H 6.71627 8.99671 7.48052
H 5.65863 7.86479 8.36208
C 5.2625 9.76315 10.0732
H 6.52817 9.58055 -0.0647037
H 5.08384 10.6612 0.107551
H 4.97948 8.89511 0.0280532
N 13.1472 1.41827 1.64667
C 12.4366 2.1134 0.571487
H 12.7602 2.112 10.0805