Created on Wed Jan 04 05:14:29 2017 

        1920 atoms
        2496 bonds
        5856 angles
        2688 dihedrals
        1440 impropers

           5 atom types
          15 bond types
          54 angle types
           3 dihedral types
           1 improper types
           0.000000  28.934001 xlo xhi
           0.000000  30.279361 ylo yhi
           0.000000  30.324578 zlo zhi
          -3.737849  -9.448564 -11.354699 xy xz yz

Masses

    1    69.723000000 # Ga3+3
    2     1.007940000 # H_
    3    12.010700000 # C_R
    4    15.999400000 # O_3_z
    5    15.999400000 # O_R

Bond Coeffs

    1      278.852286        1.941158  # Ga3+3 O_3_z
    2      278.852286        1.920655  # Ga3+3 O_3_z
    3      219.446717        1.993066  # Ga3+3 O_R
    4      278.852286        1.920659  # Ga3+3 O_3_z
    5      219.446717        1.993062  # Ga3+3 O_R
    6      219.446717        1.975447  # Ga3+3 O_R
    7      278.852286        1.951389  # Ga3+3 O_3_z
    8      278.852286        1.951022  # Ga3+3 O_3_z
    9      219.446717        1.975450  # Ga3+3 O_R
   10      278.852286        1.951386  # Ga3+3 O_3_z
   11      850.878848        0.861362  # H_ O_3_z
   12      357.440381        1.081418  # H_ C_R
   13      391.669513        1.458000  # C_R C_R
   14      646.680887        1.311940  # C_R O_R
   15      462.655054        1.379256  # C_R C_R

Angle Coeffs

    1                      fourier       16.027905       78.953089      105.436266       26.484363 # O_3_z Ga3+3 O_3_z
    2                      fourier       97.574582        0.273095       -0.178163        0.257698 # O_3_z Ga3+3 O_3_z
    3                      fourier       57.144872        0.262121        0.128148        0.254040 # O_3_z Ga3+3 O_3_z
    4                      fourier       57.952808        0.251762        0.048527        0.250587 # O_3_z Ga3+3 O_R
    5                      fourier       57.317191        0.258941        0.109836        0.252980 # O_3_z Ga3+3 O_3_z
    6                      fourier       97.575024        0.273095       -0.178163        0.257698 # O_3_z Ga3+3 O_3_z
    7                      fourier       60.468299        0.250454        0.024606        0.250151 # O_3_z Ga3+3 O_R
    8                      fourier       57.317486        0.258941        0.109836        0.252980 # O_3_z Ga3+3 O_3_z
    9                      fourier       15.669547       19.867243       26.651634        6.789081 # O_3_z Ga3+3 O_R
   10                      fourier       60.467916        0.250454        0.024606        0.250151 # O_3_z Ga3+3 O_R
   11                      fourier       63.611658        0.250087        0.010785        0.250029 # O_3_z Ga3+3 O_R
   12                      fourier       15.669387       19.867365       26.651797        6.789122 # O_R Ga3+3 O_3_z
   13                      fourier       75.632264        0.262202       -0.128583        0.254067 # O_R Ga3+3 O_R
   14                      fourier       63.611704        0.250087        0.010784        0.250029 # O_3_z Ga3+3 O_R
   15                      fourier       57.952570        0.251762        0.048526        0.250587 # O_R Ga3+3 O_3_z
   16                      fourier       65.990942        0.250240       -0.017896        0.250080 # O_R Ga3+3 O_3_z
   17                      fourier       67.355875        0.250614       -0.028635        0.250205 # O_R Ga3+3 O_3_z
   18                      fourier       60.647018        0.250614        0.028635        0.250205 # O_R Ga3+3 O_3_z
   19              cosine/periodic       15.534664               1               1 # O_3_z Ga3+3 O_3_z
   20                      fourier       47.538940        0.278067        0.197035        0.259356 # O_3_z Ga3+3 O_3_z
   21                      fourier       61.801101        0.250240        0.017896        0.250080 # O_3_z Ga3+3 O_R
   22              cosine/periodic       14.597712               1               1 # O_R Ga3+3 O_R
   23                      fourier       96.074305        0.278067       -0.197035        0.259356 # O_3_z Ga3+3 O_3_z
   24                      fourier       26.082268        0.668505        0.932405        0.389502 # O_3_z Ga3+3 O_3_z
   25                      fourier       65.991270        0.250240       -0.017899        0.250080 # O_R Ga3+3 O_3_z
   26                      fourier       47.539065        0.278067        0.197035        0.259356 # O_3_z Ga3+3 O_3_z
   27              cosine/periodic       14.597608               1               1 # O_R Ga3+3 O_R
   28                      fourier       61.800830        0.250240        0.017899        0.250080 # O_R Ga3+3 O_3_z
   29                      fourier       67.355776        0.250615       -0.028637        0.250205 # O_3_z Ga3+3 O_R
   30                      fourier       96.074686        0.278067       -0.197035        0.259356 # O_3_z Ga3+3 O_3_z
   31                      fourier       60.646598        0.250615        0.028637        0.250205 # O_3_z Ga3+3 O_R
   32              cosine/periodic       15.520174               1               1 # O_3_z Ga3+3 O_3_z
   33              cosine/periodic       15.534643               1               1 # O_3_z Ga3+3 O_3_z
   34              cosine/periodic      137.761490              -1               3 # C_R C_R O_R
   35              cosine/periodic      217.450257              -1               3 # O_R C_R O_R
   36              cosine/periodic      117.010657              -1               3 # C_R C_R C_R
   37              cosine/periodic      101.626578              -1               3 # C_R C_R C_R
   38              cosine/periodic       76.817955              -1               3 # H_ C_R C_R
   39                      fourier       27.368704        1.898490        2.651251        0.799497 # Ga3+3 O_3_z H_
   40                      fourier       12.234675        1.898490        2.651251        0.799497 # Ga3+3 O_3_z Ga3+3
   41                      fourier       26.910634        1.898490        2.651251        0.799497 # Ga3+3 O_3_z H_
   42                      fourier       28.316185        1.898490        2.651251        0.799497 # Ga3+3 O_3_z H_
   43                      fourier       26.926886        1.898490        2.651251        0.799497 # Ga3+3 O_3_z H_
   44                      fourier       12.568409        1.898490        2.651251        0.799497 # Ga3+3 O_3_z Ga3+3
   45              cosine/periodic       54.779771              -1               3 # Ga3+3 O_R C_R
   46              cosine/periodic       56.340504              -1               3 # Ga3+3 O_R C_R
   47                      fourier       26.910768        1.898490        2.651251        0.799497 # Ga3+3 O_3_z H_
   48                      fourier       12.234723        1.898490        2.651251        0.799497 # Ga3+3 O_3_z Ga3+3
   49                      fourier       27.368707        1.898490        2.651251        0.799497 # Ga3+3 O_3_z H_
   50                      fourier       28.316001        1.898490        2.651251        0.799497 # H_ O_3_z Ga3+3
   51                      fourier       26.926909        1.898490        2.651251        0.799497 # H_ O_3_z Ga3+3
   52                      fourier       12.568354        1.898490        2.651251        0.799497 # Ga3+3 O_3_z Ga3+3
   53              cosine/periodic       54.780117              -1               3 # Ga3+3 O_R C_R
   54              cosine/periodic       56.340757              -1               3 # C_R O_R Ga3+3

Dihedral Coeffs

    1        0.555556              -1               2 # O_R C_R C_R C_R
    2        2.245703              -1               2 # C_R C_R O_R Ga3+3
    3        1.497136              -1               2 # C_R C_R C_R C_R

Improper Coeffs

    1        2.000000        1.000000       -1.000000        0.000000               0 # O_R C_R C_R O_R

Pair Coeffs

    1        0.415000        3.904809 # Ga3+3 Ga3+3
    2        0.044000        2.571134 # H_ H_
    3        0.105000        3.430851 # C_R C_R
    4        0.060000        3.118146 # O_3_z O_3_z
    5        0.060000        3.118146 # O_R O_R

Atoms

       1      444        1     1.58565    3.14952    3.78493    4.14982
       2      444        1     1.58565   -0.00000    0.00001    5.95838
       3      444        1     1.60821    2.04199   -1.89245    5.05410
       4      444        1     1.60631   -2.04199    1.89247    5.05410
       5      444        2     0.46269    0.76585    3.66956    3.55283
       6      444        2     0.41633    2.69644    1.77135    5.27648
       7      444        2     0.46187   -1.70032    3.90029    3.55283
       8      444        2     0.41644    4.53706   -1.77133    5.27648
       9      444        2     0.46269    2.38366    0.11538    6.55537
      10      444        2     0.41633    0.45308    2.01359    4.83172
      11      444        2     0.46187    4.84983   -0.11535    6.55537
      12      444        2     0.41644   -1.38755    5.55627    4.83172
      13      444        2     0.10608    3.69272    2.25581    0.00000
      14      444        2     0.10608    2.60632    5.31403    0.00000
      15      444        3     0.68429    3.79301    1.46098    2.53594
      16      444        3    -0.07707    3.61937    0.72292    1.24674
      17      444        3     0.68430    2.50603    6.10887    2.53594
      18      444        3    -0.07879    2.67966    6.84692    1.24674
      19      444        3     0.68429   -0.64349    2.32396    7.57225
      20      444        3    -0.07707   -0.46986    3.06202    8.86145
      21      444        3     0.68430    0.64349   -2.32393    7.57225
      22      444        3    -0.07879    0.46985   -3.06198    8.86145
      23      444        3    -0.03464    3.63734    1.36257    0.00000
      24      444        3    -0.03464    2.66170    6.20727    0.00000
      25      444        4    -0.98055    1.21439    3.90521    4.24423
      26      444        4    -0.93690    3.33171    2.35529    5.41941
      27      444        5    -0.60619    3.04410    2.47201    2.65401
      28      444        5    -0.59362    4.70220    1.04078    3.34015
      29      444        4    -0.98002    5.08464    3.66464    4.24423
      30      444        4    -0.93771    2.96732    5.21457    5.41941
      31      444        5    -0.60522    3.25494    5.09784    2.65401
      32      444        5    -0.59419    2.53130   -1.04077    3.34015
      33      444        4    -0.98055    1.93512   -0.12027    5.86396
      34      444        4    -0.93690   -0.18220    1.42965    4.68879
      35      444        5    -0.60618    0.10542    1.31293    7.45419
      36      444        5    -0.59362   -1.55268    2.74416    6.76804
      37      444        4    -0.98002   -1.93513    0.12030    5.86396
      38      444        4    -0.93770    0.18220   -1.42963    4.68879
      39      444        5    -0.60522   -0.10542   -1.31290    7.45419
      40      444        5    -0.59419    0.61821    4.82571    6.76804
      41      444        1     1.58565   -0.00000    0.00003   14.25801
      42      444        1     1.58565   -3.14952   -3.78489   16.06657
      43      444        1     1.60821   -1.10753   -5.67735   15.16229
      44      444        1     1.60631   -5.19151   -1.89243   15.16229
      45      444        2     0.46269   -2.38367   -0.11534   13.66102
      46      444        2     0.41633   -0.45309   -2.01355   15.38467
      47      444        2     0.46187   -4.84984    0.11539   13.66102
      48      444        2     0.41644    1.38754   -5.55623   15.38467
      49      444        2     0.46269   -0.76586   -3.66952   16.66356
      50      444        2     0.41633   -2.69644   -1.77131   14.93991
      51      444        2     0.46187    1.70031   -3.90025   16.66356
      52      444        2     0.41644   -4.53707    1.77137   14.93991
      53      444        2     0.10608    0.54320   -1.52909   10.10819
      54      444        2     0.10608   -0.54321    1.52913   10.10819
      55      444        3     0.68429    0.64349   -2.32392   12.64414
      56      444        3    -0.07707    0.46985   -3.06198   11.35494
      57      444        3     0.68430   -0.64349    2.32397   12.64414
      58      444        3    -0.07879   -0.46986    3.06202   11.35494
      59      444        3     0.68429   -3.79301   -1.46094   17.68044
      60      444        3    -0.07707   -3.61938   -0.72288   18.96964
      61      444        3     0.68430   -2.50603   -6.10883   17.68044
      62      444        3    -0.07879   -2.67967   -6.84688   18.96964
      63      444        3    -0.03464    0.48782   -2.42233   10.10819
      64      444        3    -0.03464   -0.48782    2.42237   10.10819
      65      444        4    -0.98055   -1.93513    0.12031   14.35242
      66      444        4    -0.93690    0.18219   -1.42961   15.52760
      67      444        5    -0.60619   -0.10542   -1.31289   12.76220
      68      444        5    -0.59362    1.55267   -2.74412   13.44834
      69      444        4    -0.98002    1.93512   -0.12026   14.35242
      70      444        4    -0.93771   -0.18220    1.42967   15.52760
      71      444        5    -0.60522    0.10542    1.31294   12.76220
      72      444        5    -0.59419   -0.61822   -4.82567   13.44834
      73      444        4    -0.98055   -1.21440   -3.90517   15.97216
      74      444        4    -0.93690   -3.33172   -2.35525   14.79698
      75      444        5    -0.60618   -3.04410   -2.47197   17.56238
      76      444        5    -0.59362   -4.70220   -1.04074   16.87623
      77      444        4    -0.98002   -5.08465   -3.66460   15.97216
      78      444        4    -0.93770   -2.96733   -5.21453   14.79698
      79      444        5    -0.60522   -3.25494   -5.09780   17.56238
      80      444        5    -0.59419   -2.53131    1.04081   16.87623
      81      444        1     1.58565   -3.14952   -3.78487   24.36620
      82      444        1     1.58565   -6.29904   -7.56979   26.17476
      83      444        1     1.60821   -4.25705   -9.46225   25.27048
      84      444        1     1.60631   -8.34103   -5.67733   25.27048
      85      444        2     0.46269   -5.53319   -3.90024   23.76921
      86      444        2     0.41633   -3.60261   -5.79845   25.49286
      87      444        2     0.46187   -7.99936   -3.66951   23.76921
      88      444        2     0.41644   -1.76198   -9.34113   25.49286
      89      444        2     0.46269   -3.91538   -7.45442   26.77175
      90      444        2     0.41633   -5.84596   -5.55621   25.04810
      91      444        2     0.46187   -1.44921   -7.68515   26.77175
      92      444        2     0.41644   -7.68659   -2.01353   25.04810
      93      444        2     0.10608   -2.60632   -5.31399   20.21639
      94      444        2     0.10608   -3.69273   -2.25577   20.21639
      95      444        3     0.68429   -2.50603   -6.10881   22.75233
      96      444        3    -0.07707   -2.67967   -6.84688   21.46313
      97      444        3     0.68430   -3.79302   -1.46093   22.75233
      98      444        3    -0.07879   -3.61938   -0.72288   21.46313
      99      444        3     0.68429   -6.94254   -5.24584   27.78863
     100      444        3    -0.07707   -6.76890   -4.50778   29.07783
     101      444        3     0.68430   -5.65555   -9.89372   27.78863
     102      444        3    -0.07879   -5.82919  -10.63178   29.07783
     103      444        3    -0.03464   -2.66170   -6.20723   20.21639
     104      444        3    -0.03464   -3.63735   -1.36253   20.21639
     105      444        4    -0.98055   -5.08465   -3.66459   24.46061
     106      444        4    -0.93690   -2.96733   -5.21451   25.63579
     107      444        5    -0.60619   -3.25495   -5.09779   22.87039
     108      444        5    -0.59362   -1.59685   -6.52902   23.55654
     109      444        4    -0.98002   -1.21440   -3.90516   24.46061
     110      444        4    -0.93771   -3.33172   -2.35523   25.63579
     111      444        5    -0.60522   -3.04410   -2.47196   22.87039
     112      444        5    -0.59419   -3.76774   -8.61057   23.55654
     113      444        4    -0.98055   -4.36392   -7.69007   26.08035
     114      444        4    -0.93690   -6.48124   -6.14015   24.90517
     115      444        5    -0.60618   -6.19362   -6.25687   27.67057
     116      444        5    -0.59362   -7.85172   -4.82564   26.98443
     117      444        4    -0.98002   -8.23417   -7.44950   26.08035
     118      444        4    -0.93770   -6.11685   -8.99943   24.90517
     119      444        5    -0.60522   -6.40447   -8.88270   27.67057
     120      444        5    -0.59419   -5.68083   -2.74409   26.98443
     121      444        1     1.58565    2.21506   11.35477    4.14982
     122      444        1     1.58565   -0.93446    7.56985    5.95838
     123      444        1     1.60821    1.10753    5.67739    5.05410
     124      444        1     1.60631   -2.97645    9.46231    5.05410
     125      444        2     0.46269   -0.16861   11.23940    3.55283
     126      444        2     0.41633    1.76197    9.34119    5.27648
     127      444        2     0.46187   -2.63478   11.47013    3.55283
     128      444        2     0.41644    3.60260    5.79851    5.27648
     129      444        2     0.46269    1.44920    7.68522    6.55537
     130      444        2     0.41633   -0.48138    9.58343    4.83172
     131      444        2     0.46187    3.91537    7.45449    6.55537
     132      444        2     0.41644   -2.32201   13.12611    4.83172
     133      444        2     0.10608    2.75826    9.82565    0.00000
     134      444        2     0.10608    1.67185   12.88387    0.00000
     135      444        3     0.68429    2.85855    9.03082    2.53594
     136      444        3    -0.07707    2.68491    8.29276    1.24674
     137      444        3     0.68430    1.57156   13.67871    2.53594
     138      444        3    -0.07879    1.74520   14.41676    1.24674
     139      444        3     0.68429   -1.57796    9.89380    7.57225
     140      444        3    -0.07707   -1.40432   10.63186    8.86145
     141      444        3     0.68430   -0.29097    5.24591    7.57225
     142      444        3    -0.07879   -0.46461    4.50786    8.86145
     143      444        3    -0.03464    2.70288    8.93241    0.00000
     144      444        3    -0.03464    1.72723   13.77711    0.00000
     145      444        4    -0.98055    0.27993   11.47505    4.24423
     146      444        4    -0.93690    2.39725    9.92513    5.41941
     147      444        5    -0.60619    2.10963   10.04185    2.65401
     148      444        5    -0.59362    3.76773    8.61062    3.34015
     149      444        4    -0.98002    4.15018   11.23448    4.24423
     150      444        4    -0.93771    2.03286   12.78441    5.41941
     151      444        5    -0.60522    2.32048   12.66768    2.65401
     152      444        5    -0.59419    1.59684    6.52907    3.34015
     153      444        4    -0.98055    1.00066    7.44957    5.86396
     154      444        4    -0.93690   -1.11666    8.99949    4.68879
     155      444        5    -0.60618   -0.82904    8.88277    7.45419
     156      444        5    -0.59362   -2.48714   10.31400    6.76804
     157      444        4    -0.98002   -2.86959    7.69014    5.86396
     158      444        4    -0.93770   -0.75227    6.14021    4.68879
     159      444        5    -0.60522   -1.03989    6.25694    7.45419
     160      444        5    -0.59419   -0.31625   12.39555    6.76804
     161      444        1     1.58565   -0.93447    7.56987   14.25801
     162      444        1     1.58565   -4.08399    3.78495   16.06657
     163      444        1     1.60821   -2.04199    1.89249   15.16229
     164      444        1     1.60631   -6.12598    5.67741   15.16229
     165      444        2     0.46269   -3.31813    7.45450   13.66102
     166      444        2     0.41633   -1.38755    5.55629   15.38467
     167      444        2     0.46187   -5.78430    7.68523   13.66102
     168      444        2     0.41644    0.45308    2.01361   15.38467
     169      444        2     0.46269   -1.70032    3.90032   16.66356
     170      444        2     0.41633   -3.63090    5.79853   14.93991
     171      444        2     0.46187    0.76585    3.66959   16.66356
     172      444        2     0.41644   -5.47153    9.34121   14.93991
     173      444        2     0.10608   -0.39126    6.04075   10.10819
     174      444        2     0.10608   -1.47767    9.09897   10.10819
     175      444        3     0.68429   -0.29097    5.24593   12.64414
     176      444        3    -0.07707   -0.46461    4.50786   11.35494
     177      444        3     0.68430   -1.57796    9.89381   12.64414
     178      444        3    -0.07879   -1.40432   10.63186   11.35494
     179      444        3     0.68429   -4.72748    6.10890   17.68044
     180      444        3    -0.07707   -4.55384    6.84696   18.96964
     181      444        3     0.68430   -3.44049    1.46102   17.68044
     182      444        3    -0.07879   -3.61413    0.72296   18.96964
     183      444        3    -0.03464   -0.44664    5.14751   10.10819
     184      444        3    -0.03464   -1.42229    9.99221   10.10819
     185      444        4    -0.98055   -2.86959    7.69015   14.35242
     186      444        4    -0.93690   -0.75227    6.14023   15.52760
     187      444        5    -0.60619   -1.03989    6.25695   12.76220
     188      444        5    -0.59362    0.61821    4.82572   13.44834
     189      444        4    -0.98002    1.00066    7.44958   14.35242
     190      444        4    -0.93771   -1.11666    8.99951   15.52760
     191      444        5    -0.60522   -0.82904    8.88278   12.76220
     192      444        5    -0.59419   -1.55268    2.74417   13.44834
     193      444        4    -0.98055   -2.14886    3.66467   15.97216
     194      444        4    -0.93690   -4.26618    5.21459   14.79698
     195      444        5    -0.60618   -3.97856    5.09787   17.56238
     196      444        5    -0.59362   -5.63666    6.52910   16.87623
     197      444        4    -0.98002   -6.01911    3.90524   15.97216
     198      444        4    -0.93770   -3.90179    2.35531   14.79698
     199      444        5    -0.60522   -4.18941    2.47204   17.56238
     200      444        5    -0.59419   -3.46577    8.61065   16.87623
     201      444        1     1.58565   -4.08399    3.78497   24.36620
     202      444        1     1.58565   -7.23351    0.00005   26.17476
     203      444        1     1.60821   -5.19152   -1.89241   25.27048
     204      444        1     1.60631   -9.27550    1.89251   25.27048
     205      444        2     0.46269   -6.46765    3.66960   23.76921
     206      444        2     0.41633   -4.53707    1.77139   25.49286
     207      444        2     0.46187   -8.93382    3.90033   23.76921
     208      444        2     0.41644   -2.69644   -1.77129   25.49286
     209      444        2     0.46269   -4.84984    0.11542   26.77175
     210      444        2     0.41633   -6.78042    2.01363   25.04810
     211      444        2     0.46187   -2.38367   -0.11531   26.77175
     212      444        2     0.41644   -8.62105    5.55631   25.04810
     213      444        2     0.10608   -3.54078    2.25585   20.21639
     214      444        2     0.10608   -4.62719    5.31407   20.21639
     215      444        3     0.68429   -3.44050    1.46103   22.75233
     216      444        3    -0.07707   -3.61413    0.72296   21.46313
     217      444        3     0.68430   -4.72748    6.10891   22.75233
     218      444        3    -0.07879   -4.55384    6.84696   21.46313
     219      444        3     0.68429   -7.87700    2.32400   27.78863
     220      444        3    -0.07707   -7.70336    3.06206   29.07783
     221      444        3     0.68430   -6.59002   -2.32388   27.78863
     222      444        3    -0.07879   -6.76365   -3.06194   29.07783
     223      444        3    -0.03464   -3.59616    1.36261   20.21639
     224      444        3    -0.03464   -4.57181    6.20731   20.21639
     225      444        4    -0.98055   -6.01911    3.90525   24.46061
     226      444        4    -0.93690   -3.90179    2.35533   25.63579
     227      444        5    -0.60619   -4.18941    2.47205   22.87039
     228      444        5    -0.59362   -2.53131    1.04083   23.55654
     229      444        4    -0.98002   -2.14886    3.66469   24.46061
     230      444        4    -0.93771   -4.26618    5.21461   25.63579
     231      444        5    -0.60522   -3.97857    5.09788   22.87039
     232      444        5    -0.59419   -4.70220   -1.04073   23.55654
     233      444        4    -0.98055   -5.29838   -0.12023   26.08035
     234      444        4    -0.93690   -7.41570    1.42969   24.90517
     235      444        5    -0.60618   -7.12809    1.31297   27.67057
     236      444        5    -0.59362   -8.78618    2.74420   26.98443
     237      444        4    -0.98002   -9.16863    0.12034   26.08035
     238      444        4    -0.93770   -7.05131   -1.42959   24.90517
     239      444        5    -0.60522   -7.33893   -1.31286   27.67057
     240      444        5    -0.59419   -6.61529    4.82575   26.98443
     241      444        1     1.58565    1.28059   18.92461    4.14982
     242      444        1     1.58565   -1.86893   15.13969    5.95838
     243      444        1     1.60821    0.17306   13.24723    5.05410
     244      444        1     1.60631   -3.91092   17.03215    5.05410
     245      444        2     0.46269   -1.10307   18.80924    3.55283
     246      444        2     0.41633    0.82751   16.91103    5.27648
     247      444        2     0.46187   -3.56924   19.03997    3.55283
     248      444        2     0.41644    2.66814   13.36835    5.27648
     249      444        2     0.46269    0.51474   15.25506    6.55537
     250      444        2     0.41633   -1.41584   17.15327    4.83172
     251      444        2     0.46187    2.98091   15.02433    6.55537
     252      444        2     0.41644   -3.25647   20.69595    4.83172
     253      444        2     0.10608    1.82380   17.39549    0.00000
     254      444        2     0.10608    0.73739   20.45371    0.00000
     255      444        3     0.68429    1.92409   16.60067    2.53594
     256      444        3    -0.07707    1.75045   15.86260    1.24674
     257      444        3     0.68430    0.63710   21.24855    2.53594
     258      444        3    -0.07879    0.81074   21.98660    1.24674
     259      444        3     0.68429   -2.51242   17.46364    7.57225
     260      444        3    -0.07707   -2.33878   18.20170    8.86145
     261      444        3     0.68430   -1.22543   12.81576    7.57225
     262      444        3    -0.07879   -1.39907   12.07770    8.86145
     263      444        3    -0.03464    1.76842   16.50225    0.00000
     264      444        3    -0.03464    0.79277   21.34695    0.00000
     265      444        4    -0.98055   -0.65453   19.04489    4.24423
     266      444        4    -0.93690    1.46279   17.49497    5.41941
     267      444        5    -0.60619    1.17517   17.61169    2.65401
     268      444        5    -0.59362    2.83327   16.18046    3.34015
     269      444        4    -0.98002    3.21572   18.80432    4.24423
     270      444        4    -0.93771    1.09840   20.35425    5.41941
     271      444        5    -0.60522    1.38602   20.23752    2.65401
     272      444        5    -0.59419    0.66238   14.09891    3.34015
     273      444        4    -0.98055    0.06620   15.01941    5.86396
     274      444        4    -0.93690   -2.05112   16.56933    4.68879
     275      444        5    -0.60618   -1.76350   16.45261    7.45419
     276      444        5    -0.59362   -3.42160   17.88384    6.76804
     277      444        4    -0.98002   -3.80405   15.25998    5.86396
     278      444        4    -0.93770   -1.68673   13.71005    4.68879
     279      444        5    -0.60522   -1.97435   13.82678    7.45419
     280      444        5    -0.59419   -1.25071   19.96539    6.76804
     281      444        1     1.58565   -1.86893   15.13971   14.25801
     282      444        1     1.58565   -5.01845   11.35479   16.06657
     283      444        1     1.60821   -2.97646    9.46233   15.16229
     284      444        1     1.60631   -7.06044   13.24725   15.16229
     285      444        2     0.46269   -4.25259   15.02434   13.66102
     286      444        2     0.41633   -2.32201   13.12613   15.38467
     287      444        2     0.46187   -6.71876   15.25507   13.66102
     288      444        2     0.41644   -0.48138    9.58345   15.38467
     289      444        2     0.46269   -2.63478   11.47016   16.66356
     290      444        2     0.41633   -4.56536   13.36837   14.93991
     291      444        2     0.46187   -0.16861   11.23943   16.66356
     292      444        2     0.41644   -6.40599   16.91105   14.93991
     293      444        2     0.10608   -1.32572   13.61059   10.10819
     294      444        2     0.10608   -2.41213   16.66881   10.10819
     295      444        3     0.68429   -1.22544   12.81577   12.64414
     296      444        3    -0.07707   -1.39907   12.07770   11.35494
     297      444        3     0.68430   -2.51242   17.46365   12.64414
     298      444        3    -0.07879   -2.33878   18.20170   11.35494
     299      444        3     0.68429   -5.66194   13.67874   17.68044
     300      444        3    -0.07707   -5.48830   14.41680   18.96964
     301      444        3     0.68430   -4.37496    9.03086   17.68044
     302      444        3    -0.07879   -4.54859    8.29280   18.96964
     303      444        3    -0.03464   -1.38110   12.71735   10.10819
     304      444        3    -0.03464   -2.35675   17.56205   10.10819