Created on Wed Aug 12 14:27:41 2020 

         108 atoms
         128 bonds
         244 angles
         256 dihedrals
         168 impropers

           6 atom types
           8 bond types
          14 angle types
           3 dihedral types
           1 improper types
           0.000000  12.505600 xlo xhi
           0.000000  12.523400 ylo yhi
           0.000000  10.274279 zlo zhi
           0.000000  -0.227594   0.000000 xy xz yz

Masses

    1    58.693400000 # Ni4+2
    2    15.999400000 # O_R
    3    14.006700000 # N_R
    4    12.010700000 # C_R
    5     1.007940000 # H_
    6    18.998403200 # F_

Bond Coeffs

    1      321.720028        1.793457  # Ni4+2 O_R
    2      328.673665        1.841585  # Ni4+2 N_R
    3      646.680887        1.311940  # O_R C_R
    4      663.718927        1.345073  # N_R C_R
    5      462.655054        1.379256  # C_R C_R
    6      357.440381        1.081418  # C_R H_
    7      443.203299        1.354566  # C_R F_
    8      391.669513        1.458000  # C_R C_R

Angle Coeffs

    1      322.980216               1               4 # O_R Ni4+2 O_R
    2      343.030950               1               4 # O_R Ni4+2 N_R
    3      364.965660               1               4 # N_R Ni4+2 N_R
    4      238.346347              -1               3 # C_R O_R Ni4+2
    5      177.809033              -1               3 # Ni4+2 N_R C_R
    6      240.001032              -1               3 # C_R N_R C_R
    7      114.578032              -1               3 # C_R C_R H_
    8      222.595017              -1               3 # C_R C_R C_R
    9      207.488907              -1               3 # C_R C_R F_
   10      204.366560              -1               3 # C_R C_R C_R
   11      307.398705              -1               3 # N_R C_R C_R
   12      159.573934              -1               3 # N_R C_R H_
   13      263.511421              -1               3 # O_R C_R C_R
   14      374.272657              -1               3 # O_R C_R O_R

Dihedral Coeffs

    1        2.245703              -1               2 # Ni4+2 O_R C_R C_R
    2        1.497136              -1               2 # Ni4+2 N_R C_R C_R
    3        0.555556              -1               2 # C_R C_R C_R O_R

Improper Coeffs

    1        2.000000        1.000000       -1.000000        0.000000               0 # Ni4+2 N_R C_R C_R

Pair Coeffs

    1        0.015000        2.524807 # Ni4+2 Ni4+2
    2        0.060000        3.118146 # O_R O_R
    3        0.069000        3.260689 # N_R N_R
    4        0.105000        3.430851 # C_R C_R
    5        0.044000        2.571134 # H_ H_
    6        0.050000        2.996983 # F_ F_

Atoms

       1      444        1     0.00000    2.89857    9.41116    8.59265
       2      444        1     0.00000    6.17525    3.10579    3.48481
       3      444        2     0.00000    1.44827    4.35425    3.93374
       4      444        2     0.00000    4.44160    8.15245    9.05464
       5      444        2     0.00000    4.63665    1.84729    3.87523
       6      444        2     0.00000    1.36499   10.67435    9.00295
       7      444        2     0.00000    5.80609    4.46033    4.96242
       8      444        2     0.00000    2.54244    8.03270   10.06753
       9      444        2     0.00000    0.25117    1.69264    4.94273
      10      444        2     0.00000    3.23722   10.80466   10.06262
      11      444        3     0.00000    3.69677   10.66058    7.24160
      12      444        3     0.00000    0.71256    1.86420    2.11704
      13      444        3     0.00000    2.17217    8.14409    7.25198
      14      444        3     0.00000    5.44023    4.39481    2.13747
      15      444        4     0.00000    3.48546   12.14832    5.36301
      16      444        4     0.00000    0.47488    0.38955    0.22920
      17      444        5     0.00000    2.86453   12.51808    4.55267
      18      444        4     0.00000    4.76073    0.14740    5.61481
      19      444        4     0.00000    1.74333   12.36991    0.47412
      20      444        4     0.00000    5.50345   12.15023    6.68209
      21      444        4     0.00000    2.49852    0.35508    1.54004
      22      444        5     0.00000    0.24768   12.50843    6.91993
      23      444        5     0.00000    3.49155   12.50668    1.77336
      24      444        4     0.00000    2.48363    6.63370    5.40822
      25      444        4     0.00000    5.72803    5.90364    0.28669
      26      444        5     0.00000   -0.10828    6.26667    9.76620
      27      444        4     0.00000    2.92756    7.68099    6.23068
      28      444        4     0.00000    6.18830    4.86756    1.11596
      29      444        5     0.00000    3.89994    8.14655    6.08890
      30      444        5     0.00000    0.91589    4.41889    0.97634
      31      444        4     0.00000    2.98256   11.13588    6.19748
      32      444        4     0.00000   -0.01036    1.40553    1.07106
      33      444        5     0.00000    1.99392   10.70905    6.04703
      34      444        5     0.00000    5.26093    1.85011    0.92351
      35      444        4     0.00000    4.93641   11.13810    7.47507
      36      444        4     0.00000    1.94823    1.37190    2.34060
      37      444        5     0.00000    5.48559   10.70967    8.30944
      38      444        5     0.00000    2.50886    1.79214    3.17267
      39      444        4     0.00000    0.94573    7.62654    7.47302
      40      444        4     0.00000    4.21083    4.90458    2.35686
      41      444        5     0.00000    0.36328    8.05184    8.28732
      42      444        5     0.00000    3.63605    4.47744    3.17528
      43      444        4     0.00000    0.43859    6.57577    6.69176
      44      444        4     0.00000    3.68763    5.94500    1.56944
      45      444        5     0.00000    5.70774    6.17693    6.91975
      46      444        4     0.00000    1.22745    6.06471    5.65205
      47      444        4     0.00000    4.46338    6.45777    0.52027
      48      444        4     0.00000    5.31260    1.24381    4.79419
      49      444        4     0.00000    2.05020   11.26755    9.92158
      50      444        4     0.00000    0.73548    4.94016    4.83586
      51      444        4     0.00000    3.73174    7.56629    9.95688
      52      444        1     0.00000    9.15137    9.41116    8.59265
      53      444        1     0.00000   12.42805    3.10579    3.48481
      54      444        2     0.00000    7.70109    4.35425    3.93374
      55      444        2     0.00000   10.69440    8.15245    9.05464
      56      444        2     0.00000   10.88945    1.84729    3.87523
      57      444        2     0.00000    7.61779   10.67435    9.00295
      58      444        2     0.00000   12.05889    4.46033    4.96242
      59      444        2     0.00000    8.79524    8.03270   10.06753
      60      444        2     0.00000    6.50397    1.69264    4.94273
      61      444        2     0.00000    9.49002   10.80466   10.06262
      62      444        3     0.00000    9.94957   10.66058    7.24160
      63      444        3     0.00000    6.96536    1.86420    2.11704
      64      444        3     0.00000    8.42499    8.14409    7.25198
      65      444        3     0.00000   11.69303    4.39481    2.13747
      66      444        4     0.00000    9.73826   12.14832    5.36301
      67      444        4     0.00000    6.72768    0.38955    0.22920
      68      444        4     0.00000   11.01353    0.14740    5.61481
      69      444        4     0.00000    7.99613   12.36991    0.47412
      70      444        4     0.00000   11.75625   12.15023    6.68209
      71      444        4     0.00000    8.75132    0.35508    1.54004
      72      444        5     0.00000    9.74435   12.50668    1.77336
      73      444        4     0.00000    8.73644    6.63370    5.40822
      74      444        4     0.00000   11.98084    5.90364    0.28669
      75      444        5     0.00000    6.14452    6.26667    9.76620
      76      444        4     0.00000    9.18036    7.68099    6.23068
      77      444        4     0.00000   12.44110    4.86756    1.11596
      78      444        5     0.00000   10.15274    8.14655    6.08890
      79      444        5     0.00000    7.16869    4.41889    0.97634
      80      444        4     0.00000    9.23536   11.13588    6.19748
      81      444        4     0.00000    6.24244    1.40553    1.07106
      82      444        5     0.00000    8.24672   10.70905    6.04703
      83      444        5     0.00000   11.51373    1.85011    0.92351
      84      444        4     0.00000   11.18921   11.13810    7.47507
      85      444        4     0.00000    8.20102    1.37190    2.34060
      86      444        5     0.00000   11.73839   10.70967    8.30944
      87      444        5     0.00000    8.76167    1.79214    3.17267
      88      444        4     0.00000    7.19853    7.62654    7.47302
      89      444        4     0.00000   10.46363    4.90458    2.35686
      90      444        5     0.00000    6.61608    8.05184    8.28732
      91      444        5     0.00000    9.88885    4.47744    3.17528
      92      444        4     0.00000    6.69139    6.57577    6.69176
      93      444        4     0.00000    9.94043    5.94500    1.56944
      94      444        5     0.00000   11.96054    6.17693    6.91975
      95      444        4     0.00000    7.48025    6.06471    5.65205
      96      444        4     0.00000   10.71618    6.45777    0.52027
      97      444        4     0.00000   11.56540    1.24381    4.79419
      98      444        4     0.00000    8.30300   11.26755    9.92158
      99      444        4     0.00000    6.98827    4.94016    4.83586
     100      444        4     0.00000    9.98454    7.56629    9.95688
     101      444        6     0.00000    6.74880    0.06940    6.97120
     102      444        6     0.00000   11.97931   12.48616    9.47672
     103      444        6     0.00000    3.28108    6.20275    4.40282
     104      444        6     0.00000    2.45222    6.42190    1.84525
     105      444        6     0.00000    8.97458    0.06885    4.33586
     106      444        6     0.00000    5.72651   12.48616    9.47672
     107      444        6     0.00000    9.53389    6.20274    4.40283
     108      444        6     0.00000    8.70502    6.42190    1.84525

Bonds

       1        1        1        4
       2        1        1        6
       3        1        1        8
       4        1        1       10
       5        2        1       11
       6        2        1       13
       7        1        2        5
       8        1        2        7
       9        2        2       14
      10        1        2       54
      11        1        2       60
      12        2        2       63
      13        3        3       50
      14        1        3       53
      15        3        4       51
      16        3        5       48
      17        3        6       49
      18        3        7       99
      19        3        8       51
      20        1        9       53
      21        3        9       97
      22        3       10       49
      23        4       11       31
      24        4       11       35
      25        4       12       32
      26        4       12       36
      27        2       12       53
      28        4       13       27
      29        4       13       39
      30        4       14       28
      31        4       14       40
      32        6       15       17
      33        5       15       18
      34        5       15       31
      35        5       16       19
      36        5       16       32
      37        7       16      102
      38        5       18       20
      39        8       18       48
      40        5       19       21
      41        8       19       49
      42        5       20       35
      43        7       20      101
      44        6       21       23
      45        5       21       36
      46        6       22       70
      47        5       24       27
      48        5       24       46
      49        7       24      103
      50        5       25       28
      51        5       25       47
      52        6       25       75
      53        6       26       74
      54        6       27       29
      55        6       28       79
      56        6       30       77
      57        6       31       33
      58        6       32       83
      59        6       34       81
      60        6       35       37
      61        6       36       38
      62        6       39       41
      63        5       39       43
      64        6       40       42
      65        5       40       44
      66        5       43       46
      67        6       43       94
      68        5       44       47
      69        7       44      104
      70        6       45       92
      71        8       46       50
      72        8       47       51
      73        3       48       60
      74        3       50       58
      75        1       52       55
      76        1       52       57
      77        1       52       59
      78        1       52       61
      79        2       52       62
      80        2       52       64
      81        1       53       56
      82        1       53       58
      83        2       53       65
      84        3       54       99
      85        3       55      100
      86        3       56       97
      87        3       57       98
      88        3       59      100
      89        3       61       98
      90        4       62       80
      91        4       62       84
      92        4       63       81
      93        4       63       85
      94        4       64       76
      95        4       64       88
      96        4       65       77
      97        4       65       89
      98        5       66       68
      99        5       66       80
     100        7       66      105
     101        5       67       69
     102        5       67       81
     103        7       67      106
     104        5       68       70
     105        8       68       97
     106        5       69       71
     107        8       69       98
     108        5       70       84
     109        6       71       72
     110        5       71       85
     111        5       73       76
     112        5       73       95
     113        7       73      107
     114        5       74       77
     115        5       74       96
     116        6       76       78
     117        6       80       82
     118        6       84       86
     119        6       85       87
     120        6       88       90
     121        5       88       92
     122        6       89       91
     123        5       89       93
     124        5       92       95
     125        5       93       96
     126        7       93      108
     127        8       95       99
     128        8       96      100

Angles

       1        1        4        1        6
       2        1        4        1        8
       3        1        4        1       10
       4        2        4        1       11
       5        2        4        1       13
       6        1        6        1        8
       7        1        6        1       10
       8        2        6        1       11
       9        2        6        1       13
      10        1        8        1       10
      11        2        8        1       11
      12        2        8        1       13
      13        2       10        1       11
      14        2       10        1       13
      15        3       11        1       13
      16        2       14        2        5
      17        2       14        2        7
      18        2       14        2       54
      19        2       14        2       60
      20        3       14        2       63
      21        1        5        2        7
      22        1        5        2       54
      23        1        5        2       60
      24        2        5        2       63
      25        1        7        2       54
      26        1        7        2       60
      27        2        7        2       63
      28        1       54        2       60
      29        2       54        2       63
      30        2       60        2       63
      31        4       50        3       53
      32        4        1        4       51
      33        4        2        5       48
      34        4        1        6       49
      35        4        2        7       99
      36        4        1        8       51
      37        4       53        9       97
      38        4        1       10       49
      39        5        1       11       31
      40        5        1       11       35
      41        6       31       11       35
      42        6       32       12       36
      43        5       32       12       53
      44        5       36       12       53
      45        5        1       13       27
      46        5        1       13       39
      47        6       27       13       39
      48        5        2       14       28
      49        5        2       14       40
      50        6       28       14       40
      51        7       18       15       17
      52        8       18       15       31
      53        7       17       15       31
      54        8       19       16       32
      55        9       19       16      102
      56        9       32       16      102
      57        8       15       18       20
      58       10       15       18       48
      59       10       20       18       48
      60        8       16       19       21
      61       10       16       19       49
      62       10       21       19       49
      63        8       18       20       35
      64        9       18       20      101
      65        9       35       20      101
      66        8       19       21       36
      67        7       19       21       23
      68        7       36       21       23
      69        8       27       24       46
      70        9       27       24      103
      71        9       46       24      103
      72        8       28       25       47
      73        7       28       25       75
      74        7       47       25       75
      75       11       13       27       24
      76       12       13       27       29
      77        7       24       27       29
      78       11       14       28       25
      79       12       14       28       79
      80        7       25       28       79
      81       11       11       31       15
      82       12       11       31       33
      83        7       15       31       33
      84       11       12       32       16
      85       12       12       32       83
      86        7       16       32       83
      87       11       20       35       11
      88        7       20       35       37
      89       12       11       35       37
      90       11       12       36       21
      91       12       12       36       38
      92        7       21       36       38
      93       11       13       39       43
      94       12       13       39       41
      95        7       43       39       41
      96       11       14       40       44
      97       12       14       40       42
      98        7       44       40       42
      99        8       39       43       46
     100        7       39       43       94
     101        7       46       43       94
     102        8       40       44       47
     103        9       40       44      104
     104        9       47       44      104
     105        8       24       46       43
     106       10       24       46       50
     107       10       43       46       50
     108        8       25       47       44
     109       10       25       47       51
     110       10       44       47       51
     111       13        5       48       18
     112       14        5       48       60
     113       13       18       48       60
     114       13       10       49       19
     115       14       10       49        6
     116       13       19       49        6
     117       13        3       50       46
     118       14        3       50       58
     119       13       46       50       58
     120       13        8       51       47
     121       14        8       51        4
     122       13       47       51        4
     123        1       55       52       57
     124        1       55       52       59
     125        1       55       52       61
     126        2       55       52       62
     127        2       55       52       64
     128        1       57       52       59
     129        1       57       52       61
     130        2       57       52       62
     131        2       57       52       64
     132        1       59       52       61
     133        2       59       52       62
     134        2       59       52       64
     135        2       61       52       62
     136        2       61       52       64
     137        3       62       52       64
     138        2        9       53       12
     139        1        9       53       56
     140        1        9       53        3
     141        1        9       53       58
     142        2        9       53       65
     143        2       12       53       56
     144        2       12       53        3
     145        2       12       53       58
     146        3       12       53       65
     147        1       56       53        3
     148        1       56       53       58
     149        2       56       53       65
     150        1        3       53       58
     151        2        3       53       65
     152        2       58       53       65
     153        4        2       54       99
     154        4       52       55      100
     155        4       53       56       97
     156        4       52       57       98
     157        4       50       58       53
     158        4       52       59      100
     159        4        2       60       48
     160        4       52       61       98
     161        5       52       62       80
     162        5       52       62       84
     163        6       80       62       84
     164        5        2       63       85
     165        5        2       63       81
     166        6       85       63       81
     167        5       52       64       76
     168        5       52       64       88
     169        6       76       64       88
     170        6       77       65       89
     171        5       77       65       53
     172        5       89       65       53
     173        8       68       66       80
     174        9       68       66      105
     175        9       80       66      105
     176        8       69       67       81
     177        9       69       67      106
     178        9       81       67      106
     179       10       66       68       97
     180        8       66       68       70
     181       10       97       68       70
     182        8       67       69       71
     183       10       67       69       98
     184       10       71       69       98
     185        7       84       70       22
     186        8       84       70       68
     187        7       22       70       68
     188        8       69       71       85
     189        7       69       71       72
     190        7       85       71       72
     191        8       76       73       95
     192        9       76       73      107
     193        9       95       73      107
     194        7       77       74       26
     195        8       77       74       96
     196        7       26       74       96
     197       11       64       76       73
     198       12       64       76       78
     199        7       73       76       78
     200       11       65       77       74
     201       12       65       77       30
     202        7       74       77       30
     203       11       62       80       66
     204       12       62       80       82
     205        7       66       80       82
     206        7       67       81       34
     207       11       67       81       63
     208       12       34       81       63
     209       11       70       84       62
     210        7       70       84       86
     211       12       62       84       86
     212       11       63       85       71
     213       12       63       85       87
     214        7       71       85       87
     215       12       64       88       90
     216       11       64       88       92
     217        7       90       88       92
     218       11       65       89       93
     219       12       65       89       91
     220        7       93       89       91
     221        7       95       92       45
     222        8       95       92       88
     223        7       45       92       88
     224        8       89       93       96
     225        9       89       93      108
     226        9       96       93      108
     227        8       73       95       92
     228       10       73       95       99
     229       10       92       95       99
     230        8       93       96       74
     231       10       93       96      100
     232       10       74       96      100
     233       13       68       97        9
     234       13       68       97       56
     235       14        9       97       56
     236       13       61       98       69
     237       14       61       98       57
     238       13       69       98       57
     239       13       54       99       95
     240       14       54       99        7
     241       13       95       99        7
     242       13       59      100       96
     243       14       59      100       55
     244       13       96      100       55

Dihedrals

       1        1       53        3       50       46
       2        1       53        3       50       58
       3        1        1        4       51        8
       4        1        1        4       51       47
       5        1        2        5       48       18
       6        1        2        5       48       60
       7        1        1        6       49       10
       8        1        1        6       49       19
       9        1        2        7       99       54
      10        1        2        7       99       95
      11        1        1        8       51       47
      12        1        1        8       51        4
      13        1       53        9       97       68
      14        1       53        9       97       56
      15        1        1       10       49       19
      16        1        1       10       49        6
      17        2        1       11       31       15
      18        2        1       11       31       33
      19        2       35       11       31       15
      20        2       35       11       31       33
      21        2        1       11       35       20
      22        2        1       11       35       37
      23        2       31       11       35       20
      24        2       31       11       35       37
      25        2       36       12       32       16
      26        2       36       12       32       83
      27        2       53       12       32       16
      28        2       53       12       32       83
      29        2       32       12       36       21
      30        2       32       12       36       38
      31        2       53       12       36       21
      32        2       53       12       36       38
      33        2        1       13       27       24
      34        2        1       13       27       29
      35        2       39       13       27       24
      36        2       39       13       27       29
      37        2        1       13       39       43
      38        2        1       13       39       41
      39        2       27       13       39       43
      40        2       27       13       39       41
      41        2        2       14       28       25
      42        2        2       14       28       79
      43        2       40       14       28       25
      44        2       40       14       28       79
      45        2        2       14       40       44
      46        2        2       14       40       42
      47        2       28       14       40       44
      48        2       28       14       40       42
      49        2       17       15       18       20
      50        2       17       15       18       48
      51        2       31       15       18       20
      52        2       31       15       18       48
      53        2       18       15       31       11
      54        2       18       15       31       33
      55        2       17       15       31       11
      56        2       17       15       31       33
      57        2       32       16       19       21
      58        2       32       16       19       49
      59        2      102       16       19       21
      60        2      102       16       19       49
      61        2       19       16       32       12
      62        2       19       16       32       83
      63        2      102       16       32       12
      64        2      102       16       32       83
      65        2       15       18       20       35
      66        2       15       18       20      101
      67        2       48       18       20       35
      68        2       48       18       20      101
      69        3       15       18       48        5
      70        3       15       18       48       60
      71        3       20       18       48        5
      72        3       20       18       48       60