ITEM: TIMESTEP
0
ITEM: NUMBER OF ATOMS
108
ITEM: BOX BOUNDS xy xz yz pp pp pp
-2.4067436531046008e-01 1.3179491495108600e+01 0.0000000000000000e+00
0.0000000000000000e+00 1.0379699905459001e+01 -2.4067436531046008e-01
0.0000000000000000e+00 1.0864766106960600e+01 0.0000000000000000e+00
ITEM: ATOMS id type x y z
1 1 2.72987 8.91063 8.88703
2 1 6.14223 3.64552 3.4676
3 2 0.942589 4.63669 3.65799
4 2 4.1072 7.8385 9.0497
5 2 4.75521 2.57332 3.56033
6 2 1.35044 9.9908 8.98066
7 2 5.57849 4.76013 4.71964
8 2 2.17476 7.82355 10.1584
9 2 0.0831394 2.4249 4.73066
10 2 3.26308 10.0565 10.1175
11 3 3.51263 9.98373 7.54271
12 3 0.351755 2.47978 2.15461
13 3 1.97773 7.77318 7.57823
14 3 5.40859 4.7614 2.13234
15 4 3.43766 0.726177 5.42135
16 4 0.0920391 1.55572 10.807
17 5 2.90371 0.92125 4.50845
18 4 4.77881 1.11446 5.56332
19 4 1.64391 1.08588 0.108927
20 4 5.46864 0.722292 6.71213
21 4 2.30978 1.3774 1.3023
22 5 -0.107372 1.04313 6.92061
23 5 3.32352 1.03669 1.4663
24 4 2.12512 6.62499 5.4811
25 4 5.58356 5.98538 0.0744692
26 5 12.5435 6.27398 10.1545
27 4 2.72151 7.34613 6.51626
28 4 6.16302 5.20609 1.08219
29 5 3.75226 7.65408 6.42008
30 5 0.608176 4.84186 1.02012
31 4 2.79941 0.0293287 6.4564
32 4 12.8414 2.13002 1.02734
33 5 1.76238 10.1289 6.34738
34 5 5.19394 2.43926 0.930419
35 4 4.84106 10.2755 7.64591
36 4 1.66801 2.14127 2.28233
37 5 5.40696 9.8878 8.47634
38 5 2.22665 2.49648 3.12999
39 4 0.671934 7.38639 7.701
40 4 4.08492 5.08069 2.20798
41 5 0.0849477 7.74428 8.53086
42 5 3.4794 4.65636 2.99092
43 4 0.0896163 6.52366 6.76291
44 4 3.51307 5.97637 1.30254
45 5 5.64333 6.26953 6.87384
46 4 0.812613 6.14915 5.62623
47 4 4.24698 6.39313 0.19003
48 4 5.44808 1.93868 4.52311
49 4 2.05905 0.260828 9.92551
50 4 0.207509 5.25701 4.59975
51 4 3.38229 7.23423 10.0062
52 1 9.32858 8.89272 8.94591
53 1 12.7438 3.56459 3.48805
54 2 7.5228 4.71596 3.63447
55 2 10.7161 7.83777 9.12635
56 2 11.3604 2.48621 3.57523
57 2 7.93751 9.96292 9.02192
58 2 12.1791 4.66724 4.7514
59 2 8.77816 7.81411 10.2288
60 2 6.65393 2.51869 4.71966
61 2 9.84428 10.0598 10.1656
62 3 10.109 9.95727 7.58999
63 3 6.93091 2.54625 2.14666
64 3 8.59083 7.73007 7.64717
65 3 12.0047 4.69398 2.16357
66 4 10.0939 0.515521 5.37928
67 4 6.64496 1.52833 10.8395
68 4 11.4008 0.996186 5.559
69 4 8.21297 1.09679 0.129651
70 4 12.0646 0.690666 6.74699
71 4 8.89408 1.44878 1.29702
72 5 9.91428 1.12738 1.45657
73 4 8.75841 6.57786 5.55229
74 4 12.1921 5.97664 0.141925
75 5 5.92591 6.24935 10.0711
76 4 9.35221 7.26453 6.61387
77 4 12.7642 5.1658 1.12885
78 5 10.3935 7.54233 6.54557
79 5 7.18628 4.88061 0.976924
80 4 9.42883 10.2788 6.44788
81 4 6.22964 2.15298 1.0417
82 5 8.41454 9.93616 6.31005
83 5 11.8103 2.42911 0.911645
84 4 11.4239 10.2985 7.71983
85 4 8.25097 2.22259 2.26966
86 5 11.9765 9.96488 8.5828
87 5 8.80312 2.56208 3.13039
88 4 7.26879 7.39272 7.73047
89 4 10.6832 5.02036 2.24683
90 5 6.67329 7.76887 8.5453
91 5 10.0786 4.59178 3.02747
92 4 6.67376 6.57797 6.75798
93 4 10.1164 5.94016 1.36081
94 5 12.2652 6.1542 6.92342
95 4 7.41419 6.18002 5.64031
96 4 10.8547 6.38081 0.260129
97 4 12.06 1.84011 4.52729
98 4 8.63566 0.251427 9.96185
99 4 6.79126 5.34249 4.57614
100 4 9.99273 7.23589 10.0849
101 6 6.71341 1.19391 6.96443
102 6 12.7331 1.65326 9.57241
103 6 2.772 6.51128 4.30428
104 6 2.29004 6.50052 1.55834
105 6 9.54386 0.473871 4.14607
106 6 6.05878 1.51649 9.62562
107 6 9.44678 6.4273 4.40339
108 6 8.89874 6.46962 1.63066
