Created on Wed Aug 12 11:13:10 2020 

         116 atoms
         136 bonds
         252 angles
         272 dihedrals
         168 impropers

           6 atom types
           9 bond types
          16 angle types
           4 dihedral types
           1 improper types
           0.000000  12.505600 xlo xhi
           0.000000  12.523400 ylo yhi
           0.000000  10.274279 zlo zhi
           0.000000  -0.227594   0.000000 xy xz yz

Masses

    1    58.693400000 # Ni4+2
    2    15.999400000 # O_R
    3    14.006700000 # N_R
    4    12.010700000 # C_R
    5     1.007940000 # H_
    6    32.065000000 # S_3+6

Bond Coeffs

    1      321.720028        1.793457  # Ni4+2 O_R
    2      328.673665        1.841585  # Ni4+2 N_R
    3      646.680887        1.311940  # O_R C_R
    4      663.718927        1.345073  # N_R C_R
    5      462.655054        1.379256  # C_R C_R
    6      357.440381        1.081418  # C_R H_
    7      391.669513        1.458000  # C_R C_R
    8      320.755144        1.749010  # C_R S_3+6
    9      248.314392        1.370399  # S_3+6 H_

Angle Coeffs

    1              cosine/periodic      322.980216               1               4 # O_R Ni4+2 O_R
    2              cosine/periodic      343.030950               1               4 # O_R Ni4+2 N_R
    3              cosine/periodic      364.965660               1               4 # N_R Ni4+2 N_R
    4              cosine/periodic      238.346347              -1               3 # C_R O_R Ni4+2
    5              cosine/periodic      177.809033              -1               3 # Ni4+2 N_R C_R
    6              cosine/periodic      240.001032              -1               3 # C_R N_R C_R
    7              cosine/periodic      114.578032              -1               3 # C_R C_R H_
    8              cosine/periodic      222.595017              -1               3 # C_R C_R C_R
    9              cosine/periodic      204.366560              -1               3 # C_R C_R C_R
   10              cosine/periodic      307.398705              -1               3 # N_R C_R C_R
   11              cosine/periodic      159.573934              -1               3 # N_R C_R H_
   12              cosine/periodic      290.210495              -1               3 # N_R C_R S_3+6
   13              cosine/periodic      211.886013              -1               3 # C_R C_R S_3+6
   14              cosine/periodic      263.511421              -1               3 # O_R C_R C_R
   15              cosine/periodic      374.272657              -1               3 # O_R C_R O_R
   16                      fourier       70.974262        0.343737        0.374972        0.281246 # C_R S_3+6 H_

Dihedral Coeffs

    1        2.245703              -1               2 # Ni4+2 O_R C_R C_R
    2        1.497136              -1               2 # Ni4+2 N_R C_R C_R
    3        0.555556              -1               2 # C_R C_R C_R O_R
    4        0.658808               1               2 # N_R C_R S_3+6 H_

Improper Coeffs

    1        2.000000        1.000000       -1.000000        0.000000               0 # Ni4+2 N_R C_R C_R

Pair Coeffs

    1        0.015000        2.524807 # Ni4+2 Ni4+2
    2        0.060000        3.118146 # O_R O_R
    3        0.069000        3.260689 # N_R N_R
    4        0.105000        3.430851 # C_R C_R
    5        0.044000        2.571134 # H_ H_
    6        0.274000        3.594776 # S_3+6 S_3+6

Atoms

       1      444        1     0.00000    2.89857    9.41116    8.59265
       2      444        1     0.00000    6.17525    3.10579    3.48481
       3      444        2     0.00000    1.44827    4.35425    3.93374
       4      444        2     0.00000    4.44160    8.15245    9.05464
       5      444        2     0.00000    4.63665    1.84729    3.87523
       6      444        2     0.00000    1.36499   10.67435    9.00295
       7      444        2     0.00000    5.80609    4.46033    4.96242
       8      444        2     0.00000    2.54244    8.03270   10.06753
       9      444        2     0.00000    0.25117    1.69264    4.94273
      10      444        2     0.00000    3.23722   10.80466   10.06262
      11      444        3     0.00000    3.69677   10.66058    7.24160
      12      444        3     0.00000    0.71256    1.86420    2.11704
      13      444        3     0.00000    2.17217    8.14409    7.25198
      14      444        3     0.00000    5.44023    4.39481    2.13747
      15      444        4     0.00000    3.48546   12.14832    5.36301
      16      444        4     0.00000    0.47488    0.38955    0.22920
      17      444        5     0.00000    2.86453   12.51808    4.55267
      18      444        5     0.00000    5.86971    0.03371    9.69377
      19      444        4     0.00000    4.76073    0.14740    5.61481
      20      444        4     0.00000    1.74333   12.36991    0.47412
      21      444        4     0.00000    5.50345   12.15023    6.68209
      22      444        4     0.00000    2.49852    0.35508    1.54004
      23      444        5     0.00000    0.24768   12.50843    6.91993
      24      444        5     0.00000    3.49155   12.50668    1.77336
      25      444        4     0.00000    2.48363    6.63370    5.40822
      26      444        4     0.00000    5.72803    5.90364    0.28669
      27      444        5     0.00000    3.13294    6.27291    4.61605
      28      444        5     0.00000   -0.10828    6.26667    9.76620
      29      444        4     0.00000    2.92756    7.68099    6.23068
      30      444        4     0.00000    6.18830    4.86756    1.11596
      31      444        5     0.00000    3.89994    8.14655    6.08890
      32      444        5     0.00000    0.91589    4.41889    0.97634
      33      444        4     0.00000    2.98256   11.13588    6.19748
      34      444        4     0.00000   -0.01036    1.40553    1.07106
      35      444        5     0.00000    5.26093    1.85011    0.92351
      36      444        4     0.00000    4.93641   11.13810    7.47507
      37      444        4     0.00000    1.94823    1.37190    2.34060
      38      444        5     0.00000    5.48559   10.70967    8.30944
      39      444        5     0.00000    2.50886    1.79214    3.17267
      40      444        4     0.00000    0.94573    7.62654    7.47302
      41      444        4     0.00000    4.21083    4.90458    2.35686
      42      444        5     0.00000    3.63605    4.47744    3.17528
      43      444        4     0.00000    0.43859    6.57577    6.69176
      44      444        4     0.00000    3.68763    5.94500    1.56944
      45      444        5     0.00000    5.70774    6.17693    6.91975
      46      444        5     0.00000    2.69824    6.32683    1.80071
      47      444        4     0.00000    1.22745    6.06471    5.65205
      48      444        4     0.00000    4.46338    6.45777    0.52027
      49      444        4     0.00000    5.31260    1.24381    4.79419
      50      444        4     0.00000    2.05020   11.26755    9.92158
      51      444        4     0.00000    0.73548    4.94016    4.83586
      52      444        4     0.00000    3.73174    7.56629    9.95688
      53      444        1     0.00000    9.15137    9.41116    8.59265
      54      444        1     0.00000   12.42805    3.10579    3.48481
      55      444        2     0.00000    7.70109    4.35425    3.93374
      56      444        2     0.00000   10.69440    8.15245    9.05464
      57      444        2     0.00000   10.88945    1.84729    3.87523
      58      444        2     0.00000    7.61779   10.67435    9.00295
      59      444        2     0.00000   12.05889    4.46033    4.96242
      60      444        2     0.00000    8.79524    8.03270   10.06753
      61      444        2     0.00000    6.50397    1.69264    4.94273
      62      444        2     0.00000    9.49002   10.80466   10.06262
      63      444        3     0.00000    9.94957   10.66058    7.24160
      64      444        3     0.00000    6.96536    1.86420    2.11704
      65      444        3     0.00000    8.42499    8.14409    7.25198
      66      444        3     0.00000   11.69303    4.39481    2.13747
      67      444        4     0.00000    9.73826   12.14832    5.36301
      68      444        4     0.00000    6.72768    0.38955    0.22920
      69      444        5     0.00000    9.11733   12.51808    4.55267
      70      444        5     0.00000   12.12251    0.03371    9.69377
      71      444        4     0.00000   11.01353    0.14740    5.61481
      72      444        4     0.00000    7.99613   12.36991    0.47412
      73      444        4     0.00000   11.75625   12.15023    6.68209
      74      444        4     0.00000    8.75132    0.35508    1.54004
      75      444        5     0.00000    6.50047   12.50843    6.91993
      76      444        5     0.00000    9.74435   12.50668    1.77336
      77      444        4     0.00000    8.73644    6.63370    5.40822
      78      444        4     0.00000   11.98084    5.90364    0.28669
      79      444        5     0.00000    9.38574    6.27291    4.61605
      80      444        5     0.00000    6.14452    6.26667    9.76620
      81      444        4     0.00000    9.18036    7.68099    6.23068
      82      444        4     0.00000   12.44110    4.86756    1.11596
      83      444        5     0.00000   10.15274    8.14655    6.08890
      84      444        4     0.00000    9.23536   11.13588    6.19748
      85      444        4     0.00000    6.24244    1.40553    1.07106
      86      444        4     0.00000   11.18921   11.13810    7.47507
      87      444        4     0.00000    8.20102    1.37190    2.34060
      88      444        5     0.00000   11.73839   10.70967    8.30944
      89      444        4     0.00000    7.19853    7.62654    7.47302
      90      444        4     0.00000   10.46363    4.90458    2.35686
      91      444        4     0.00000    6.69139    6.57577    6.69176
      92      444        4     0.00000    9.94043    5.94500    1.56944
      93      444        5     0.00000   11.96054    6.17693    6.91975
      94      444        5     0.00000    8.95104    6.32683    1.80071
      95      444        4     0.00000    7.48025    6.06471    5.65205
      96      444        4     0.00000   10.71618    6.45777    0.52027
      97      444        4     0.00000   11.56540    1.24381    4.79419
      98      444        4     0.00000    8.30300   11.26755    9.92158
      99      444        4     0.00000    6.98827    4.94016    4.83586
     100      444        4     0.00000    9.98454    7.56629    9.95688
     101      444        6     0.00000    1.33321   10.40363    5.91810
     102      444        5     0.00000    0.27442    9.96388    5.66516
     103      444        6     0.00000   10.85673    2.16483    0.79865
     104      444        5     0.00000    9.78543    2.59098    0.57702
     105      444        6     0.00000   -0.02875    8.35402    8.83654
     106      444        5     0.00000   11.80419    8.75718    9.71025
     107      444        6     0.00000    7.82525    4.09952    0.86122
     108      444        5     0.00000    8.89719    3.66858    0.65239
     109      444        6     0.00000    7.58584   10.40391    5.91834
     110      444        5     0.00000    6.50838    9.99588    5.69261
     111      444        6     0.00000    9.13741    2.08778    3.73862
     112      444        5     0.00000    9.80389    2.51621    4.60500
     113      444        6     0.00000    6.22407    8.35402    8.83653
     114      444        5     0.00000    5.55139    8.75719    9.71024
     115      444        6     0.00000    9.49967    4.17978    3.73129
     116      444        5     0.00000    8.81628    3.74739    4.58241

Bonds

       1        1        1        4
       2        1        1        6
       3        1        1        8
       4        1        1       10
       5        2        1       11
       6        2        1       13
       7        1        2        5
       8        1        2        7
       9        2        2       14
      10        1        2       55
      11        1        2       61
      12        2        2       64
      13        3        3       51
      14        1        3       54
      15        3        4       52
      16        3        5       49
      17        3        6       50
      18        3        7       99
      19        3        8       52
      20        1        9       54
      21        3        9       97
      22        3       10       50
      23        4       11       33
      24        4       11       36
      25        4       12       34
      26        4       12       37
      27        2       12       54
      28        4       13       29
      29        4       13       40
      30        4       14       30
      31        4       14       41
      32        6       15       17
      33        5       15       19
      34        5       15       33
      35        5       16       20
      36        5       16       34
      37        6       16       70
      38        6       18       68
      39        5       19       21
      40        7       19       49
      41        5       20       22
      42        7       20       50
      43        5       21       36
      44        6       21       75
      45        6       22       24
      46        5       22       37
      47        6       23       73
      48        6       25       27
      49        5       25       29
      50        5       25       47
      51        5       26       30
      52        5       26       48
      53        6       26       80
      54        6       28       78
      55        6       29       31
      56        8       30      107
      57        6       32       82
      58        8       33      101
      59        8       34      103
      60        6       35       85
      61        6       36       38
      62        6       37       39
      63        5       40       43
      64        8       40      105
      65        6       41       42
      66        5       41       44
      67        5       43       47
      68        6       43       93
      69        6       44       46
      70        5       44       48
      71        6       45       91
      72        7       47       51
      73        7       48       52
      74        3       49       61
      75        3       51       59
      76        1       53       56
      77        1       53       58
      78        1       53       60
      79        1       53       62
      80        2       53       63
      81        2       53       65
      82        1       54       57
      83        1       54       59
      84        2       54       66
      85        3       55       99
      86        3       56      100
      87        3       57       97
      88        3       58       98
      89        3       60      100
      90        3       62       98
      91        4       63       84
      92        4       63       86
      93        4       64       85
      94        4       64       87
      95        4       65       81
      96        4       65       89
      97        4       66       82
      98        4       66       90
      99        6       67       69
     100        5       67       71
     101        5       67       84
     102        5       68       72
     103        5       68       85
     104        5       71       73
     105        7       71       97
     106        5       72       74
     107        7       72       98
     108        5       73       86
     109        6       74       76
     110        5       74       87
     111        6       77       79
     112        5       77       81
     113        5       77       95
     114        5       78       82
     115        5       78       96
     116        6       81       83
     117        8       84      109
     118        6       86       88
     119        8       87      111
     120        5       89       91
     121        8       89      113
     122        5       90       92
     123        8       90      115
     124        5       91       95
     125        6       92       94
     126        5       92       96
     127        7       95       99
     128        7       96      100
     129        9      101      102
     130        9      103      104
     131        9      105      106
     132        9      107      108
     133        9      109      110
     134        9      111      112
     135        9      113      114
     136        9      115      116

Angles

       1        1        4        1        6
       2        1        4        1        8
       3        1        4        1       10
       4        2        4        1       11
       5        2        4        1       13
       6        1        6        1        8
       7        1        6        1       10
       8        2        6        1       11
       9        2        6        1       13
      10        1        8        1       10
      11        2        8        1       11
      12        2        8        1       13
      13        2       10        1       11
      14        2       10        1       13
      15        3       11        1       13
      16        2       14        2        5
      17        2       14        2        7
      18        2       14        2       55
      19        2       14        2       61
      20        3       14        2       64
      21        1        5        2        7
      22        1        5        2       55
      23        1        5        2       61
      24        2        5        2       64
      25        1        7        2       55
      26        1        7        2       61
      27        2        7        2       64
      28        1       55        2       61
      29        2       55        2       64
      30        2       61        2       64
      31        4       51        3       54
      32        4        1        4       52
      33        4        2        5       49
      34        4        1        6       50
      35        4        2        7       99
      36        4        1        8       52
      37        4       54        9       97
      38        4        1       10       50
      39        5        1       11       33
      40        5        1       11       36
      41        6       33       11       36
      42        6       34       12       37
      43        5       34       12       54
      44        5       37       12       54
      45        5        1       13       29
      46        5        1       13       40
      47        6       29       13       40
      48        5        2       14       30
      49        5        2       14       41
      50        6       30       14       41
      51        7       19       15       17
      52        8       19       15       33
      53        7       17       15       33
      54        8       20       16       34
      55        7       20       16       70
      56        7       34       16       70
      57        8       15       19       21
      58        9       15       19       49
      59        9       21       19       49
      60        8       16       20       22
      61        9       16       20       50
      62        9       22       20       50
      63        8       19       21       36
      64        7       19       21       75
      65        7       36       21       75
      66        8       20       22       37
      67        7       20       22       24
      68        7       37       22       24
      69        8       29       25       47
      70        7       29       25       27
      71        7       47       25       27
      72        8       30       26       48
      73        7       30       26       80
      74        7       48       26       80
      75       10       13       29       25
      76       11       13       29       31
      77        7       25       29       31
      78       10       14       30       26
      79       12       14       30      107
      80       13       26       30      107
      81       10       11       33       15
      82       12       11       33      101
      83       13       15       33      101
      84       10       12       34       16
      85       12       12       34      103
      86       13       16       34      103
      87       10       21       36       11
      88        7       21       36       38
      89       11       11       36       38
      90       10       12       37       22
      91       11       12       37       39
      92        7       22       37       39
      93       10       13       40       43
      94       12       13       40      105
      95       13       43       40      105
      96       10       14       41       44
      97       11       14       41       42
      98        7       44       41       42
      99        8       40       43       47
     100        7       40       43       93
     101        7       47       43       93
     102        8       41       44       48
     103        7       41       44       46
     104        7       48       44       46
     105        8       25       47       43
     106        9       25       47       51
     107        9       43       47       51
     108        8       26       48       44
     109        9       26       48       52
     110        9       44       48       52
     111       14        5       49       19
     112       15        5       49       61
     113       14       19       49       61
     114       14       10       50       20
     115       15       10       50        6
     116       14       20       50        6
     117       14        3       51       47
     118       15        3       51       59
     119       14       47       51       59
     120       14        8       52       48
     121       15        8       52        4
     122       14       48       52        4
     123        1       56       53       58
     124        1       56       53       60
     125        1       56       53       62
     126        2       56       53       63
     127        2       56       53       65
     128        1       58       53       60
     129        1       58       53       62
     130        2       58       53       63
     131        2       58       53       65
     132        1       60       53       62
     133        2       60       53       63
     134        2       60       53       65
     135        2       62       53       63
     136        2       62       53       65
     137        3       63       53       65
     138        2        9       54       12
     139        1        9       54       57
     140        1        9       54        3
     141        1        9       54       59
     142        2        9       54       66
     143        2       12       54       57
     144        2       12       54        3
     145        2       12       54       59
     146        3       12       54       66
     147        1       57       54        3
     148        1       57       54       59
     149        2       57       54       66
     150        1        3       54       59
     151        2        3       54       66
     152        2       59       54       66
     153        4        2       55       99
     154        4       53       56      100
     155        4       54       57       97
     156        4       53       58       98
     157        4       51       59       54
     158        4       53       60      100
     159        4        2       61       49
     160        4       53       62       98
     161        5       53       63       84
     162        5       53       63       86
     163        6       84       63       86
     164        5        2       64       87
     165        5        2       64       85
     166        6       87       64       85
     167        5       53       65       81
     168        5       53       65       89
     169        6       81       65       89
     170        6       82       66       90
     171        5       82       66       54
     172        5       90       66       54
     173        7       71       67       69
     174        8       71       67       84
     175        7       69       67       84
     176        7       72       68       18
     177        8       72       68       85
     178        7       18       68       85
     179        9       67       71       97
     180        8       67       71       73
     181        9       97       71       73
     182        8       68       72       74
     183        9       68       72       98
     184        9       74       72       98
     185        7       86       73       23
     186        8       86       73       71
     187        7       23       73       71
     188        7       72       74       76
     189        8       72       74       87
     190        7       76       74       87
     191        8       81       77       95
     192        7       81       77       79
     193        7       95       77       79
     194        7       82       78       28
     195        8       82       78       96
     196        7       28       78       96
     197       10       65       81       77
     198       11       65       81       83
     199        7       77       81       83
     200       10       66       82       78
     201       11       66       82       32
     202        7       78       82       32
     203       10       63       84       67
     204       12       63       84      109
     205       13       67       84      109
     206        7       68       85       35
     207       10       68       85       64
     208       11       35       85       64
     209       10       73       86       63
     210        7       73       86       88
     211       11       63       86       88
     212       10       64       87       74
     213       12       64       87      111
     214       13       74       87      111
     215       10       65       89       91
     216       12       65       89      113
     217       13       91       89      113
     218       10       66       90       92
     219       12       66       90      115
     220       13       92       90      115
     221        7       95       91       45
     222        8       95       91       89
     223        7       45       91       89
     224        8       90       92       96
     225        7       90       92       94
     226        7       96       92       94
     227        8       77       95       91
     228        9       77       95       99
     229        9       91       95       99
     230        8       92       96       78
     231        9       92       96      100
     232        9       78       96      100
     233       14       71       97        9
     234       14       71       97       57
     235       15        9       97       57
     236       14       62       98       72
     237       15       62       98       58
     238       14       72       98       58
     239       14       55       99       95
     240       15       55       99        7
     241       14       95       99        7
     242       14       60      100       96
     243       15       60      100       56
     244       14       96      100       56
     245       16       33      101      102
     246       16       34      103      104
     247       16       40      105      106
     248       16       30      107      108
     249       16       84      109      110
     250       16       87      111      112
     251       16       89      113      114
     252       16       90      115      116

Dihedrals

       1        1       54        3       51       47
       2        1       54        3       51       59
       3        1        1        4       52        8
       4        1        1        4       52       48
       5        1        2        5       49       19
       6        1        2        5       49       61
       7        1        1        6       50       10
       8        1        1        6       50       20
       9        1        2        7       99       55
      10        1        2        7       99       95
      11        1        1        8       52       48
      12        1        1        8       52        4
      13        1       54        9       97       71
      14        1       54        9       97       57
      15        1        1       10       50       20
      16        1        1       10       50        6
      17        2        1       11       33       15
      18        2        1       11       33      101
      19        2       36       11       33       15
      20        2       36       11       33      101
      21        2        1       11       36       21
      22        2        1       11       36       38
      23        2       33       11       36       21
      24        2       33       11       36       38
      25        2       37       12       34       16
      26        2       37       12       34      103
      27        2       54       12       34       16
      28        2       54       12       34      103
      29        2       34       12       37       22
      30        2       34       12       37       39
      31        2       54       12       37       22
      32        2       54       12       37       39
      33        2        1       13       29       25
      34        2        1       13       29       31
      35        2       40       13       29       25
      36        2       40       13       29       31