Created on Wed Aug 12 11:12:57 2020 

         116 atoms
         136 bonds
         252 angles
         272 dihedrals
         168 impropers

           6 atom types
           9 bond types
          15 angle types
           4 dihedral types
           1 improper types
           0.000000  12.505600 xlo xhi
           0.000000  12.523400 ylo yhi
           0.000000  10.274279 zlo zhi
           0.000000  -0.227594   0.000000 xy xz yz

Masses

    1    58.693400000 # Ni4+2
    2    15.999400000 # O_R
    3    14.006700000 # N_R
    4    12.010700000 # C_R
    5     1.007940000 # H_
    6    32.065000000 # S_3+6

Bond Coeffs

    1      321.720028        1.793457  # Ni4+2 O_R
    2      328.673665        1.841585  # Ni4+2 N_R
    3      646.680887        1.311940  # O_R C_R
    4      663.718927        1.345073  # N_R C_R
    5      462.655054        1.379256  # C_R C_R
    6      357.440381        1.081418  # C_R H_
    7      320.755144        1.749010  # C_R S_3+6
    8      391.669513        1.458000  # C_R C_R
    9      248.314392        1.370399  # S_3+6 H_

Angle Coeffs

    1              cosine/periodic      322.980216               1               4 # O_R Ni4+2 O_R
    2              cosine/periodic      343.030950               1               4 # O_R Ni4+2 N_R
    3              cosine/periodic      364.965660               1               4 # N_R Ni4+2 N_R
    4              cosine/periodic      238.346347              -1               3 # C_R O_R Ni4+2
    5              cosine/periodic      177.809033              -1               3 # Ni4+2 N_R C_R
    6              cosine/periodic      240.001032              -1               3 # C_R N_R C_R
    7              cosine/periodic      114.578032              -1               3 # C_R C_R H_
    8              cosine/periodic      222.595017              -1               3 # C_R C_R C_R
    9              cosine/periodic      211.886013              -1               3 # C_R C_R S_3+6
   10              cosine/periodic      204.366560              -1               3 # C_R C_R C_R
   11              cosine/periodic      307.398705              -1               3 # N_R C_R C_R
   12              cosine/periodic      159.573934              -1               3 # N_R C_R H_
   13              cosine/periodic      263.511421              -1               3 # O_R C_R C_R
   14              cosine/periodic      374.272657              -1               3 # O_R C_R O_R
   15                      fourier       70.974262        0.343737        0.374972        0.281246 # C_R S_3+6 H_

Dihedral Coeffs

    1        2.245703              -1               2 # Ni4+2 O_R C_R C_R
    2        1.497136              -1               2 # Ni4+2 N_R C_R C_R
    3        0.658808               1               2 # C_R C_R S_3+6 H_
    4        0.555556              -1               2 # C_R C_R C_R O_R

Improper Coeffs

    1        2.000000        1.000000       -1.000000        0.000000               0 # Ni4+2 N_R C_R C_R

Pair Coeffs

    1        0.015000        2.524807 # Ni4+2 Ni4+2
    2        0.060000        3.118146 # O_R O_R
    3        0.069000        3.260689 # N_R N_R
    4        0.105000        3.430851 # C_R C_R
    5        0.044000        2.571134 # H_ H_
    6        0.274000        3.594776 # S_3+6 S_3+6

Atoms

       1      444        1     0.00000    2.89857    9.41116    8.59265
       2      444        1     0.00000    6.17525    3.10579    3.48481
       3      444        2     0.00000    1.44827    4.35425    3.93374
       4      444        2     0.00000    4.44160    8.15245    9.05464
       5      444        2     0.00000    4.63665    1.84729    3.87523
       6      444        2     0.00000    1.36499   10.67435    9.00295
       7      444        2     0.00000    5.80609    4.46033    4.96242
       8      444        2     0.00000    2.54244    8.03270   10.06753
       9      444        2     0.00000    0.25117    1.69264    4.94273
      10      444        2     0.00000    3.23722   10.80466   10.06262
      11      444        3     0.00000    3.69677   10.66058    7.24160
      12      444        3     0.00000    0.71256    1.86420    2.11704
      13      444        3     0.00000    2.17217    8.14409    7.25198
      14      444        3     0.00000    5.44023    4.39481    2.13747
      15      444        4     0.00000    3.48546   12.14832    5.36301
      16      444        4     0.00000    0.47488    0.38955    0.22920
      17      444        5     0.00000    2.86453   12.51808    4.55267
      18      444        5     0.00000    5.86971    0.03371    9.69377
      19      444        4     0.00000    4.76073    0.14740    5.61481
      20      444        4     0.00000    1.74333   12.36991    0.47412
      21      444        4     0.00000    5.50345   12.15023    6.68209
      22      444        4     0.00000    2.49852    0.35508    1.54004
      23      444        5     0.00000    3.49155   12.50668    1.77336
      24      444        4     0.00000    2.48363    6.63370    5.40822
      25      444        4     0.00000    5.72803    5.90364    0.28669
      26      444        5     0.00000    3.13294    6.27291    4.61605
      27      444        4     0.00000    2.92756    7.68099    6.23068
      28      444        4     0.00000    6.18830    4.86756    1.11596
      29      444        5     0.00000    3.89994    8.14655    6.08890
      30      444        5     0.00000    0.91589    4.41889    0.97634
      31      444        4     0.00000    2.98256   11.13588    6.19748
      32      444        4     0.00000   -0.01036    1.40553    1.07106
      33      444        5     0.00000    1.99392   10.70905    6.04703
      34      444        5     0.00000    5.26093    1.85011    0.92351
      35      444        4     0.00000    4.93641   11.13810    7.47507
      36      444        4     0.00000    1.94823    1.37190    2.34060
      37      444        5     0.00000    5.48559   10.70967    8.30944
      38      444        5     0.00000    2.50886    1.79214    3.17267
      39      444        4     0.00000    0.94573    7.62654    7.47302
      40      444        4     0.00000    4.21083    4.90458    2.35686
      41      444        5     0.00000    0.36328    8.05184    8.28732
      42      444        5     0.00000    3.63605    4.47744    3.17528
      43      444        4     0.00000    0.43859    6.57577    6.69176
      44      444        4     0.00000    3.68763    5.94500    1.56944
      45      444        4     0.00000    1.22745    6.06471    5.65205
      46      444        4     0.00000    4.46338    6.45777    0.52027
      47      444        4     0.00000    5.31260    1.24381    4.79419
      48      444        4     0.00000    2.05020   11.26755    9.92158
      49      444        4     0.00000    0.73548    4.94016    4.83586
      50      444        4     0.00000    3.73174    7.56629    9.95688
      51      444        1     0.00000    9.15137    9.41116    8.59265
      52      444        1     0.00000   12.42805    3.10579    3.48481
      53      444        2     0.00000    7.70109    4.35425    3.93374
      54      444        2     0.00000   10.69440    8.15245    9.05464
      55      444        2     0.00000   10.88945    1.84729    3.87523
      56      444        2     0.00000    7.61779   10.67435    9.00295
      57      444        2     0.00000   12.05889    4.46033    4.96242
      58      444        2     0.00000    8.79524    8.03270   10.06753
      59      444        2     0.00000    6.50397    1.69264    4.94273
      60      444        2     0.00000    9.49002   10.80466   10.06262
      61      444        3     0.00000    9.94957   10.66058    7.24160
      62      444        3     0.00000    6.96536    1.86420    2.11704
      63      444        3     0.00000    8.42499    8.14409    7.25198
      64      444        3     0.00000   11.69303    4.39481    2.13747
      65      444        4     0.00000    9.73826   12.14832    5.36301
      66      444        4     0.00000    6.72768    0.38955    0.22920
      67      444        5     0.00000    9.11733   12.51808    4.55267
      68      444        4     0.00000   11.01353    0.14740    5.61481
      69      444        4     0.00000    7.99613   12.36991    0.47412
      70      444        4     0.00000   11.75625   12.15023    6.68209
      71      444        4     0.00000    8.75132    0.35508    1.54004
      72      444        4     0.00000    8.73644    6.63370    5.40822
      73      444        4     0.00000   11.98084    5.90364    0.28669
      74      444        5     0.00000    9.38574    6.27291    4.61605
      75      444        5     0.00000    6.14452    6.26667    9.76620
      76      444        4     0.00000    9.18036    7.68099    6.23068
      77      444        4     0.00000   12.44110    4.86756    1.11596
      78      444        5     0.00000   10.15274    8.14655    6.08890
      79      444        5     0.00000    7.16869    4.41889    0.97634
      80      444        4     0.00000    9.23536   11.13588    6.19748
      81      444        4     0.00000    6.24244    1.40553    1.07106
      82      444        5     0.00000    8.24672   10.70905    6.04703
      83      444        5     0.00000   11.51373    1.85011    0.92351
      84      444        4     0.00000   11.18921   11.13810    7.47507
      85      444        4     0.00000    8.20102    1.37190    2.34060
      86      444        5     0.00000   11.73839   10.70967    8.30944
      87      444        5     0.00000    8.76167    1.79214    3.17267
      88      444        4     0.00000    7.19853    7.62654    7.47302
      89      444        4     0.00000   10.46363    4.90458    2.35686
      90      444        5     0.00000    6.61608    8.05184    8.28732
      91      444        5     0.00000    9.88885    4.47744    3.17528
      92      444        4     0.00000    6.69139    6.57577    6.69176
      93      444        4     0.00000    9.94043    5.94500    1.56944
      94      444        5     0.00000    8.95104    6.32683    1.80071
      95      444        4     0.00000    7.48025    6.06471    5.65205
      96      444        4     0.00000   10.71618    6.45777    0.52027
      97      444        4     0.00000   11.56540    1.24381    4.79419
      98      444        4     0.00000    8.30300   11.26755    9.92158
      99      444        4     0.00000    6.98827    4.94016    4.83586
     100      444        4     0.00000    9.98454    7.56629    9.95688
     101      444        6     0.00000    7.16280    0.17858    7.11093
     102      444        5     0.00000    8.23068    0.61178    7.33527
     103      444        6     0.00000   11.68322   12.38320    9.15334
     104      444        5     0.00000   11.06017   11.99535    8.23695
     105      444        6     0.00000   11.30045    5.96381    7.09548
     106      444        5     0.00000   10.22831    5.52120    7.27710
     107      444        6     0.00000    2.03959    6.54189    1.98011
     108      444        5     0.00000    0.98206    7.00473    2.19405
     109      444        6     0.00000    0.91000    0.17858    7.11093
     110      444        5     0.00000    1.97788    0.61178    7.33527
     111      444        6     0.00000   10.40618   12.30520    1.95749
     112      444        5     0.00000   11.46999   11.85836    2.17426
     113      444        6     0.00000    5.04765    5.96381    7.09548
     114      444        5     0.00000    3.97551    5.52120    7.27710
     115      444        6     0.00000    0.34580    6.44566    9.23739
     116      444        5     0.00000    1.00675    6.87346    8.36646

Bonds

       1        1        1        4
       2        1        1        6
       3        1        1        8
       4        1        1       10
       5        2        1       11
       6        2        1       13
       7        1        2        5
       8        1        2        7
       9        2        2       14
      10        1        2       53
      11        1        2       59
      12        2        2       62
      13        3        3       49
      14        1        3       52
      15        3        4       50
      16        3        5       47
      17        3        6       48
      18        3        7       99
      19        3        8       50
      20        1        9       52
      21        3        9       97
      22        3       10       48
      23        4       11       31
      24        4       11       35
      25        4       12       32
      26        4       12       36
      27        2       12       52
      28        4       13       27
      29        4       13       39
      30        4       14       28
      31        4       14       40
      32        6       15       17
      33        5       15       19
      34        5       15       31
      35        5       16       20
      36        5       16       32
      37        7       16      103
      38        6       18       66
      39        5       19       21
      40        8       19       47
      41        5       20       22
      42        8       20       48
      43        5       21       35
      44        7       21      101
      45        6       22       23
      46        5       22       36
      47        6       24       26
      48        5       24       27
      49        5       24       45
      50        5       25       28
      51        5       25       46
      52        6       25       75
      53        6       27       29
      54        6       28       79
      55        6       30       77
      56        6       31       33
      57        6       32       83
      58        6       34       81
      59        6       35       37
      60        6       36       38
      61        6       39       41
      62        5       39       43
      63        6       40       42
      64        5       40       44
      65        5       43       45
      66        7       43      105
      67        5       44       46
      68        7       44      107
      69        8       45       49
      70        8       46       50
      71        3       47       59
      72        3       49       57
      73        1       51       54
      74        1       51       56
      75        1       51       58
      76        1       51       60
      77        2       51       61
      78        2       51       63
      79        1       52       55
      80        1       52       57
      81        2       52       64
      82        3       53       99
      83        3       54      100
      84        3       55       97
      85        3       56       98
      86        3       58      100
      87        3       60       98
      88        4       61       80
      89        4       61       84
      90        4       62       81
      91        4       62       85
      92        4       63       76
      93        4       63       88
      94        4       64       77
      95        4       64       89
      96        6       65       67
      97        5       65       68
      98        5       65       80
      99        5       66       69
     100        5       66       81
     101        5       68       70
     102        8       68       97
     103        5       69       71
     104        8       69       98
     105        5       70       84
     106        7       70      109
     107        5       71       85
     108        7       71      111
     109        6       72       74
     110        5       72       76
     111        5       72       95
     112        5       73       77
     113        5       73       96
     114        7       73      115
     115        6       76       78
     116        6       80       82
     117        6       84       86
     118        6       85       87
     119        6       88       90
     120        5       88       92
     121        6       89       91
     122        5       89       93
     123        5       92       95
     124        7       92      113
     125        6       93       94
     126        5       93       96
     127        8       95       99
     128        8       96      100
     129        9      101      102
     130        9      103      104
     131        9      105      106
     132        9      107      108
     133        9      109      110
     134        9      111      112
     135        9      113      114
     136        9      115      116

Angles

       1        1        4        1        6
       2        1        4        1        8
       3        1        4        1       10
       4        2        4        1       11
       5        2        4        1       13
       6        1        6        1        8
       7        1        6        1       10
       8        2        6        1       11
       9        2        6        1       13
      10        1        8        1       10
      11        2        8        1       11
      12        2        8        1       13
      13        2       10        1       11
      14        2       10        1       13
      15        3       11        1       13
      16        2       14        2        5
      17        2       14        2        7
      18        2       14        2       53
      19        2       14        2       59
      20        3       14        2       62
      21        1        5        2        7
      22        1        5        2       53
      23        1        5        2       59
      24        2        5        2       62
      25        1        7        2       53
      26        1        7        2       59
      27        2        7        2       62
      28        1       53        2       59
      29        2       53        2       62
      30        2       59        2       62
      31        4       49        3       52
      32        4        1        4       50
      33        4        2        5       47
      34        4        1        6       48
      35        4        2        7       99
      36        4        1        8       50
      37        4       52        9       97
      38        4        1       10       48
      39        5        1       11       31
      40        5        1       11       35
      41        6       31       11       35
      42        6       32       12       36
      43        5       32       12       52
      44        5       36       12       52
      45        5        1       13       27
      46        5        1       13       39
      47        6       27       13       39
      48        5        2       14       28
      49        5        2       14       40
      50        6       28       14       40
      51        7       19       15       17
      52        8       19       15       31
      53        7       17       15       31
      54        8       20       16       32
      55        9       20       16      103
      56        9       32       16      103
      57        8       15       19       21
      58       10       15       19       47
      59       10       21       19       47
      60        8       16       20       22
      61       10       16       20       48
      62       10       22       20       48
      63        8       19       21       35
      64        9       19       21      101
      65        9       35       21      101
      66        8       20       22       36
      67        7       20       22       23
      68        7       36       22       23
      69        8       27       24       45
      70        7       27       24       26
      71        7       45       24       26
      72        8       28       25       46
      73        7       28       25       75
      74        7       46       25       75
      75       11       13       27       24
      76       12       13       27       29
      77        7       24       27       29
      78       11       14       28       25
      79       12       14       28       79
      80        7       25       28       79
      81       11       11       31       15
      82       12       11       31       33
      83        7       15       31       33
      84       11       12       32       16
      85       12       12       32       83
      86        7       16       32       83
      87       11       21       35       11
      88        7       21       35       37
      89       12       11       35       37
      90       11       12       36       22
      91       12       12       36       38
      92        7       22       36       38
      93       11       13       39       43
      94       12       13       39       41
      95        7       43       39       41
      96       11       14       40       44
      97       12       14       40       42
      98        7       44       40       42
      99        8       39       43       45
     100        9       39       43      105
     101        9       45       43      105
     102        8       40       44       46
     103        9       40       44      107
     104        9       46       44      107
     105        8       24       45       43
     106       10       24       45       49
     107       10       43       45       49
     108        8       25       46       44
     109       10       25       46       50
     110       10       44       46       50
     111       13        5       47       19
     112       14        5       47       59
     113       13       19       47       59
     114       13       10       48       20
     115       14       10       48        6
     116       13       20       48        6
     117       13        3       49       45
     118       14        3       49       57
     119       13       45       49       57
     120       13        8       50       46
     121       14        8       50        4
     122       13       46       50        4
     123        1       54       51       56
     124        1       54       51       58
     125        1       54       51       60
     126        2       54       51       61
     127        2       54       51       63
     128        1       56       51       58
     129        1       56       51       60
     130        2       56       51       61
     131        2       56       51       63
     132        1       58       51       60
     133        2       58       51       61
     134        2       58       51       63
     135        2       60       51       61
     136        2       60       51       63
     137        3       61       51       63
     138        2        9       52       12
     139        1        9       52       55
     140        1        9       52        3
     141        1        9       52       57
     142        2        9       52       64
     143        2       12       52       55
     144        2       12       52        3
     145        2       12       52       57
     146        3       12       52       64
     147        1       55       52        3
     148        1       55       52       57
     149        2       55       52       64
     150        1        3       52       57
     151        2        3       52       64
     152        2       57       52       64
     153        4        2       53       99
     154        4       51       54      100
     155        4       52       55       97
     156        4       51       56       98
     157        4       49       57       52
     158        4       51       58      100
     159        4        2       59       47
     160        4       51       60       98
     161        5       51       61       80
     162        5       51       61       84
     163        6       80       61       84
     164        5        2       62       85
     165        5        2       62       81
     166        6       85       62       81
     167        5       51       63       76
     168        5       51       63       88
     169        6       76       63       88
     170        5       89       64       52
     171        6       89       64       77
     172        5       52       64       77
     173        7       68       65       67
     174        8       68       65       80
     175        7       67       65       80
     176        7       69       66       18
     177        8       69       66       81
     178        7       18       66       81
     179        8       65       68       70
     180       10       65       68       97
     181       10       70       68       97
     182        8       66       69       71
     183       10       66       69       98
     184       10       71       69       98
     185        8       68       70       84
     186        9       68       70      109
     187        9       84       70      109
     188        8       69       71       85
     189        9       69       71      111
     190        9       85       71      111
     191        8       76       72       95
     192        7       76       72       74
     193        7       95       72       74
     194        8       77       73       96
     195        9       77       73      115
     196        9       96       73      115
     197       11       63       76       72
     198       12       63       76       78
     199        7       72       76       78
     200        7       73       77       30
     201       11       73       77       64
     202       12       30       77       64
     203       11       61       80       65
     204       12       61       80       82
     205        7       65       80       82
     206        7       66       81       34
     207       11       66       81       62
     208       12       34       81       62
     209       11       70       84       61
     210        7       70       84       86
     211       12       61       84       86
     212       11       62       85       71
     213       12       62       85       87
     214        7       71       85       87
     215       11       63       88       92
     216       12       63       88       90
     217        7       92       88       90
     218       11       64       89       93
     219       12       64       89       91
     220        7       93       89       91
     221        8       88       92       95
     222        9       88       92      113
     223        9       95       92      113
     224        8       89       93       96
     225        7       89       93       94
     226        7       96       93       94
     227        8       72       95       92
     228       10       72       95       99
     229       10       92       95       99
     230        8       73       96       93
     231       10       73       96      100
     232       10       93       96      100
     233       13       68       97        9
     234       13       68       97       55
     235       14        9       97       55
     236       13       60       98       69
     237       14       60       98       56
     238       13       69       98       56
     239       13       53       99       95
     240       14       53       99        7
     241       13       95       99        7
     242       13       58      100       96
     243       14       58      100       54
     244       13       96      100       54
     245       15       21      101      102
     246       15       16      103      104
     247       15       43      105      106
     248       15       44      107      108
     249       15       70      109      110
     250       15       71      111      112
     251       15       92      113      114
     252       15       73      115      116

Dihedrals

       1        1       52        3       49       45
       2        1       52        3       49       57
       3        1        1        4       50        8
       4        1        1        4       50       46
       5        1        2        5       47       19
       6        1        2        5       47       59
       7        1        1        6       48       10
       8        1        1        6       48       20
       9        1        2        7       99       53
      10        1        2        7       99       95
      11        1        1        8       50       46
      12        1        1        8       50        4
      13        1       52        9       97       68
      14        1       52        9       97       55
      15        1        1       10       48       20
      16        1        1       10       48        6
      17        2        1       11       31       15
      18        2        1       11       31       33
      19        2       35       11       31       15
      20        2       35       11       31       33
      21        2        1       11       35       21
      22        2        1       11       35       37
      23        2       31       11       35       21
      24        2       31       11       35       37
      25        2       36       12       32       16
      26        2       36       12       32       83
      27        2       52       12       32       16
      28        2       52       12       32       83
      29        2       32       12       36       22
      30        2       32       12       36       38
      31        2       52       12       36       22
      32        2       52       12       36       38
      33        2        1       13       27       24
      34        2        1       13       27       29
      35        2       39       13       27       24
      36        2       39       13       27       29
      37        2        1       13       39       43
      38        2        1       13       39       41