ITEM: TIMESTEP
0
ITEM: NUMBER OF ATOMS
116
ITEM: BOX BOUNDS xy xz yz pp pp pp
-2.4194924698550654e-01 1.3392498519204800e+01 0.0000000000000000e+00
0.0000000000000000e+00 1.0244909991300300e+01 -2.4194924698550654e-01
0.0000000000000000e+00 1.0922318107546801e+01 0.0000000000000000e+00
ITEM: ATOMS id type x y z
1 1 2.66208 8.91076 8.80464
2 1 6.17394 3.74528 3.36436
3 2 0.856859 4.68867 3.51852
4 2 4.04545 7.83058 8.9268
5 2 4.76958 2.69712 3.48979
6 2 1.28155 9.98824 8.98144
7 2 5.64117 4.87059 4.59199
8 2 2.0994 7.74134 9.98288
9 2 -0.0199607 2.59493 4.8125
10 2 3.18394 9.95581 10.124
11 3 3.45519 10.0731 7.53829
12 3 0.266718 2.4056 2.23029
13 3 1.91388 7.86965 7.38783
14 3 5.43431 4.8633 2.02922
15 4 3.41946 0.963519 5.41827
16 4 0.176552 0.694417 0.540547
17 5 2.88241 1.2068 4.51333
18 5 6.0694 1.1755 10.016
19 4 4.75442 1.35891 5.58255
20 4 1.53772 0.909385 0.2541
21 4 5.40658 1.01874 6.78797
22 4 2.28033 1.67309 1.14656
23 5 3.3546 1.68945 1.08565
24 4 2.14214 6.19678 5.6801
25 4 5.34218 6.10166 10.9019
26 5 2.76007 5.46267 5.18196
27 4 2.71293 7.07508 6.61103
28 4 6.18111 5.33152 0.986353
29 5 3.78485 7.17367 6.657
30 5 0.426207 4.51307 0.772149
31 4 2.76882 0.249484 6.43205
32 4 12.921 1.62221 1.38208
33 5 1.71932 0.0278616 6.3257
34 5 5.28354 2.67022 0.737846
35 4 4.77228 0.150583 7.68638
36 4 1.63345 2.34776 2.18044
37 5 5.32686 9.98584 8.51449
38 5 2.22369 2.85255 2.92584
39 4 0.587495 8.01065 7.0531
40 4 4.13019 5.24883 2.16768
41 5 -0.0503713 8.66816 7.61474
42 5 3.57238 4.93005 3.0343
43 4 0.0824137 7.40191 5.89548
44 4 3.53747 6.13206 1.25986
45 4 0.787526 6.32977 5.3551
46 4 4.23099 6.46849 0.0783816
47 4 5.45419 2.07866 4.47393
48 4 1.97037 0.284981 10.0054
49 4 0.143818 5.40286 4.39897
50 4 3.32339 7.18291 9.86342
51 1 9.36703 8.77718 8.94702
52 1 12.8655 3.61964 3.46028
53 2 7.57739 4.78765 3.50727
54 2 10.7822 7.75443 9.07183
55 2 11.4722 2.5831 3.65375
56 2 7.94391 9.78829 9.07495
57 2 12.3211 4.8471 4.61816
58 2 8.82894 7.58937 10.1318
59 2 6.67532 2.63207 4.6252
60 2 9.82376 9.85703 10.2568
61 3 10.1419 9.97116 7.68464
62 3 6.94005 2.61525 2.06123
63 3 8.66882 7.69805 7.56775
64 3 12.1184 4.6187 2.04401
65 4 10.1394 0.818719 5.55292
66 4 6.6033 1.40937 10.9168
67 5 9.61223 1.05948 4.65258
68 4 11.4168 1.34361 5.79071
69 4 8.11599 0.87037 0.23515
70 4 11.9623 1.19736 7.07659
71 4 8.706 1.0916 1.48409
72 4 8.88087 6.48428 5.51508
73 4 11.9458 5.56222 10.755
74 5 9.47495 6.23719 4.64832
75 5 5.93738 6.42744 10.0685
76 4 9.45731 7.19643 6.57419
77 4 12.8064 4.87266 0.889683
78 5 10.5184 7.35426 6.60192
79 5 7.22379 5.06013 0.902455
80 4 9.51324 0.0197226 6.5107
81 4 6.25388 2.25032 0.939445
82 5 8.52757 9.87265 6.3077
83 5 11.8443 1.66514 1.40356
84 4 11.3497 0.308569 7.97452
85 4 8.1854 2.10228 2.29854
86 5 11.8078 0.137523 8.93113
87 5 8.74108 2.43437 3.16006
88 4 7.35214 7.34214 7.63761
89 4 10.8322 5.05526 2.18692
90 5 6.7419 7.71726 8.4422
91 5 10.2662 4.77579 3.06126
92 4 6.84264 6.35735 6.79466
93 4 10.2466 5.88082 1.23197
94 5 9.26692 6.30153 1.41975
95 4 7.54081 6.0777 5.61022
96 4 10.9195 6.14849 0.0400239
97 4 12.1418 2.0371 4.68043
98 4 8.59584 0.146445 10.0814
99 4 6.87023 5.41231 4.46892
100 4 10.0572 7.05107 9.96076
101 6 6.9073 1.79427 7.27974
102 5 6.69787 2.6618 8.31287
103 6 12.9402 9.29889 0.491642
104 5 12.8671 8.70474 10.1967
105 6 12.3526 8.29344 4.87722
106 5 13.0471 9.18669 4.10346
107 6 2.09492 7.00626 1.76591
108 5 2.45607 8.13593 2.45247
109 6 13.1076 2.37287 7.70973
110 5 1.01059 2.04986 7.43263
111 6 9.77466 10.1279 2.19065
112 5 9.03003 9.15244 2.80058
113 6 5.75399 5.16014 7.48946
114 5 4.55301 5.01837 6.85948
115 6 12.6448 5.46124 9.14611
116 5 0.499808 6.01021 9.13684
