116
Atoms. Timestep: 0
Ni 2.89857 9.41116 8.59265
Ni 6.17525 3.10579 3.48481
O 1.44827 4.35425 3.93374
O 4.4416 8.15245 9.05464
O 4.63665 1.84729 3.87523
O 1.36499 10.6744 9.00295
O 5.80609 4.46033 4.96242
O 2.54244 8.0327 10.0675
O 0.25117 1.69264 4.94273
O 3.23722 10.8047 10.0626
N 3.69677 10.6606 7.2416
N 0.71256 1.8642 2.11704
N 2.17217 8.14409 7.25198
N 5.44023 4.39481 2.13747
C 3.48546 12.1483 5.36301
C 0.47488 0.38955 0.2292
H 2.86453 12.5181 4.55267
H 5.86971 0.03371 9.69377
C 4.76073 0.1474 5.61481
C 1.74333 12.3699 0.47412
C 5.50345 12.1502 6.68209
C 2.49852 0.35508 1.54004
H 0.24768 12.5084 6.91993
H 3.49155 12.5067 1.77336
C 2.48363 6.6337 5.40822
C 5.72803 5.90364 0.28669
H 3.13294 6.27291 4.61605
H -0.10828 6.26667 9.7662
C 2.92756 7.68099 6.23068
C 6.1883 4.86756 1.11596
H 3.89994 8.14655 6.0889
H 0.91589 4.41889 0.97634
C 2.98256 11.1359 6.19748
C -0.01036 1.40553 1.07106
H 5.26093 1.85011 0.92351
C 4.93641 11.1381 7.47507
C 1.94823 1.3719 2.3406
H 5.48559 10.7097 8.30944
H 2.50886 1.79214 3.17267
C 0.94573 7.62654 7.47302
C 4.21083 4.90458 2.35686
H 3.63605 4.47744 3.17528
C 0.43859 6.57577 6.69176
C 3.68763 5.945 1.56944
H 5.70774 6.17693 6.91975
H 2.69824 6.32683 1.80071
C 1.22745 6.06471 5.65205
C 4.46338 6.45777 0.52027
C 5.3126 1.24381 4.79419
C 2.0502 11.2675 9.92158
C 0.73548 4.94016 4.83586
C 3.73174 7.56629 9.95688
Ni 9.15137 9.41116 8.59265
Ni 12.4281 3.10579 3.48481
O 7.70109 4.35425 3.93374
O 10.6944 8.15245 9.05464
O 10.8895 1.84729 3.87523
O 7.61779 10.6744 9.00295
O 12.0589 4.46033 4.96242
O 8.79524 8.0327 10.0675
O 6.50397 1.69264 4.94273
O 9.49002 10.8047 10.0626
N 9.94957 10.6606 7.2416
N 6.96536 1.8642 2.11704
N 8.42499 8.14409 7.25198
N 11.693 4.39481 2.13747
C 9.73826 12.1483 5.36301
C 6.72768 0.38955 0.2292
H 9.11733 12.5181 4.55267
H 12.1225 0.03371 9.69377
C 11.0135 0.1474 5.61481
C 7.99613 12.3699 0.47412
C 11.7562 12.1502 6.68209
C 8.75132 0.35508 1.54004
H 6.50047 12.5084 6.91993
H 9.74435 12.5067 1.77336
C 8.73644 6.6337 5.40822
C 11.9808 5.90364 0.28669
H 9.38574 6.27291 4.61605
H 6.14452 6.26667 9.7662
C 9.18036 7.68099 6.23068
C 12.4411 4.86756 1.11596
H 10.1527 8.14655 6.0889
C 9.23536 11.1359 6.19748
C 6.24244 1.40553 1.07106
C 11.1892 11.1381 7.47507
C 8.20102 1.3719 2.3406
H 11.7384 10.7097 8.30944
C 7.19853 7.62654 7.47302
C 10.4636 4.90458 2.35686
C 6.69139 6.57577 6.69176
C 9.94043 5.945 1.56944
H 11.9605 6.17693 6.91975
H 8.95104 6.32683 1.80071
C 7.48025 6.06471 5.65205
C 10.7162 6.45777 0.52027
C 11.5654 1.24381 4.79419
C 8.303 11.2675 9.92158
C 6.98827 4.94016 4.83586
C 9.98454 7.56629 9.95688
S 1.33321 10.4036 5.9181
H 0.27442 9.96388 5.66516
S 10.8567 2.16483 0.79865
H 9.78543 2.59098 0.57702
S -0.02875 8.35402 8.83654
H 11.8042 8.75718 9.71025
S 7.82525 4.09952 0.86122
H 8.89719 3.66858 0.65239
S 7.58584 10.4039 5.91834
H 6.50838 9.99588 5.69261
S 9.13741 2.08778 3.73862
H 9.80389 2.51621 4.605
S 6.22407 8.35402 8.83653
H 5.55139 8.75719 9.71024
S 9.49967 4.17978 3.73129
H 8.81628 3.74739 4.58241
116
Atoms. Timestep: 137
Ni 2.37405 9.00445 8.74437
Ni 6.02092 3.60294 3.53435
O 0.476765 4.50472 3.70049
O 3.74008 7.95195 8.8921
O 4.57436 2.60172 3.6388
O 1.02446 10.0834 8.82733
O 5.50652 4.84643 4.7129
O 1.85237 7.89988 10.0564
O -0.49108 2.22707 4.69942
O 2.89429 10.1741 9.98936
N 3.14844 10.0879 7.38247
N -0.224776 2.47012 2.11068
N 1.60996 7.82901 7.45056
N 5.31078 4.67947 2.12271
C 3.19136 11.2969 5.29728
C -0.201699 1.06657 0.16143
H 2.67569 0.97335 4.41818
H 6.2243 0.941561 9.70785
C 4.48677 1.07861 5.57931
C 1.16025 11.4715 0.348257
C 5.08761 11.3679 6.76583
C 1.79617 1.31038 1.45418
H 13.2907 1.25683 7.17461
H 2.83462 1.06974 1.65537
C 1.80222 6.4449 5.48814
C 5.25609 5.91222 0.0648019
H 2.36376 6.1648 4.60736
H 12.7963 5.89407 9.62658
C 2.3673 7.33353 6.41894
C 5.97066 5.14701 1.0005
H 3.39076 7.66186 6.28795
H -0.0915928 4.93213 0.995964
C 2.50729 10.4957 6.22645
C -0.890632 1.9389 1.01937
H 5.18809 2.19068 0.97103
C 4.41537 10.5269 7.64082
C 1.1025 2.15353 2.31108
H 4.87021 10.2917 8.58041
H 1.62419 2.54009 3.17045
C 0.31799 7.38013 7.62145
C 3.99665 5.05183 2.33201
H 3.45496 4.65808 3.17881
C -0.228601 6.43246 6.7671
C 3.34554 5.9635 1.50017
H 5.90279 6.08463 7.03117
H 2.31913 6.24449 1.70999
C 0.493411 5.97347 5.68423
C 3.98426 6.42066 0.363278
C 5.18755 1.99333 4.65276
C 1.67913 10.7359 9.77617
C -0.166558 5.08197 4.71133
C 3.06937 7.33032 9.86084
Ni 9.62645 8.99669 8.78451
Ni -0.971458 3.50508 3.53381
O 7.45241 4.62451 3.66323
O 11.0188 7.96243 8.93875
O 12.0813 2.47164 3.60627
O 8.24247 10.0724 8.85192
O 13.1051 4.53302 4.90619
O 9.14711 7.87532 10.1144
O 6.39783 2.53653 4.89774
O 10.0952 10.2043 10.0354
N 10.4346 10.1059 7.41297
N 6.84324 2.33638 2.30523
N 8.83087 7.76904 7.50378
N 12.7335 4.81096 2.3156
C 10.8466 10.7833 5.12943
C 6.93001 1.16441 0.185598
H 10.5846 10.6832 4.08643
H -0.895937 11.4411 9.70852
C 12.0119 11.4935 5.49624
C 8.29063 11.5028 0.392699
C 12.3896 11.4364 6.83617
C 8.86118 1.16885 1.60367
H 6.08242 1.03948 7.01765
H 9.86563 11.5111 1.8346
C 8.69315 6.83751 5.2989
C 12.6549 5.92918 0.174547
H 8.98669 7.03111 4.27682
H 5.36515 5.92687 9.51106
C 9.46751 7.35774 6.36553
C 13.3849 5.26003 1.19613
H 10.503 7.62645 6.19449
C 9.96599 10.2864 6.13421
C 6.20208 1.87297 1.18214
C 11.6508 10.6513 7.74164
C 8.14983 1.93459 2.53975
H 12.0649 10.4395 8.70479
C 7.53443 7.3169 7.72791
C 11.4495 5.27948 2.55951
C 6.91015 6.42861 6.82846
C 10.7809 6.11404 1.6501
H 13.2139 6.16892 6.86502
H 9.77646 6.45411 1.87139
C 7.45875 6.224 5.57272
C 11.3562 6.43576 0.439258
C 12.7433 1.72231 4.50295
C 8.85811 10.7462 9.81404
C 6.76236 5.35555 4.55034
C 10.3855 7.32228 9.91301
S 0.769666 10.3276 6.02886
H 0.21109 9.24861 5.3919
S 12.1546 2.69335 0.350725
H 10.8748 2.46879 0.724371
S -0.781877 8.21213 8.66801
H -0.61077 8.12158 10.0222
S 7.50263 4.46442 0.445437
H 8.76624 4.68174 0.895948
S 8.26517 10.037 5.74898
H 6.93272 9.93015 5.4727
S 8.84824 2.09131 4.11782
H 9.75499 2.59284 4.98868
S 6.48077 8.16699 8.81237
H 6.60077 8.10923 10.172
S 10.6498 4.9335 4.04844
H 10.0176 4.65959 5.22476
116
Atoms. Timestep: 10147
Ni 2.37384 9.00336 8.74243
Ni 6.01933 3.60678 3.53034
O 0.465331 4.50959 3.7049
O 3.73982 7.94879 8.88248
O 4.5745 2.60324 3.63562
O 1.02575 10.0824 8.83
O 5.49848 4.85159 4.70323
O 1.85316 7.8962 10.0489
O -0.494614 2.22792 4.68999
O 2.89714 10.1679 9.99172
N 3.15241 10.0907 7.3856
N -0.226234 2.48462 2.10614
N 1.60276 7.83393 7.44582
N 5.30613 4.6765 2.11185
C 3.19969 11.2905 5.29666
C -0.197725 1.08166 0.158407
H 2.70554 11.5922 4.38626
H 6.23812 0.958439 9.70459
C 4.49128 1.08842 5.58133
C 1.16383 11.476 0.349
C 5.08917 11.379 6.77396
C 1.79919 1.33041 1.45283
H 13.2489 1.33472 7.17938
H 2.84001 1.10158 1.64977
C 1.79189 6.43746 5.49425
C 5.23735 5.87483 0.0326407
H 2.36063 6.13362 4.62826
H 12.7845 5.90122 9.6264
C 2.35957 7.32817 6.42094
C 5.95636 5.1217 0.975406
H 3.3863 7.64641 6.29532
H -0.103841 4.94818 1.00345
C 2.50921 10.5061 6.23439
C -0.887648 1.95483 1.0134
H 5.17777 2.14205 1.00358
C 4.41916 10.5323 7.64654
C 1.09993 2.16612 2.31237
H 4.8782 10.2893 8.58305
H 1.6138 2.54093 3.18123
C 0.307626 7.38884 7.61886
C 3.99621 5.05789 2.32571
H 3.46118 4.68001 3.18214
C -0.236842 6.42717 6.77779
C 3.34527 5.96558 1.49027
H 5.92069 6.03563 7.05448
H 2.33067 6.27366 1.71526
C 0.479299 5.97366 5.68891
C 3.97544 6.40099 0.340942
C 5.18951 2.00043 4.65245
C 1.68201 10.7325 9.77815
C -0.178595 5.07732 4.71934
C 3.06646 7.32276 9.84577
Ni 9.62316 8.99665 8.77662
Ni -0.979302 3.50877 3.5321
O 7.44835 4.63192 3.65954
O 11.0137 7.95573 8.92814
O 12.0848 2.47181 3.5975
O 8.24099 10.0742 8.85012
O 13.0986 4.52742 4.9099
O 9.14414 7.87574 10.1051
O 6.39627 2.54921 4.89795
O 10.0985 10.1963 10.0313
N 10.4345 10.1068 7.40357
N 6.84851 2.3385 2.30824
N 8.82054 7.78037 7.49356
N 12.7273 4.81864 2.3191
C 10.8703 10.7517 5.11305
C 6.93732 1.16714 0.191793
H 10.6168 10.6449 4.06757
H -0.88984 11.4467 9.69993
C 12.0205 11.4829 5.48638
C 8.2965 11.4939 0.40054
C 12.3776 11.4574 6.83289
C 8.86071 1.15191 1.62018
H 6.0739 1.08224 7.03622
H 9.84041 11.4314 1.87613
C 8.67811 6.85461 5.28809
C 12.6449 5.93132 0.177653
H 8.98658 7.01728 4.2661
H 5.33602 5.87265 9.46783
C 9.45333 7.37539 6.35219
C 13.3778 5.2678 1.19982
H 10.4933 7.62618 6.18867
C 9.97982 10.2627 6.11591
C 6.20547 1.86117 1.19398
C 11.6407 10.6697 7.73999
C 8.1559 1.93637 2.54771
H 12.0431 10.4867 8.71192
C 7.52772 7.32282 7.722
C 11.4446 5.29021 2.56621
C 6.90712 6.42451 6.82868
C 10.7858 6.14576 1.66611
H 13.2261 6.12495 6.90925
H 9.8149 6.55295 1.92215
C 7.4475 6.23296 5.56559
C 11.3506 6.44346 0.443379
C 12.75 1.71938 4.49029
C 8.86157 10.7414 9.81412
C 6.75426 5.36257 4.54301
C 10.3784 7.31829 9.90381
S 0.776839 10.3123 6.02324
H 0.392069 9.21227 5.3075
S 12.15 2.68821 0.359701
H 10.9536 2.4097 0.912517
S -0.785299 8.21182 8.68299
H -0.563022 8.05812 10.0219
S 7.50857 4.47225 0.451513
H 8.63697 4.80258 1.1201
S 8.26741 10.0883 5.73879
H 6.93905 9.95412 5.44654
S 8.84572 2.09726 4.13279
H 9.89088 2.55565 4.85346
S 6.49022 8.13935 8.85006
H 6.72004 7.97202 10.1858
S 10.6337 4.93146 4.04902
H 9.99197 4.647 5.22127
116
Atoms. Timestep: 13451
Ni 2.39735 9.04489 8.79249
Ni 5.99169 3.57593 3.49765
O 0.498581 4.51501 3.76988
O 3.76824 7.9895 8.98595
O 4.59497 2.54083 3.6347
O 1.03126 10.1316 8.82422
O 5.47005 4.78666 4.70799
O 1.86351 7.98744 10.1297
O -0.479613 2.23986 4.77268
O 2.90809 10.2584 9.9924
N 3.20428 10.0819 7.40509
N -0.213633 2.4723 2.18601
N 1.63558 7.82647 7.53903
N 5.20706 4.64244 2.1228
C 3.31041 11.1769 5.26111
C -0.133714 1.36335 0.0489861
H 2.86591 11.3732 4.29504
H 6.30767 1.22131 9.51019
C 4.57518 1.03032 5.57017
C 1.21643 1.02894 0.25219
C 5.13025 11.4052 6.80639
C 1.83621 1.44216 1.41692
H 13.3185 1.21172 7.20938
H 2.87556 1.20058 1.60362
C 1.84352 6.36784 5.63457
C 5.02779 5.6273 -0.0579088
H 2.44363 5.9914 4.82205
H 12.5507 5.59306 9.51218
C 2.40681 7.26758 6.55365
C 5.79778 4.98307 0.928746
H 3.4464 7.54899 6.45364
H -0.247314 4.68203 0.853887
C 2.59147 10.4488 6.22182
C -0.861831 2.03164 1.05334
H 5.17758 2.30508 0.838552
C 4.47511 10.5264 7.66786
C 1.1122 2.15233 2.36987
H 4.95287 10.2547 8.59398
H 1.61265 2.44446 3.28013
C 0.329726 7.40357 7.70465
C 3.91098 5.03813 2.36484
H 3.39973 4.68443 3.24533
C -0.237094 6.47999 6.8306
C 3.25081 5.92972 1.51584
H 6.02432 5.80575 7.11388
H 2.28584 6.33308 1.79892
C 0.503054 5.97846 5.77157
C 3.83097 6.26729 0.303244
C 5.25816 1.93435 4.61867
C 1.70072 10.8279 9.74109
C -0.146492 5.08454 4.78947
C 3.06819 7.39729 9.95198
Ni 9.5815 8.96411 8.75431
Ni -0.957776 3.52013 3.60358
O 7.38431 4.65543 3.59647
O 10.9965 7.92816 8.90997
O 12.1061 2.51476 3.68518
O 8.17649 10.0037 8.82522
O 13.1363 4.53824 4.9735
O 9.11307 7.81249 10.0588
O 6.47391 2.501 4.83057
O 10.0212 10.1436 10.0327
N 10.4073 10.1207 7.41931
N 6.79696 2.33809 2.22592
N 8.79369 7.76881 7.43717
N 12.7445 4.83561 2.3567
C 10.7851 10.9282 5.17406
C 6.92626 1.28953 0.0541854
H 10.509 10.865 4.13297
H -0.853515 1.08784 9.58885
C 12.0084 11.5242 5.54091
C 8.17864 11.3853 0.378412
C 12.4088 11.3997 6.86745
C 8.57751 11.4435 1.69695
H 6.0585 1.20353 7.11359
H 9.41672 10.8527 2.03556
C 8.5274 6.97863 5.17558
C 12.4723 5.66263 0.0867162
H 8.79313 7.12175 4.13756
H 5.1271 5.63151 9.3744
C 9.33012 7.54687 6.20064
C 13.2632 5.04727 1.10127
H 10.3248 7.89602 5.97174
C 9.91006 10.42 6.1709
C 6.18702 1.98052 1.04948
C 11.6453 10.6208 7.76237
C 8.00411 1.73883 2.544
H 12.0489 10.4104 8.73784
C 7.55062 7.21336 7.7205
C 11.553 5.48755 2.67878
C 6.93661 6.3144 6.82609
C 10.9125 6.35312 1.75969
H 13.2247 6.18365 6.95975
H 10.0717 6.95367 2.08241
C 7.3807 6.24131 5.51456
C 11.3124 6.39037 0.431555
C 12.7573 1.7529 4.56894
C 8.77385 10.6652 9.80444
C 6.69304 5.3507 4.50952
C 10.3502 7.26729 9.87357
S 0.886965 10.1545 5.9251
H 0.733121 9.16135 4.99433
S 11.9006 2.17517 0.871562
H 11.39 1.04312 1.43122
S -0.695524 8.08082 8.9487
H -0.485043 7.53473 10.1823
S 7.52962 4.80926 0.677373
H 8.14809 5.88549 1.24481
S 8.18323 10.4396 5.86844
H 7.8725 9.69251 4.76396
S 9.05802 2.46694 3.69556
H 9.86078 3.13891 2.82617
S 6.54031 7.89536 8.96885
H 6.75229 7.46815 10.2452
S 10.7418 5.21081 4.19523
H 11.2789 6.05577 5.12295
116
Atoms. Timestep: 13460
Ni 2.39532 9.01694 8.79487
Ni 5.99126 3.60419 3.49634
O 0.493651 4.53893 3.76596
O 3.76458 7.96688 8.98509
O 4.59629 2.57331 3.63041
O 1.03162 10.0982 8.82225
O 5.46649 4.80972 4.70588
O 1.85773 7.96397 10.1307
O -0.481042 2.27224 4.77075
O 2.90893 10.2254 9.99343
N 3.19875 10.0492 7.41175
N -0.219572 2.50338 2.18949
N 1.63606 7.80417 7.5484
N 5.20984 4.66641 2.12599
C 3.30874 11.1263 5.2608
C -0.137155 1.41332 0.044878
H 2.86435 11.321 4.29347
H 6.30786 1.27319 9.51231
C 4.5747 1.08344 5.5703
C 1.21349 1.08406 0.24908
C 5.13045 11.3533 6.80668
C 1.83381 1.49164 1.41441
H 13.3247 1.26531 7.21019
H 2.87425 1.25216 1.60083
C 1.84049 6.36494 5.63326
C 5.02694 5.63185 -0.0612106
H 2.44106 5.99271 4.81991
H 12.5544 5.5989 9.51457
C 2.40562 7.25605 6.55556
C 5.79877 4.99724 0.926826
H 3.44535 7.53632 6.45534
H -0.24944 4.69862 0.851301
C 2.58833 10.4061 6.22317
C -0.866551 2.0732 1.05127
H 5.17583 2.34556 0.836275
C 4.47349 10.4821 7.67011
C 1.109 2.19422 2.36907
H 4.95111 10.213 8.59736
H 1.60988 2.48385 3.28015
C 0.32659 7.3912 7.70781
C 3.91007 5.05049 2.36365
H 3.3988 4.69939 3.24566
C -0.240798 6.47628 6.8304
C 3.24824 5.93369 1.51273
H 6.02162 5.8081 7.1141
H 2.28201 6.33378 1.79582
C 0.49966 5.9804 5.77079
C 3.82858 6.26559 0.299903
C 5.25763 1.97422 4.61917
C 1.69818 10.7874 9.74486
C -0.149616 5.10053 4.78962
C 3.06601 7.38271 9.95587
Ni 9.58372 8.93708 8.75603
Ni -0.96151 3.54827 3.60219
O 7.38198 4.67798 3.59137
O 10.9973 7.90597 8.90887
O 12.1114 2.54937 3.68001
O 8.1812 9.97265 8.82369
O 13.1386 4.56258 4.97124
O 9.1117 7.78899 10.0601
O 6.47677 2.53268 4.82841
O 10.026 10.1121 10.0344
N 10.4061 10.0889 7.42473
N 6.79286 2.37214 2.22898
N 8.79896 7.74607 7.44263
N 12.7535 4.85785 2.35889
C 10.7873 10.8792 5.17437
C 6.92663 1.34004 0.0503524
H 10.5114 10.8166 4.13189
H -0.857098 1.1405 9.59032
C 12.0124 11.4681 5.54211
C 8.18047 11.3331 0.375288
C 12.4136 11.3481 6.86797
C 8.57998 11.3863 1.69245
H 6.06015 1.25739 7.114
H 9.42135 10.8022 2.03251
C 8.52859 6.97235 5.17606
C 12.4758 5.66728 0.0837009
H 8.79485 7.11403 4.1364
H 5.12606 5.63665 9.37672
C 9.33371 7.5313 6.20257
C 13.2693 5.06147 1.09953
H 10.3283 7.87859 5.97276
C 9.91044 10.3801 6.17281
C 6.18487 2.02235 1.04803
C 11.6485 10.5767 7.76425
C 8.00505 1.78257 2.5421
H 12.0512 10.3673 8.74095
C 7.55081 7.20099 7.72173
C 11.5555 5.49692 2.67701
C 6.93544 6.31066 6.82526
C 10.9131 6.35444 1.75631
H 13.2279 6.18333 6.95982
H 10.0708 6.94958 2.07965
C 7.38008 6.24251 5.51536
C 11.3142 6.38803 0.429213
C 12.7611 1.79358 4.5699
C 8.77538 10.6258 9.80926
C 6.69278 5.36558 4.51077
C 10.3525 7.25238 9.87823
S 0.883345 10.1194 5.92742
H 0.729288 9.12846 4.9911
S 11.9048 2.22052 0.865965
H 11.3911 1.09185 1.43125
S -0.700952 8.06393 8.95247
H -0.487948 7.5213 10.1871
S 7.52969 4.82147 0.671561
H 8.15131 5.89353 1.24462
S 8.18418 10.4004 5.87004
H 7.8727 9.65622 4.76143
S 9.05745 2.50687 3.69732
H 9.86364 3.17101 2.82277
S 6.5398 7.88066 8.97246
H 6.75303 7.45624 10.2495
S 10.745 5.21997 4.19415
H 11.2833 6.05999 5.12497
116
Atoms. Timestep: 15732
Ni 2.39586 9.02754 8.79616
Ni 5.98932 3.60298 3.4923
O 0.49571 4.53325 3.77224
O 3.76143 7.97341 8.99637
O 4.60213 2.56144 3.62663
O 1.0351 10.1169 8.81599
O 5.45851 4.80813 4.70093
O 1.85489 7.98254 10.1381
O -0.481256 2.26135 4.76801
O 2.90998 10.2445 9.98604
N 3.20546 10.0484 7.4076
N -0.219577 2.50138 2.18907
N 1.63531 7.80641 7.55323
N 5.19958 4.65996 2.12087
C 3.3347 11.0877 5.24238
C -0.126179 1.45005 0.0278854
H 2.90163 11.2615 4.26647
H 6.31546 1.27803 9.51482
C 4.59256 1.06154 5.5576
C 1.22388 1.11836 0.231402
C 5.13252 11.3606 6.80645
C 1.83551 1.50022 1.4101
H 13.3282 1.26202 7.20015
H 2.87415 1.25603 1.59742
C 1.84595 6.34652 5.65452
C 5.00934 5.62152 -0.0652048
H 2.44704 5.96709 4.84422
H 12.5626 5.5905 9.52401
C 2.40969 7.23941 6.57561
C 5.78627 4.99592 0.924352
H 3.45155 7.51411 6.48074
H -0.234239 4.7232 0.872136
C 2.60362 10.3899 6.21207
C -0.861961 2.08441 1.04514
H 5.17291 2.32382 0.847186
C 4.4732 10.4967 7.67437
C 1.10309 2.17506 2.37745
H 4.94465 10.2374 8.60682
H 1.59671 2.4455 3.29829
C 0.328072 7.38845 7.71778
C 3.89975 5.04263 2.36177
H 3.39252 4.68906 3.24442
C -0.238082 6.46741 6.84425
C 3.22998 5.91763 1.50698
H 6.00984 5.80492 7.10677
H 2.26205 6.31533 1.78815
C 0.502681 5.96928 5.7848
C 3.80823 6.25259 0.29414
C 5.27068 1.95907 4.60742
C 1.7068 10.8169 9.72761
C -0.150269 5.09877 4.79253
C 3.05888 7.39092 9.9641
Ni 9.58185 8.93393 8.7565
Ni -0.960171 3.54211 3.60501
O 7.37237 4.6887 3.58804
O 10.9926 7.89576 8.90724
O 12.1129 2.54022 3.68163
O 8.18361 9.97485 8.82697
O 13.142 4.55248 4.9756
O 9.1098 7.78451 10.0579
O 6.48095 2.53429 4.82299
O 10.028 10.1075 10.0343
N 10.4065 10.0869 7.42542
N 6.79946 2.37403 2.22506
N 8.79023 7.74629 7.44251
N 12.7535 4.85851 2.36386
C 10.7864 10.8688 5.17578
C 6.93044 1.33645 0.0539351
H 10.5068 10.8014 4.13575
H -0.841493 1.19053 9.56696
C 12.0162 11.4519 5.53635
C 8.18805 11.3356 0.374586
C 12.4159 11.3419 6.86355
C 8.58732 11.3858 1.69222
H 6.05191 1.2836 7.11748
H 9.43007 10.7981 2.02713
C 8.5172 6.98244 5.177
C 12.4807 5.66481 0.0903559
H 8.78414 7.13293 4.14008
H 5.10909 5.6253 9.37389
C 9.32574 7.52801 6.20636
C 13.2769 5.07301 1.11167
H 10.3223 7.87232 5.98089
C 9.90862 10.3834 6.17754
C 6.18683 2.01026 1.05304
C 11.6451 10.5849 7.76704
C 8.01079 1.78296 2.54153
H 12.0447 10.3868 8.74679
C 7.54397 7.19699 7.72397
C 11.5569 5.50261 2.68068
C 6.92449 6.31172 6.82286
C 10.908 6.34956 1.7534
H 13.2302 6.17539 6.96947
H 10.0635 6.94815 2.07039
C 7.3643 6.25498 5.50986
C 11.3097 6.37683 0.426556
C 12.765 1.77603 4.5616
C 8.78293 10.632 9.8057
C 6.67756 5.37847 4.50079
C 10.3452 7.23698 9.87036
S 0.895241 10.1177 5.91683
H 0.726554 9.11588 4.99805
S 11.9059 2.19978 0.872057
H 11.4202 1.05591 1.43041
S -0.702159 8.07819 8.95186
H -0.496684 7.54851 10.1934
S 7.52001 4.83823 0.673197
H 8.12794 5.91454 1.25147
S 8.18171 10.421 5.87985
H 7.8604 9.68746 4.76935
S 9.06514 2.51938 3.68767
H 9.86558 3.19149 2.81603
S 6.53282 7.88422 8.96925
H 6.74228 7.4775 10.2523
S 10.7576 5.2485 4.20619
H 11.3175 6.09943 5.11405
116
Atoms. Timestep: 15738
Ni 2.39313 9.01629 8.80209
Ni 5.98901 3.61413 3.49055
O 0.490675 4.54256 3.76996
O 3.7583 7.9645 9.00124
O 4.60249 2.57471 3.62387
O 1.0334 10.103 8.82012
O 5.45728 4.81621 4.698
O 1.85122 7.97371 10.143
O -0.485197 2.27552 4.76529
O 2.9084 10.2301 9.99062
N 3.20225 10.0352 7.4126
N -0.224468 2.51413 2.18655
N 1.63352 7.79822 7.5599
N 5.1998 4.66919 2.11811
C 3.3329 11.0674 5.24343
C -0.130051 1.47019 0.0211514
H 2.89973 11.2407 4.26581
H 6.31553 1.29876 9.52184
C 4.5915 1.08292 5.55817
C 1.22065 1.13991 0.224418
C 5.13194 11.3399 6.80837
C 1.83258 1.51986 1.40458
H 13.3329 1.28301 7.20273
H 2.87193 1.27658 1.59204
C 1.84281 6.34607 5.65536
C 5.00837 5.62326 -0.0715791
H 2.4442 5.96824 4.84386
H 12.5663 5.59303 9.53116
C 2.40684 7.23488 6.57787
C 5.78611 5.00131 0.918722
H 3.44961 7.50915 6.48308
H -0.238192 4.72964 0.866336
C 2.60112 10.3728 6.21405
C -0.866348 2.10123 1.03969
H 5.17214 2.34007 0.841403
C 4.47135 10.4794 7.67725
C 1.09947 2.19148 2.37277
H 4.94313 10.2211 8.61138
H 1.59344 2.46102 3.29522
C 0.324483 7.38307 7.72099
C 3.89878 5.04786 2.35711
H 3.3911 4.69558 3.24149
C -0.242192 6.46619 6.84628
C 3.22802 5.91924 1.50126
H 6.00918 5.80634 7.10914
H 2.25935 6.31545 1.78288
C 0.498845 5.97013 5.78518
C 3.80654 6.25222 0.287277
C 5.26974 1.97546 4.60761
C 1.70336 10.8001 9.73538
C -0.153943 5.10476 4.79267
C 3.05667 7.38554 9.97136
Ni 9.58381 8.92299 8.76219
Ni -0.964657 3.55313 3.60338
O 7.37146 4.69712 3.58468
O 10.9943 7.88727 8.91191
O 12.1176 2.55432 3.67811
O 8.18645 9.96193 8.83144
O 13.1458 4.5616 4.97301
O 9.11073 7.77611 10.0626
O 6.48171 2.54773 4.8202
O 10.0309 10.094 10.0391
N 10.4079 10.0737 7.43011
N 6.79831 2.38847 2.22329
N 8.79282 7.73802 7.4475
N 12.7591 4.86662 2.36147
C 10.7891 10.8492 5.17693
C 6.93103 1.35694 0.0473406
H 10.5095 10.7824 4.13515
H -0.845845 1.21162 9.57374
C 12.0197 11.43 5.53729
C 8.18925 11.3148 0.367716
C 12.4201 11.3213 6.86558
C 8.58943 11.3636 1.68627
H 6.05193 1.30461 7.11986
H 9.43254 10.7786 2.02218
C 8.51845 6.97995 5.1783
C 12.4845 5.66671 0.0842511
H 8.78565 7.12953 4.13945
H 5.10795 5.62757 9.38079
C 9.32752 7.52223 6.20823
C 13.2813 5.07831 1.10621
H 10.3248 7.8655 5.98249
C 9.91072 10.3671 6.17959
C 6.18683 2.02715 1.04737
C 11.648 10.5675 7.76959
C 8.01141 1.80018 2.53601
H 12.0477 10.3699 8.7514
C 7.54495 7.19214 7.72599
C 11.5604 5.50627 2.67582
C 6.92411 6.31069 6.8244
C 10.9101 6.34985 1.74806
H 13.2345 6.17547 6.97173
H 10.0653 6.94592 2.06554
C 7.36476 6.25527 5.51056
C 11.3129 6.37613 0.419959
C 12.769 1.79279 4.56227
C 8.78403 10.6155 9.81398
C 6.67781 5.38374 4.50142
C 10.3477 7.23165 9.8786
S 0.891977 10.1028 5.9187
H 0.722853 9.10347 4.99725
S 11.9101 2.21748 0.865583
H 11.4229 1.07618 1.42568
S -0.70656 8.07058 8.9577
H -0.500947 7.54334 10.2004
S 7.52026 4.84341 0.666432
H 8.12959 5.91696 1.24644
S 8.18301 10.4044 5.88116
H 7.86128 9.67332 4.76866
S 9.06601 2.53502 3.68563
H 9.86789 3.20409 2.81252
S 6.53318 7.87749 8.97519
H 6.74245 7.47278 10.2591
S 10.7611 5.2526 4.20393
H 11.3209 6.10043 5.11424
116
Atoms. Timestep: 17954
Ni 2.39285 9.0183 8.80032
Ni 5.98958 3.6139 3.48959
O 0.490885 4.54059 3.76872
O 3.75708 7.96399 9.00155
O 4.60484 2.57032 3.62274
O 1.03363 10.1086 8.81814
O 5.45604 4.81683 4.69835
O 1.84979 7.97539 10.1424
O -0.486648 2.27072 4.76446
O 2.90783 10.235 9.98889
N 3.20323 10.0364 7.41218
N -0.225634 2.50993 2.18697
N 1.63244 7.79752 7.55871
N 5.19903 4.66918 2.11906
C 3.34051 11.0556 5.23913
C -0.127357 1.47955 0.0169179
H 2.91092 11.2216 4.26016
H 6.31751 1.30112 9.5259
C 4.59667 1.07601 5.55516
C 1.22285 1.1488 0.220014
C 5.13116 11.3443 6.80878
C 1.83157 1.51927 1.40377
H 13.3321 1.28575 7.19841
H 2.87013 1.27461 1.59093
C 1.84353 6.34019 5.65902
C 5.00639 5.62018 -0.0705256
H 2.44477 5.96136 4.84862
H 12.5695 5.58817 9.53413
C 2.40776 7.22901 6.58278
C 5.7851 5.00258 0.921699
H 3.45047 7.50127 6.49022
H -0.233951 4.73554 0.872441
C 2.60509 10.369 6.21255
C -0.865915 2.10134 1.03913
H 5.17194 2.33261 0.848469
C 4.46968 10.4868 7.68028
C 1.09597 2.18128 2.37658
H 4.93904 10.2323 8.61498
H 1.58752 2.44477 3.30063
C 0.324543 7.38123 7.72188
C 3.89825 5.04887 2.35885
H 3.39183 4.69638 3.24232
C -0.241467 6.46219 6.84701
C 3.22542 5.91668 1.4999
H 6.00466 5.80595 7.10541
H 2.25595 6.31217 1.77891
C 0.499196 5.96702 5.7862
C 3.80304 6.24799 0.285949
C 5.27472 1.9688 4.60292
C 1.70572 10.8085 9.72944
C -0.155599 5.10608 4.78871
C 3.05327 7.38286 9.96879
Ni 9.58322 8.92295 8.76192
Ni -0.965203 3.55044 3.60162
O 7.36997 4.70127 3.58551
O 10.993 7.884 8.91059
O 12.1169 2.5497 3.6779
O 8.18695 9.96438 8.83339
O 13.1461 4.56 4.9712
O 9.11045 7.77366 10.0619
O 6.48348 2.54634 4.81922
O 10.0317 10.0943 10.0399
N 10.4069 10.0755 7.43172
N 6.80121 2.38798 2.22282
N 8.79008 7.738 7.44845
N 12.7588 4.86618 2.36031
C 10.7871 10.8459 5.17927
C 6.93254 1.3562 0.0503612
H 10.5061 10.7752 4.1397
H -0.841372 1.2267 9.56809
C 12.0193 11.4252 5.53646
C 8.19249 11.3165 0.368452
C 12.4189 11.322 6.86424
C 8.59267 11.3633 1.68582
H 6.04778 1.3158 7.12047
H 9.43693 10.7766 2.01873
C 8.51707 6.98238 5.18147
C 12.4864 5.6647 0.0848439
H 8.7846 7.13709 4.14519
H 5.10677 5.62194 9.38379
C 9.32679 7.51966 6.2133
C 13.2839 5.08069 1.10902
H 10.3242 7.86201 5.99012
C 9.90865 10.3697 6.18375
C 6.18758 2.02306 1.05192
C 11.6459 10.5733 7.77188
C 8.01437 1.79993 2.53761
H 12.0447 10.3799 8.7529
C 7.54205 7.19155 7.72798
C 11.5604 5.508 2.67441
C 6.92093 6.31126 6.82379
C 10.9092 6.34852 1.74384
H 13.2354 6.17152 6.97054
H 10.0641 6.94735 2.05877
C 7.36099 6.25928 5.51075
C 11.3117 6.3718 0.417448
C 12.7688 1.78599 4.55831
C 8.78702 10.6195 9.81248
C 6.67418 5.38881 4.49879
C 10.3455 7.2256 9.87377
S 0.89498 10.1065 5.91892
H 0.719233 9.1022 5.00418
S 11.9102 2.20565 0.86957
H 11.4349 1.05719 1.42765
S -0.707871 8.07431 8.95261
H -0.503389 7.55026 10.1966
S 7.51974 4.85161 0.672574
H 8.12154 5.93013 1.25299
S 8.18167 10.4134 5.88831
H 7.85611 9.6833 4.77677
S 9.06823 2.53769 3.68355
H 9.86962 3.20885 2.8121
S 6.53014 7.88037 8.97201
H 6.7404 7.48156 10.2572
S 10.7656 5.26437 4.20329
H 11.3339 6.12062 5.10068
116
Atoms. Timestep: 17955
Ni 2.39285 9.0183 8.80032
Ni 5.98958 3.6139 3.48959
O 0.490885 4.54059 3.76872
O 3.75708 7.96399 9.00155
O 4.60484 2.57032 3.62274
O 1.03363 10.1086 8.81814
O 5.45604 4.81683 4.69835
O 1.84979 7.97539 10.1424
O -0.486648 2.27072 4.76446
O 2.90783 10.235 9.98889
N 3.20323 10.0364 7.41218
N -0.225634 2.50993 2.18697
N 1.63244 7.79752 7.55871
N 5.19903 4.66918 2.11906
C 3.34051 11.0556 5.23913
C -0.127357 1.47955 0.0169179
H 2.91092 11.2216 4.26016
H 6.31751 1.30112 9.5259
C 4.59667 1.07601 5.55516
C 1.22285 1.1488 0.220014
C 5.13116 11.3443 6.80878
C 1.83157 1.51927 1.40377
H 13.3321 1.28575 7.19841
H 2.87013 1.27461 1.59093
C 1.84353 6.34019 5.65902
C 5.00639 5.62018 -0.0705256
H 2.44477 5.96136 4.84862
H 12.5695 5.58817 9.53413
C 2.40776 7.22901 6.58278
C 5.7851 5.00258 0.921699
H 3.45047 7.50127 6.49022
H -0.233951 4.73554 0.872441
C 2.60509 10.369 6.21255
C -0.865915 2.10134 1.03913
H 5.17194 2.33261 0.848469
C 4.46968 10.4868 7.68028
C 1.09597 2.18128 2.37658
H 4.93904 10.2323 8.61498
H 1.58752 2.44477 3.30063
C 0.324543 7.38123 7.72188
C 3.89825 5.04887 2.35885
H 3.39183 4.69638 3.24232
C -0.241467 6.46219 6.84701
C 3.22542 5.91668 1.4999
H 6.00466 5.80595 7.10541
H 2.25595 6.31217 1.77891
C 0.499196 5.96702 5.7862
C 3.80304 6.24799 0.285949
C 5.27472 1.9688 4.60292
C 1.70572 10.8085 9.72944
C -0.155599 5.10608 4.78871
C 3.05327 7.38286 9.96879
Ni 9.58322 8.92295 8.76192
Ni -0.965203 3.55044 3.60162
O 7.36997 4.70127 3.58551
O 10.993 7.884 8.91059
O 12.1169 2.5497 3.6779
O 8.18695 9.96438 8.83339
O 13.1461 4.56 4.9712
O 9.11045 7.77366 10.0619
O 6.48348 2.54634 4.81922
O 10.0317 10.0943 10.0399
N 10.4069 10.0755 7.43172
N 6.80121 2.38798 2.22282
N 8.79008 7.738 7.44845
N 12.7588 4.86618 2.36031
C 10.7871 10.8459 5.17927
C 6.93254 1.3562 0.0503612
H 10.5061 10.7752 4.1397
H -0.841372 1.2267 9.56809
C 12.0193 11.4252 5.53646
C 8.19249 11.3165 0.368452
C 12.4189 11.322 6.86424
C 8.59267 11.3633 1.68582
H 6.04778 1.3158 7.12047
H 9.43693 10.7766 2.01873
C 8.51707 6.98238 5.18147
C 12.4864 5.6647 0.0848439
H 8.7846 7.13709 4.14519
H 5.10677 5.62194 9.38379
C 9.32679 7.51966 6.2133
C 13.2839 5.08069 1.10902
H 10.3242 7.86201 5.99012
C 9.90865 10.3697 6.18375
C 6.18758 2.02306 1.05192
C 11.6459 10.5733 7.77188
C 8.01437 1.79993 2.53761
H 12.0447 10.3799 8.7529
C 7.54205 7.19155 7.72798
C 11.5604 5.508 2.67441
C 6.92093 6.31126 6.82379
C 10.9092 6.34852 1.74384
H 13.2354 6.17152 6.97054
H 10.0641 6.94735 2.05877
C 7.36099 6.25928 5.51075
C 11.3117 6.3718 0.417448
C 12.7688 1.78599 4.55831
C 8.78702 10.6195 9.81248
C 6.67418 5.38881 4.49879
C 10.3455 7.2256 9.87377
S 0.89498 10.1065 5.91892
H 0.719233 9.1022 5.00418
S 11.9102 2.20565 0.86957
H 11.4349 1.05719 1.42765
S -0.707871 8.07431 8.95261
H -0.503389 7.55026 10.1966
S 7.51974 4.85161 0.672574
H 8.12154 5.93013 1.25299
S 8.18167 10.4134 5.88831
H 7.85611 9.6833 4.77677
S 9.06823 2.53769 3.68355
H 9.86962 3.20885 2.8121
S 6.53014 7.88037 8.97201
H 6.7404 7.48156 10.2572
S 10.7656 5.26437 4.20329
H 11.3339 6.12062 5.10068
116
Atoms. Timestep: 18010
Ni 2.39285 9.0183 8.80032
Ni 5.98958 3.6139 3.48959
O 0.490885 4.54059 3.76872
O 3.75708 7.96399 9.00155
O 4.60484 2.57032 3.62274
O 1.03363 10.1086 8.81814
O 5.45604 4.81683 4.69835
O 1.84979 7.97539 10.1424
O -0.486648 2.27072 4.76446
O 2.90783 10.235 9.98889
N 3.20323 10.0364 7.41218
N -0.225634 2.50993 2.18697
N 1.63244 7.79752 7.55871
N 5.19903 4.66918 2.11906
C 3.34051 11.0556 5.23913
C -0.127357 1.47955 0.0169177
H 2.91092 11.2216 4.26016
H 6.31751 1.30112 9.5259
C 4.59667 1.07601 5.55516
C 1.22285 1.1488 0.220014
C 5.13116 11.3443 6.80878
C 1.83157 1.51927 1.40377
H 13.3321 1.28575 7.19841
H 2.87013 1.27461 1.59093
C 1.84353 6.34019 5.65902
C 5.00639 5.62018 -0.0705256
H 2.44477 5.96136 4.84862
H 12.5695 5.58817 9.53413
C 2.40776 7.22901 6.58278
C 5.7851 5.00258 0.921699
H 3.45047 7.50127 6.49022
H -0.233951 4.73554 0.872441
C 2.60509 10.369 6.21255
C -0.865915 2.10134 1.03913
H 5.17194 2.33261 0.848469
C 4.46968 10.4868 7.68028
C 1.09597 2.18127 2.37658
H 4.93904 10.2323 8.61498
H 1.58752 2.44477 3.30063
C 0.324543 7.38123 7.72188
C 3.89825 5.04887 2.35885
H 3.39183 4.69638 3.24232
C -0.241466 6.46219 6.84701
C 3.22542 5.91668 1.4999
H 6.00466 5.80595 7.10541
H 2.25595 6.31217 1.77891
C 0.499197 5.96702 5.7862
C 3.80304 6.24799 0.285949
C 5.27472 1.96881 4.60292
C 1.70572 10.8085 9.72944
C -0.155598 5.10608 4.78871
C 3.05327 7.38286 9.96879
Ni 9.58322 8.92295 8.76192
Ni -0.965202 3.55044 3.60162
O 7.36997 4.70127 3.58551
O 10.993 7.884 8.91059
O 12.1169 2.5497 3.6779
O 8.18695 9.96438 8.83339
O 13.1461 4.56 4.9712
O 9.11045 7.77366 10.0619
O 6.48348 2.54634 4.81922
O 10.0317 10.0943 10.0399
N 10.4069 10.0755 7.43172
N 6.80121 2.38798 2.22282
N 8.79008 7.738 7.44845
N 12.7588 4.86618 2.36031
C 10.7871 10.8459 5.17927
C 6.93254 1.3562 0.0503614
H 10.5061 10.7752 4.1397
H -0.841372 1.2267 9.56809
C 12.0193 11.4252 5.53646
C 8.19249 11.3165 0.368452
C 12.4189 11.322 6.86424
C 8.59267 11.3633 1.68582
H 6.04778 1.3158 7.12047
H 9.43693 10.7766 2.01873
C 8.51707 6.98238 5.18147
C 12.4864 5.6647 0.0848439
H 8.7846 7.13709 4.14519
H 5.10677 5.62193 9.38379
C 9.32679 7.51966 6.2133
C 13.2839 5.08069 1.10902
H 10.3242 7.86201 5.99012
C 9.90865 10.3697 6.18375
C 6.18758 2.02306 1.05192
C 11.6459 10.5733 7.77188
C 8.01437 1.79993 2.53761
H 12.0447 10.3799 8.7529
C 7.54205 7.19155 7.72798
C 11.5604 5.508 2.67441
C 6.92093 6.31126 6.82379
C 10.9092 6.34852 1.74384
H 13.2354 6.17152 6.97054
H 10.0641 6.94735 2.05877
C 7.36099 6.25928 5.51075
C 11.3117 6.3718 0.417448
C 12.7688 1.78599 4.55831