ITEM: TIMESTEP
0
ITEM: NUMBER OF ATOMS
116
ITEM: BOX BOUNDS xy xz yz pp pp pp
-2.3217287849576024e-01 1.4514381903286001e+01 0.0000000000000000e+00
0.0000000000000000e+00 1.0510534014934100e+01 -2.3217287849576024e-01
0.0000000000000000e+00 1.0480983373456899e+01 0.0000000000000000e+00
ITEM: ATOMS id type x y z
1 1 2.39285 9.0183 8.80032
2 1 5.98958 3.6139 3.48959
3 2 0.490885 4.54059 3.76872
4 2 3.75708 7.96399 9.00155
5 2 4.60484 2.57032 3.62274
6 2 1.03363 10.1086 8.81814
7 2 5.45604 4.81683 4.69835
8 2 1.84979 7.97539 10.1424
9 2 14.0277 2.27072 4.76446
10 2 2.90783 10.235 9.98889
11 3 3.20323 10.0364 7.41218
12 3 14.2887 2.50993 2.18697
13 3 1.63244 7.79752 7.55871
14 3 5.19903 4.66918 2.11906
15 4 3.34051 0.545105 5.23913
16 4 14.387 1.47955 0.0169177
17 5 2.91092 0.711021 4.26016
18 5 6.31751 1.30112 9.5259
19 4 4.59667 1.07601 5.55516
20 4 1.22285 1.1488 0.220014
21 4 5.13116 0.833742 6.80878
22 4 1.83157 1.51927 1.40377
23 5 13.3321 1.28575 7.19841
24 5 2.87013 1.27461 1.59093
25 4 1.84353 6.34019 5.65902
26 4 4.77422 5.62018 10.4105
27 5 2.44477 5.96136 4.84862
28 5 12.5695 5.58817 9.53413
29 4 2.40776 7.22901 6.58278
30 4 5.7851 5.00258 0.921699
31 5 3.45047 7.50127 6.49022
32 5 14.2804 4.73554 0.872441
33 4 2.60509 10.369 6.21255
34 4 13.6485 2.10134 1.03913
35 5 5.17194 2.33261 0.848469
36 4 4.46968 10.4868 7.68028
37 4 1.09597 2.18127 2.37658
38 5 4.93904 10.2323 8.61498
39 5 1.58752 2.44477 3.30063
40 4 0.324543 7.38123 7.72188
41 4 3.89825 5.04887 2.35885
42 5 3.39183 4.69638 3.24232
43 4 14.2729 6.46219 6.84701
44 4 3.22542 5.91668 1.4999
45 5 6.00466 5.80595 7.10541
46 5 2.25595 6.31217 1.77891
47 4 0.499197 5.96702 5.7862
48 4 3.80304 6.24799 0.285949
49 4 5.27472 1.96881 4.60292
50 4 1.70572 0.297938 9.72944
51 4 14.3588 5.10608 4.78871
52 4 3.05327 7.38286 9.96879
53 1 9.58322 8.92295 8.76192
54 1 13.5492 3.55044 3.60162
55 2 7.36997 4.70127 3.58551
56 2 10.993 7.884 8.91059
57 2 12.1169 2.5497 3.6779
58 2 8.18695 9.96438 8.83339
59 2 13.1461 4.56 4.9712
60 2 9.11045 7.77366 10.0619
61 2 6.48348 2.54634 4.81922
62 2 10.0317 10.0943 10.0399
63 3 10.4069 10.0755 7.43172
64 3 6.80121 2.38798 2.22282
65 3 8.79008 7.738 7.44845
66 3 12.7588 4.86618 2.36031
67 4 10.7871 0.335411 5.17927
68 4 6.93254 1.3562 0.0503614
69 5 10.5061 0.264657 4.1397
70 5 13.673 1.2267 9.56809
71 4 12.0193 0.914685 5.53646
72 4 8.19249 0.805972 0.368452
73 4 12.4189 0.811466 6.86424
74 4 8.59267 0.852746 1.68582
75 5 6.04778 1.3158 7.12047
76 5 9.43693 0.266106 2.01873
77 4 8.51707 6.98238 5.18147
78 4 12.4864 5.6647 0.0848439
79 5 8.7846 7.13709 4.14519
80 5 5.10677 5.62193 9.38379
81 4 9.32679 7.51966 6.2133
82 4 13.2839 5.08069 1.10902
83 5 10.3242 7.86201 5.99012
84 4 9.90865 10.3697 6.18375
85 4 6.18758 2.02306 1.05192
86 4 11.6459 0.0627734 7.77188
87 4 8.01437 1.79993 2.53761
88 5 12.0447 10.3799 8.7529
89 4 7.54205 7.19155 7.72798
90 4 11.5604 5.508 2.67441
91 4 6.92093 6.31126 6.82379
92 4 10.9092 6.34852 1.74384
93 5 13.2354 6.17152 6.97054
94 5 10.0641 6.94735 2.05877
95 4 7.36099 6.25928 5.51075
96 4 11.3117 6.3718 0.417448
97 4 12.7688 1.78599 4.55831
98 4 8.78702 0.108995 9.81248
99 4 6.67418 5.38881 4.49879
100 4 10.3455 7.2256 9.87377
101 6 0.89498 10.1065 5.91892
102 5 0.719233 9.1022 5.00418
103 6 11.9102 2.20565 0.869569
104 5 11.4349 1.05719 1.42765
105 6 13.8065 8.07431 8.95261
106 5 14.011 7.55026 10.1966
107 6 7.51974 4.85161 0.672574
108 5 8.12154 5.93013 1.25299
109 6 8.18167 10.4134 5.88831
110 5 7.85611 9.6833 4.77677
111 6 9.06823 2.53769 3.68355
112 5 9.86962 3.20885 2.8121
113 6 6.53014 7.88037 8.97201
114 5 6.7404 7.48156 10.2572
115 6 10.7656 5.26437 4.20329
116 5 11.3339 6.12062 5.10068
