/apps/openmpi/3.1_intel-19/bin/mpiexec
starting QE Wed Jul 8 10:22:16 PDT 2020

     Program PWSCF v.6.5 starts on  8Jul2020 at 10:22:17 

     This program is part of the open-source Quantum ESPRESSO suite
     for quantum simulation of materials; please cite
         "P. Giannozzi et al., J. Phys.:Condens. Matter 21 395502 (2009);
         "P. Giannozzi et al., J. Phys.:Condens. Matter 29 465901 (2017);
          URL http://www.quantum-espresso.org", 
     in publications or presentations arising from this work. More details at
     http://www.quantum-espresso.org/quote

     Parallel version (MPI), running on    16 processors

     MPI processes distributed on     1 nodes
     K-points division:     npool     =       2
     R & G space division:  proc/nbgrp/npool/nimage =       8
     Reading input from ./QE_input_scripts/pw.NiPyC2_relax_sc211_meta_functionalized_CH-CH2_pbesol_relax_frozen_parent_atoms_Round2.in
Warning: card &CELL ignored
Warning: card    CELL_DYNAMICS = 'BFGS' ignored
Warning: card    CELL_DOFREE = 'XYZ' ignored
Warning: card / ignored

     Current dimensions of program PWSCF are:
     Max number of different atomic species (ntypx) = 10
     Max number of k-points (npk) =  40000
     Max angular momentum in pseudopotentials (lmaxx) =  3

     -------------------------------------------------
     Parameters for Dispersion (Grimme-D2) Correction:
     -------------------------------------------------
       atom      VdW radius       C_6     

        C          2.744         60.710
        H          1.892          4.857
        N          2.640         42.670
        Ni         2.952        374.666
        O          2.536         24.284

     gamma-point specific algorithms are used

     Subspace diagonalization in iterative solution of the eigenvalue problem:
     a serial algorithm will be used

 
     Parallelization info
     --------------------
     sticks:   dense  smooth     PW     G-vecs:    dense   smooth      PW
     Min        2228    2228    556               183376   183376   22914
     Max        2230    2230    558               183380   183380   22917
     Sum       17829   17829   4453              1467017  1467017  183325
 


     bravais-lattice index     =            0
     lattice parameter (alat)  =      23.6322  a.u.
     unit-cell volume          =   10858.6596 (a.u.)^3
     number of atoms/cell      =          140
     number of atomic types    =            5
     number of electrons       =       480.00 (up: 244.00, down: 236.00)
     number of Kohn-Sham states=          293
     kinetic-energy cutoff     =     100.0000  Ry
     charge density cutoff     =     400.0000  Ry
     convergence threshold     =      1.0E-06
     mixing beta               =       0.7000
     number of iterations used =            8  local-TF  mixing
     Exchange-correlation= PBESOL
                           (   1   4  10   8   0   0   0)
     nstep                     =          200


     celldm(1)=  23.632191  celldm(2)=   0.000000  celldm(3)=   0.000000
     celldm(4)=   0.000000  celldm(5)=   0.000000  celldm(6)=   0.000000

     crystal axes: (cart. coord. in units of alat)
               a(1) = (   1.000000   0.000000   0.000000 )  
               a(2) = (   0.000000   1.001423   0.000000 )  
               a(3) = (  -0.018199   0.000000   0.821574 )  

     reciprocal axes: (cart. coord. in units 2 pi/alat)
               b(1) = (  1.000000  0.000000  0.022151 )  
               b(2) = (  0.000000  0.998579  0.000000 )  
               b(3) = (  0.000000  0.000000  1.217176 )  


     PseudoPot. # 1 for C  read from file:
     ./pseudo/C.pbesol-nc.UPF
     MD5 check sum: ce26087537ded160c8d400e183a8bf42
     Pseudo is Norm-conserving, Zval =  4.0
     Generated using "atomic" code by A. Dal Corso v.6.5
     Using radial grid of 1073 points,  1 beta functions with: 
                l(1) =   1

     PseudoPot. # 2 for H  read from file:
     ./pseudo/H.pbesol-n-nc.UPF
     MD5 check sum: 7995ef24074557c85b430109caaacc09
     Pseudo is Norm-conserving, Zval =  1.0
     Generated using "atomic" code by A. Dal Corso v.6.5
     Using radial grid of  929 points,  0 beta functions with: 

     PseudoPot. # 3 for N  read from file:
     ./pseudo/N.pbesol-nc.UPF
     MD5 check sum: e18cc5e4b8a5600c1a19b30c2cab1ca0
     Pseudo is Norm-conserving, Zval =  5.0
     Generated using "atomic" code by A. Dal Corso v.6.5
     Using radial grid of 1085 points,  1 beta functions with: 
                l(1) =   1

     PseudoPot. # 4 for Ni read from file:
     ./pseudo/Ni.pbesol-n-nc.UPF
     MD5 check sum: 623411631e0c2eb7c0b2b9815547d2d9
     Pseudo is Norm-conserving + core correction, Zval = 10.0
     Generated using "atomic" code by A. Dal Corso v.6.5
     Using radial grid of 1195 points,  2 beta functions with: 
                l(1) =   1
                l(2) =   2

     PseudoPot. # 5 for O  read from file:
     ./pseudo/O.pbesol-nc.UPF
     MD5 check sum: 73d10e7e91dbfcbe8a7e362101007f84
     Pseudo is Norm-conserving, Zval =  6.0
     Generated using "atomic" code by A. Dal Corso v.6.5
     Using radial grid of 1095 points,  1 beta functions with: 
                l(1) =   1

     atomic species   valence    mass     pseudopotential
        C              4.00    12.01070     C ( 1.00)
        H              1.00     1.00794     H ( 1.00)
        N              5.00    14.00670     N ( 1.00)
        Ni            10.00    58.69340     Ni( 1.00)
        O              6.00    15.99940     O ( 1.00)

     Starting magnetic structure 
     atomic species   magnetization
        C            0.000
        H            0.000
        N            0.000
        Ni           0.250
        O            0.000

     No symmetry found



   Cartesian axes

     site n.     atom                  positions (alat units)
         1           C   tau(   1) = (   0.2787124   0.9714303   0.4288485  )
         2           C   tau(   2) = (   0.0379730   0.0311503   0.0183277  )
         3           C   tau(   3) = (   0.3806884   0.0117867   0.4489836  )
         4           C   tau(   4) = (   0.1394042   0.9891495   0.0379124  )
         5           C   tau(   5) = (   0.4400789   0.9715826   0.5343279  )
         6           C   tau(   6) = (   0.1997921   0.0283933   0.1231482  )
         7           C   tau(   7) = (   0.1986013   0.5304577   0.4324634  )
         8           C   tau(   8) = (   0.4580372   0.4720798   0.0229252  )
         9           C   tau(   9) = (   0.2341005   0.6142037   0.4982312  )
        10           C   tau(  10) = (   0.4948423   0.3892301   0.0892369  )
        11           C   tau(  11) = (   0.2384983   0.8904713   0.4955759  )
        12           C   tau(  12) = (  -0.0008282   0.1123917   0.0856466  )
        13           C   tau(  13) = (   0.3947363   0.8906486   0.5977378  )
        14           C   tau(  14) = (   0.1557890   0.1097029   0.1871644  )
        15           C   tau(  15) = (   0.0756249   0.6098496   0.5975735  )
        16           C   tau(  16) = (   0.3367153   0.3921903   0.1884642  )
        17           C   tau(  17) = (   0.0350718   0.5258262   0.5351010  )
        18           C   tau(  18) = (   0.2948780   0.4753865   0.1254987  )
        19           C   tau(  19) = (   0.0981524   0.4849591   0.4519610  )
        20           C   tau(  20) = (   0.3569104   0.5163898   0.0416029  )
        21           C   tau(  21) = (   0.4248180   0.0994603   0.3833637  )
        22           C   tau(  22) = (   0.1639427   0.9010003   0.7933710  )
        23           C   tau(  23) = (   0.0588122   0.3950353   0.3866952  )
        24           C   tau(  24) = (   0.2984062   0.6050317   0.7961931  )
        25           C   tau(  25) = (   0.7787124   0.9714303   0.4288485  )
        26           C   tau(  26) = (   0.5379730   0.0311503   0.0183277  )
        27           C   tau(  27) = (   0.8806884   0.0117867   0.4489836  )
        28           C   tau(  28) = (   0.6394042   0.9891495   0.0379124  )
        29           C   tau(  29) = (   0.9400789   0.9715826   0.5343279  )
        30           C   tau(  30) = (   0.6997921   0.0283933   0.1231482  )
        31           C   tau(  31) = (   0.6986023   0.5304577   0.4324634  )
        32           C   tau(  32) = (   0.9580382   0.4720798   0.0229252  )
        33           C   tau(  33) = (   0.7341005   0.6142037   0.4982312  )
        34           C   tau(  34) = (   0.9948423   0.3892301   0.0892369  )
        35           C   tau(  35) = (   0.7384983   0.8904713   0.4955759  )
        36           C   tau(  36) = (   0.4991718   0.1123917   0.0856466  )
        37           C   tau(  37) = (   0.8947363   0.8906486   0.5977378  )
        38           C   tau(  38) = (   0.6557880   0.1097029   0.1871644  )
        39           C   tau(  39) = (   0.5756249   0.6098496   0.5975735  )
        40           C   tau(  40) = (   0.8367153   0.3921903   0.1884642  )
        41           C   tau(  41) = (   0.5350718   0.5258262   0.5351010  )
        42           C   tau(  42) = (   0.7948780   0.4753865   0.1254987  )
        43           C   tau(  43) = (   0.5981524   0.4849591   0.4519610  )
        44           C   tau(  44) = (   0.8569104   0.5163898   0.0416029  )
        45           C   tau(  45) = (   0.9248180   0.0994603   0.3833637  )
        46           C   tau(  46) = (   0.6639427   0.9010003   0.7933710  )
        47           C   tau(  47) = (   0.5588112   0.3950353   0.3866952  )
        48           C   tau(  48) = (   0.7984062   0.6050317   0.7961931  )
        49           C   tau(  49) = (   0.5342733   0.0146578   0.5688891  )
        50           C   tau(  50) = (   0.6097352   0.0756475   0.6074447  )
        51           C   tau(  51) = (   0.2935648   0.9742153   0.1485315  )
        52           C   tau(  52) = (   0.3187680   0.8715865   0.0960190  )
        53           C   tau(  53) = (   0.9571779   0.4478283   0.5742326  )
        54           C   tau(  54) = (   0.8554043   0.4538569   0.6122715  )
        55           C   tau(  55) = (   0.5285500   0.5128768   0.7865881  )
        56           C   tau(  56) = (   0.6039917   0.4466717   0.7418173  )
        57           C   tau(  57) = (   0.7285205   0.9622603   0.3279042  )
        58           C   tau(  58) = (   0.6264782   0.9261720   0.3089989  )
        59           C   tau(  59) = (   0.4337408   0.9986250   0.7745430  )
        60           C   tau(  60) = (   0.3585702   0.0640730   0.7310949  )
        61           C   tau(  61) = (   0.4575581   0.4476230   0.5748594  )
        62           C   tau(  62) = (   0.3557189   0.4528375   0.6128342  )
        63           C   tau(  63) = (   0.0284052   0.5129949   0.7865314  )
        64           C   tau(  64) = (   0.1036757   0.4467388   0.7414114  )
        65           H   tau(  65) = (   0.2290598   1.0009974   0.3640501  )
        66           H   tau(  66) = (   0.0198056   1.0002263   0.5533465  )
        67           H   tau(  67) = (   0.2505235   0.5016078   0.3691184  )
        68           H   tau(  68) = (   0.3118556   0.6514316   0.4868935  )
        69           H   tau(  69) = (   0.0732386   0.3533531   0.0780725  )
        70           H   tau(  70) = (   0.1594428   0.8563398   0.4835456  )
        71           H   tau(  71) = (   0.4206862   0.1479422   0.0738480  )
        72           H   tau(  72) = (   0.4386513   0.8563899   0.6644570  )
        73           H   tau(  73) = (   0.2006192   0.1433066   0.2536996  )
        74           H   tau(  74) = (   0.0290495   0.6438589   0.6626882  )
        75           H   tau(  75) = (   0.2907536   0.3580347   0.2539083  )
        76           H   tau(  76) = (   0.2157624   0.5059199   0.1439923  )
        77           H   tau(  77) = (   0.9693672   0.0026958   0.7751543  )
        78           H   tau(  78) = (   0.7791988   1.0000861   0.1418053  )
        79           H   tau(  79) = (   0.7505235   0.5016078   0.3691184  )
        80           H   tau(  80) = (   0.8118556   0.6514316   0.4868935  )
        81           H   tau(  81) = (   0.5732386   0.3533531   0.0780725  )
        82           H   tau(  82) = (   0.6594428   0.8563398   0.4835456  )
        83           H   tau(  83) = (   0.9206862   0.1479422   0.0738480  )
        84           H   tau(  84) = (   0.9386513   0.8563899   0.6644570  )
        85           H   tau(  85) = (   0.7006202   0.1433066   0.2536996  )
        86           H   tau(  86) = (   0.5290495   0.6438589   0.6626882  )
        87           H   tau(  87) = (   0.7907536   0.3580347   0.2539083  )
        88           H   tau(  88) = (   0.7157624   0.5059199   0.1439923  )
        89           H   tau(  89) = (   0.5582248   0.1105150   0.4623720  )
        90           H   tau(  90) = (   0.6951342   0.0623816   0.5922333  )
        91           H   tau(  91) = (   0.5879206   0.1413128   0.6620999  )
        92           H   tau(  92) = (   0.3438909   0.9987932   0.2151168  )
        93           H   tau(  93) = (   0.2789673   0.8042979   0.1379899  )
        94           H   tau(  94) = (   0.4043791   0.8541417   0.0904200  )
        95           H   tau(  95) = (  -0.0102867   0.3668583   0.5702438  )
        96           H   tau(  96) = (   0.8158175   0.5296466   0.6226463  )
        97           H   tau(  97) = (   0.8128111   0.3805858   0.6316475  )
        98           H   tau(  98) = (   0.5400275   0.5984413   0.7892747  )
        99           H   tau(  99) = (   0.5911973   0.3605463   0.7398948  )
       100           H   tau( 100) = (   0.6751462   0.4779491   0.7044595  )
       101           H   tau( 101) = (   0.7843280   0.9736014   0.2633703  )
       102           H   tau( 102) = (   0.5677010   0.9196177   0.3729338  )
       103           H   tau( 103) = (   0.6012818   0.9049979   0.2287073  )
       104           H   tau( 104) = (   0.4247565   0.9134269   0.7700400  )
       105           H   tau( 105) = (   0.3685398   0.1506070   0.7344560  )
       106           H   tau( 106) = (   0.2898794   0.0329318   0.6882917  )
       107           H   tau( 107) = (   0.4909173   0.3669084   0.5714647  )
       108           H   tau( 108) = (   0.3149549   0.5281925   0.6217261  )
       109           H   tau( 109) = (   0.3140640   0.3792329   0.6330984  )
       110           H   tau( 110) = (   0.0395366   0.5986106   0.7894053  )
       111           H   tau( 111) = (   0.0906812   0.3607095   0.7389048  )
       112           H   tau( 112) = (   0.1749181   0.4781574   0.7043305  )
       113           N   tau( 113) = (   0.2956098   0.8524643   0.5790684  )
       114           N   tau( 114) = (   0.0569791   0.1490688   0.1692870  )
       115           N   tau( 115) = (   0.1736964   0.6512354   0.5798982  )
       116           N   tau( 116) = (   0.4350239   0.3514274   0.1709211  )
       117           N   tau( 117) = (   0.7956098   0.8524643   0.5790684  )
       118           N   tau( 118) = (   0.5569791   0.1490688   0.1692870  )
       119           N   tau( 119) = (   0.6736974   0.6512354   0.5798982  )
       120           N   tau( 120) = (   0.9350239   0.3514274   0.1709211  )
       121           Ni  tau( 121) = (   0.2317817   0.7525553   0.6871037  )
       122           Ni  tau( 122) = (   0.4937993   0.2483519   0.2786598  )
       123           Ni  tau( 123) = (   0.7317817   0.7525553   0.6871037  )
       124           Ni  tau( 124) = (   0.9937993   0.2483519   0.2786598  )
       125           O   tau( 125) = (   0.1158101   0.3481837   0.3145585  )
       126           O   tau( 126) = (   0.3551693   0.6519033   0.7240466  )
       127           O   tau( 127) = (   0.3707657   0.1477169   0.3098796  )
       128           O   tau( 128) = (   0.1091509   0.8535649   0.7199133  )
       129           O   tau( 129) = (   0.4642790   0.3566668   0.3968153  )
       130           O   tau( 130) = (   0.2033042   0.6423277   0.8050415  )
       131           O   tau( 131) = (   0.0200849   0.1353503   0.3952412  )
       132           O   tau( 132) = (   0.2588619   0.8639857   0.8046488  )
       133           O   tau( 133) = (   0.6158111   0.3481837   0.3145585  )
       134           O   tau( 134) = (   0.8551693   0.6519033   0.7240466  )
       135           O   tau( 135) = (   0.8707657   0.1477169   0.3098796  )
       136           O   tau( 136) = (   0.6091509   0.8535649   0.7199133  )
       137           O   tau( 137) = (   0.9642790   0.3566668   0.3968153  )
       138           O   tau( 138) = (   0.7033042   0.6423277   0.8050415  )
       139           O   tau( 139) = (   0.5200849   0.1353503   0.3952412  )
       140           O   tau( 140) = (   0.7588619   0.8639857   0.8046488  )

     number of k points=     1  Marzari-Vanderbilt smearing, width (Ry)=  0.2000
                       cart. coord. in units 2pi/alat
        k(    1) = (   0.0000000   0.0000000   0.0000000), wk =   1.0000000

     Dense  grid:   733509 G-vectors     FFT dimensions: ( 160, 160, 125)

     Estimated max dynamical RAM per process >     670.34 MB

     Estimated total dynamical RAM >      10.47 GB
     Generating pointlists ...
     new r_m :   0.0354 (alat units)  0.8363 (a.u.) for type    1
     new r_m :   0.0335 (alat units)  0.7906 (a.u.) for type    2
     new r_m :   0.0445 (alat units)  1.0514 (a.u.) for type    3
     new r_m :   0.0654 (alat units)  1.5454 (a.u.) for type    4
     new r_m :   0.0335 (alat units)  0.7906 (a.u.) for type    5

     Check: negative core charge=   -0.000145

     Initial potential from superposition of free atoms

     starting charge  479.99586, renormalised to  480.00000
     Starting wfcs are  436 randomized atomic wfcs

     total cpu time spent up to now is       78.5 secs

     Self-consistent Calculation

     iteration #  1     ecut=   100.00 Ry     beta= 0.70
     Davidson diagonalization with overlap
     ethr =  1.00E-02,  avg # of iterations =  3.5

     total cpu time spent up to now is      257.8 secs

     total energy              =   -1819.21271663 Ry
     Harris-Foulkes estimate   =   -1828.05825994 Ry
     estimated scf accuracy    <      23.65024314 Ry

     total magnetization       =     8.00 Bohr mag/cell
     absolute magnetization    =     8.72 Bohr mag/cell

     iteration #  2     ecut=   100.00 Ry     beta= 0.70
     Davidson diagonalization with overlap
     ethr =  4.93E-03,  avg # of iterations =  2.0

     total cpu time spent up to now is      365.1 secs

     total energy              =   -1822.11142883 Ry
     Harris-Foulkes estimate   =   -1826.13864946 Ry
     estimated scf accuracy    <      19.12315582 Ry

     total magnetization       =     8.00 Bohr mag/cell
     absolute magnetization    =     8.36 Bohr mag/cell

     iteration #  3     ecut=   100.00 Ry     beta= 0.70
     Davidson diagonalization with overlap
     ethr =  3.98E-03,  avg # of iterations =  1.5

     total cpu time spent up to now is      468.6 secs

     total energy              =   -1822.12788596 Ry
     Harris-Foulkes estimate   =   -1823.03882738 Ry
     estimated scf accuracy    <       2.59661236 Ry

     total magnetization       =     8.00 Bohr mag/cell
     absolute magnetization    =     8.23 Bohr mag/cell

     iteration #  4     ecut=   100.00 Ry     beta= 0.70
     Davidson diagonalization with overlap
     ethr =  5.41E-04,  avg # of iterations =  6.0

     total cpu time spent up to now is      598.7 secs

     total energy              =   -1821.98446598 Ry
     Harris-Foulkes estimate   =   -1822.82637811 Ry
     estimated scf accuracy    <       6.97640572 Ry

     total magnetization       =     8.00 Bohr mag/cell
     absolute magnetization    =     8.28 Bohr mag/cell

     iteration #  5     ecut=   100.00 Ry     beta= 0.70
     Davidson diagonalization with overlap
     ethr =  5.41E-04,  avg # of iterations =  2.0

     total cpu time spent up to now is      701.2 secs

     total energy              =   -1822.35383115 Ry
     Harris-Foulkes estimate   =   -1822.45135283 Ry
     estimated scf accuracy    <       0.85970577 Ry

     total magnetization       =     8.00 Bohr mag/cell
     absolute magnetization    =     8.26 Bohr mag/cell

     iteration #  6     ecut=   100.00 Ry     beta= 0.70
     Davidson diagonalization with overlap
     ethr =  1.79E-04,  avg # of iterations =  1.5

     total cpu time spent up to now is      808.6 secs

     total energy              =   -1822.35109196 Ry
     Harris-Foulkes estimate   =   -1822.45161343 Ry
     estimated scf accuracy    <       1.36553797 Ry

     total magnetization       =     8.00 Bohr mag/cell
     absolute magnetization    =     8.25 Bohr mag/cell

     iteration #  7     ecut=   100.00 Ry     beta= 0.70
     Davidson diagonalization with overlap
     ethr =  1.79E-04,  avg # of iterations =  1.0

     total cpu time spent up to now is      911.1 secs

     total energy              =   -1822.29124073 Ry
     Harris-Foulkes estimate   =   -1822.37941212 Ry
     estimated scf accuracy    <       0.55825132 Ry

     total magnetization       =     8.00 Bohr mag/cell
     absolute magnetization    =     8.26 Bohr mag/cell

     iteration #  8     ecut=   100.00 Ry     beta= 0.70
     Davidson diagonalization with overlap
     ethr =  1.16E-04,  avg # of iterations =  5.0

     total cpu time spent up to now is     1020.2 secs

     total energy              =   -1822.31101985 Ry
     Harris-Foulkes estimate   =   -1822.33987665 Ry
     estimated scf accuracy    <       0.41436264 Ry

     total magnetization       =     8.00 Bohr mag/cell
     absolute magnetization    =     8.27 Bohr mag/cell

     iteration #  9     ecut=   100.00 Ry     beta= 0.70
     Davidson diagonalization with overlap
     ethr =  8.63E-05,  avg # of iterations =  3.5

     total cpu time spent up to now is     1126.7 secs

     total energy              =   -1822.31086775 Ry
     Harris-Foulkes estimate   =   -1822.32839560 Ry
     estimated scf accuracy    <       0.14513001 Ry

     total magnetization       =     8.00 Bohr mag/cell
     absolute magnetization    =     8.27 Bohr mag/cell

     iteration # 10     ecut=   100.00 Ry     beta= 0.70
     Davidson diagonalization with overlap
     ethr =  3.02E-05,  avg # of iterations =  5.5

     total cpu time spent up to now is     1239.9 secs

     total energy              =   -1822.32236644 Ry
     Harris-Foulkes estimate   =   -1822.32164335 Ry
     estimated scf accuracy    <       0.02349075 Ry

     total magnetization       =     8.00 Bohr mag/cell
     absolute magnetization    =     8.26 Bohr mag/cell

     iteration # 11     ecut=   100.00 Ry     beta= 0.70
     Davidson diagonalization with overlap
     ethr =  4.89E-06,  avg # of iterations =  7.0

     total cpu time spent up to now is     1363.2 secs

     total energy              =   -1822.32178504 Ry
     Harris-Foulkes estimate   =   -1822.32516859 Ry
     estimated scf accuracy    <       0.06279737 Ry

     total magnetization       =     8.00 Bohr mag/cell
     absolute magnetization    =     8.25 Bohr mag/cell

     iteration # 12     ecut=   100.00 Ry     beta= 0.70
     Davidson diagonalization with overlap
     ethr =  4.89E-06,  avg # of iterations =  2.0

     total cpu time spent up to now is     1468.0 secs

     total energy              =   -1822.32450219 Ry
     Harris-Foulkes estimate   =   -1822.32427232 Ry
     estimated scf accuracy    <       0.00960086 Ry

     total magnetization       =     8.00 Bohr mag/cell
     absolute magnetization    =     8.25 Bohr mag/cell

     iteration # 13     ecut=   100.00 Ry     beta= 0.70
     Davidson diagonalization with overlap
     ethr =  2.00E-06,  avg # of iterations =  6.0

     total cpu time spent up to now is     1587.7 secs

     total energy              =   -1822.32562736 Ry
     Harris-Foulkes estimate   =   -1822.32508652 Ry
     estimated scf accuracy    <       0.00418931 Ry

     total magnetization       =     8.00 Bohr mag/cell
     absolute magnetization    =     8.24 Bohr mag/cell

     iteration # 14     ecut=   100.00 Ry     beta= 0.70
     Davidson diagonalization with overlap
     ethr =  8.73E-07,  avg # of iterations =  3.5

     total cpu time spent up to now is     1690.2 secs

     total energy              =   -1822.32598050 Ry
     Harris-Foulkes estimate   =   -1822.32572676 Ry
     estimated scf accuracy    <       0.00209744 Ry

     total magnetization       =     8.00 Bohr mag/cell
     absolute magnetization    =     8.24 Bohr mag/cell

     iteration # 15     ecut=   100.00 Ry     beta= 0.70
     Davidson diagonalization with overlap
     ethr =  4.37E-07,  avg # of iterations =  3.0

     total cpu time spent up to now is     1790.5 secs

     total energy              =   -1822.32604324 Ry
     Harris-Foulkes estimate   =   -1822.32604086 Ry
     estimated scf accuracy    <       0.00091940 Ry

     total magnetization       =     8.00 Bohr mag/cell
     absolute magnetization    =     8.24 Bohr mag/cell

     iteration # 16     ecut=   100.00 Ry     beta= 0.70
     Davidson diagonalization with overlap
     ethr =  1.92E-07,  avg # of iterations =  2.5

     total cpu time spent up to now is     1897.4 secs

     total energy              =   -1822.32604243 Ry
     Harris-Foulkes estimate   =   -1822.32607437 Ry
     estimated scf accuracy    <       0.00069724 Ry

     total magnetization       =     8.00 Bohr mag/cell
     absolute magnetization    =     8.24 Bohr mag/cell

     iteration # 17     ecut=   100.00 Ry     beta= 0.70
     Davidson diagonalization with overlap
     ethr =  1.45E-07,  avg # of iterations =  2.5

     total cpu time spent up to now is     2007.4 secs

     total energy              =   -1822.32603370 Ry
     Harris-Foulkes estimate   =   -1822.32606240 Ry
     estimated scf accuracy    <       0.00028926 Ry

     total magnetization       =     8.00 Bohr mag/cell
     absolute magnetization    =     8.24 Bohr mag/cell

     iteration # 18     ecut=   100.00 Ry     beta= 0.70
     Davidson diagonalization with overlap
     ethr =  6.03E-08,  avg # of iterations =  3.0

     total cpu time spent up to now is     2111.1 secs

     total energy              =   -1822.32604418 Ry
     Harris-Foulkes estimate   =   -1822.32605205 Ry
     estimated scf accuracy    <       0.00026012 Ry

     total magnetization       =     8.00 Bohr mag/cell
     absolute magnetization    =     8.24 Bohr mag/cell

     iteration # 19     ecut=   100.00 Ry     beta= 0.70
     Davidson diagonalization with overlap
     ethr =  5.42E-08,  avg # of iterations =  2.0

     total cpu time spent up to now is     2219.9 secs

     total energy              =   -1822.32604460 Ry
     Harris-Foulkes estimate   =   -1822.32606895 Ry
     estimated scf accuracy    <       0.00035806 Ry

     total magnetization       =     8.00 Bohr mag/cell
     absolute magnetization    =     8.24 Bohr mag/cell

     iteration # 20     ecut=   100.00 Ry     beta= 0.70
     Davidson diagonalization with overlap
     ethr =  5.42E-08,  avg # of iterations =  2.0

     total cpu time spent up to now is     2327.3 secs

     total energy              =   -1822.32605257 Ry
     Harris-Foulkes estimate   =   -1822.32605888 Ry
     estimated scf accuracy    <       0.00007937 Ry

     total magnetization       =     8.00 Bohr mag/cell
     absolute magnetization    =     8.24 Bohr mag/cell

     iteration # 21     ecut=   100.00 Ry     beta= 0.70
     Davidson diagonalization with overlap
     ethr =  1.65E-08,  avg # of iterations =  3.0

     total cpu time spent up to now is     2437.2 secs

     total energy              =   -1822.32605913 Ry
     Harris-Foulkes estimate   =   -1822.32605923 Ry
     estimated scf accuracy    <       0.00005759 Ry

     total magnetization       =     8.00 Bohr mag/cell
     absolute magnetization    =     8.24 Bohr mag/cell

     iteration # 22     ecut=   100.00 Ry     beta= 0.70
     Davidson diagonalization with overlap
     ethr =  1.20E-08,  avg # of iterations =  2.5

     total cpu time spent up to now is     2544.3 secs

     total energy              =   -1822.32606014 Ry
     Harris-Foulkes estimate   =   -1822.32606392 Ry
     estimated scf accuracy    <       0.00004228 Ry

     total magnetization       =     8.00 Bohr mag/cell
     absolute magnetization    =     8.24 Bohr mag/cell

     iteration # 23     ecut=   100.00 Ry     beta= 0.70
     Davidson diagonalization with overlap
     ethr =  8.81E-09,  avg # of iterations =  2.0

     total cpu time spent up to now is     2640.3 secs

     total energy              =   -1822.32606228 Ry
     Harris-Foulkes estimate   =   -1822.32606267 Ry
     estimated scf accuracy    <       0.00001212 Ry

     total magnetization       =     8.00 Bohr mag/cell
     absolute magnetization    =     8.24 Bohr mag/cell

     iteration # 24     ecut=   100.00 Ry     beta= 0.70
     Davidson diagonalization with overlap
     ethr =  2.52E-09,  avg # of iterations =  2.5

     total cpu time spent up to now is     2708.4 secs

     total energy              =   -1822.32606293 Ry
     Harris-Foulkes estimate   =   -1822.32606311 Ry
     estimated scf accuracy    <       0.00000575 Ry

     total magnetization       =     8.00 Bohr mag/cell
     absolute magnetization    =     8.24 Bohr mag/cell

     iteration # 25     ecut=   100.00 Ry     beta= 0.70
     Davidson diagonalization with overlap
     ethr =  1.20E-09,  avg # of iterations =  3.0

     total cpu time spent up to now is     2778.0 secs

     total energy              =   -1822.32606328 Ry
     Harris-Foulkes estimate   =   -1822.32606326 Ry
     estimated scf accuracy    <       0.00000215 Ry

     total magnetization       =     8.00 Bohr mag/cell
     absolute magnetization    =     8.24 Bohr mag/cell

     iteration # 26     ecut=   100.00 Ry     beta= 0.70
     Davidson diagonalization with overlap
     ethr =  4.49E-10,  avg # of iterations =  2.5
 
     Magnetic moment per site:
     atom:    1    charge:    0.8189    magn:    0.0040    constr:    0.0000
     atom:    2    charge:    0.8184    magn:    0.0048    constr:    0.0000
     atom:    3    charge:    0.8213    magn:    0.0051    constr:    0.0000
     atom:    4    charge:    0.8221    magn:    0.0049    constr:    0.0000
     atom:    5    charge:    0.8339    magn:   -0.0002    constr:    0.0000
     atom:    6    charge:    0.8330    magn:   -0.0003    constr:    0.0000
     atom:    7    charge:    0.8197    magn:    0.0051    constr:    0.0000
     atom:    8    charge:    0.8282    magn:    0.0039    constr:    0.0000
     atom:    9    charge:    0.8114    magn:    0.0055    constr:    0.0000
     atom:   10    charge:    0.8126    magn:    0.0066    constr:    0.0000
     atom:   11    charge:    0.8108    magn:    0.0055    constr:    0.0000
     atom:   12    charge:    0.8105    magn:    0.0055    constr:    0.0000
     atom:   13    charge:    0.8160    magn:    0.0085    constr:    0.0000
     atom:   14    charge:    0.8120    magn:    0.0074    constr:    0.0000
     atom:   15    charge:    0.8133    magn:    0.0066    constr:    0.0000
     atom:   16    charge:    0.8118    magn:    0.0053    constr:    0.0000
     atom:   17    charge:    0.8196    magn:    0.0058    constr:    0.0000
     atom:   18    charge:    0.8187    magn:    0.0051    constr:    0.0000
     atom:   19    charge:    0.8239    magn:    0.0053    constr:    0.0000
     atom:   20    charge:    0.8198    magn:    0.0049    constr:    0.0000
     atom:   21    charge:    0.7951    magn:    0.0018    constr:    0.0000
     atom:   22    charge:    0.7990    magn:    0.0020    constr:    0.0000
     atom:   23    charge:    0.7966    magn:   -0.0014    constr:    0.0000
     atom:   24    charge:    0.7972    magn:   -0.0006    constr:    0.0000
     atom:   25    charge:    0.8310    magn:    0.0039    constr:    0.0000
     atom:   26    charge:    0.8299    magn:    0.0037    constr:    0.0000
     atom:   27    charge:    0.8212    magn:    0.0054    constr:    0.0000
     atom:   28    charge:    0.8205    magn:    0.0047    constr:    0.0000
     atom:   29    charge:    0.8185    magn:    0.0048    constr:    0.0000
     atom:   30    charge:    0.8212    magn:    0.0063    constr:    0.0000
     atom:   31    charge:    0.8197    magn:    0.0052    constr:    0.0000
     atom:   32    charge:    0.8283    magn:    0.0040    constr:    0.0000
     atom:   33    charge:    0.8113    magn:    0.0056    constr:    0.0000
     atom:   34    charge:    0.8124    magn:    0.0067    constr:    0.0000
     atom:   35    charge:    0.8132    magn:    0.0070    constr:    0.0000
     atom:   36    charge:    0.8133    magn:    0.0065    constr:    0.0000
     atom:   37    charge:    0.8128    magn:    0.0053    constr:    0.0000
     atom:   38    charge:    0.8114    magn:    0.0053    constr:    0.0000
     atom:   39    charge:    0.8134    magn:    0.0066    constr:    0.0000
     atom:   40    charge:    0.8118    magn:    0.0054    constr:    0.0000
     atom:   41    charge:    0.8195    magn:    0.0058    constr:    0.0000
     atom:   42    charge:    0.8185    magn:    0.0052    constr:    0.0000
     atom:   43    charge:    0.8240    magn:    0.0051    constr:    0.0000
     atom:   44    charge:    0.8195    magn:    0.0051    constr:    0.0000
     atom:   45    charge:    0.7955    magn:   -0.0015    constr:    0.0000
     atom:   46    charge:    0.7961    magn:   -0.0013    constr:    0.0000
     atom:   47    charge:    0.7967    magn:   -0.0011    constr:    0.0000
     atom:   48    charge:    0.7970    magn:   -0.0011    constr:    0.0000
     atom:   49    charge:    0.8132    magn:    0.0187    constr:    0.0000
     atom:   50    charge:    0.8235    magn:    0.0024    constr:    0.0000
     atom:   51    charge:    0.8075    magn:    0.0149    constr:    0.0000
     atom:   52    charge:    0.7910    magn:   -0.0008    constr:    0.0000
     atom:   53    charge:    0.8111    magn:    0.0066    constr:    0.0000
     atom:   54    charge:    0.8164    magn:    0.0134    constr:    0.0000
     atom:   55    charge:    0.8219    magn:    0.0061    constr:    0.0000
     atom:   56    charge:    0.8130    magn:    0.0121    constr:    0.0000
     atom:   57    charge:    0.8229    magn:    0.0041    constr:    0.0000
     atom:   58    charge:    0.8116    magn:    0.0126    constr:    0.0000
     atom:   59    charge:    0.8273    magn:    0.0053    constr:    0.0000
     atom:   60    charge:    0.8124    magn:    0.0115    constr:    0.0000
     atom:   61    charge:    0.8101    magn:    0.0065    constr:    0.0000
     atom:   62    charge:    0.8163    magn:    0.0132    constr:    0.0000
     atom:   63    charge:    0.8219    magn:    0.0063    constr:    0.0000
     atom:   64    charge:    0.8127    magn:    0.0121    constr:    0.0000
     atom:   65    charge:    0.4221    magn:   -0.0012    constr:    0.0000
     atom:   66    charge:    0.4237    magn:   -0.0012    constr:    0.0000
     atom:   67    charge:    0.4234    magn:   -0.0010    constr:    0.0000
     atom:   68    charge:    0.4264    magn:   -0.0009    constr:    0.0000
     atom:   69    charge:    0.4260    magn:   -0.0008    constr:    0.0000
     atom:   70    charge:    0.4262    magn:   -0.0011    constr:    0.0000
     atom:   71    charge:    0.4255    magn:   -0.0008    constr:    0.0000
     atom:   72    charge:    0.4258    magn:   -0.0004    constr:    0.0000
     atom:   73    charge:    0.4205    magn:   -0.0007    constr:    0.0000
     atom:   74    charge:    0.4236    magn:   -0.0002    constr:    0.0000
     atom:   75    charge:    0.4234    magn:   -0.0007    constr:    0.0000
     atom:   76    charge:    0.4241    magn:   -0.0012    constr:    0.0000
     atom:   77    charge:    0.4233    magn:   -0.0010    constr:    0.0000
     atom:   78    charge:    0.4265    magn:   -0.0009    constr:    0.0000
     atom:   79    charge:    0.4234    magn:   -0.0010    constr:    0.0000
     atom:   80    charge:    0.4262    magn:   -0.0009    constr:    0.0000
     atom:   81    charge:    0.4260    magn:   -0.0008    constr:    0.0000
     atom:   82    charge:    0.4252    magn:   -0.0007    constr:    0.0000
     atom:   83    charge:    0.4266    magn:   -0.0010    constr:    0.0000
     atom:   84    charge:    0.4233    magn:   -0.0007    constr:    0.0000
     atom:   85    charge:    0.4221    magn:   -0.0004    constr:    0.0000
     atom:   86    charge:    0.4238    magn:   -0.0002    constr:    0.0000
     atom:   87    charge:    0.4235    magn:   -0.0007    constr:    0.0000
     atom:   88    charge:    0.4242    magn:   -0.0012    constr:    0.0000
     atom:   89    charge:    0.3867    magn:    0.0007    constr:    0.0000
     atom:   90    charge:    0.4035    magn:    0.0016    constr:    0.0000
     atom:   91    charge:    0.4006    magn:    0.0021    constr:    0.0000
     atom:   92    charge:    0.4186    magn:   -0.0011    constr:    0.0000
     atom:   93    charge:    0.4103    magn:    0.0021    constr:    0.0000
     atom:   94    charge:    0.4237    magn:   -0.0001    constr:    0.0000
     atom:   95    charge:    0.4249    magn:    0.0017    constr:    0.0000
     atom:   96    charge:    0.4325    magn:    0.0005    constr:    0.0000
     atom:   97    charge:    0.4261    magn:   -0.0009    constr:    0.0000
     atom:   98    charge:    0.4291    magn:    0.0006    constr:    0.0000
     atom:   99    charge:    0.4269    magn:   -0.0011    constr:    0.0000
     atom:  100    charge:    0.4327    magn:   -0.0011    constr:    0.0000
     atom:  101    charge:    0.4382    magn:    0.0005    constr:    0.0000
     atom:  102    charge:    0.4258    magn:   -0.0009    constr:    0.0000
     atom:  103    charge:    0.4265    magn:   -0.0012    constr:    0.0000
     atom:  104    charge:    0.4424    magn:    0.0006    constr:    0.0000
     atom:  105    charge:    0.4245    magn:   -0.0013    constr:    0.0000
     atom:  106    charge:    0.4285    magn:   -0.0015    constr:    0.0000
     atom:  107    charge:    0.4258    magn:    0.0015    constr:    0.0000
     atom:  108    charge:    0.4324    magn:    0.0004    constr:    0.0000
     atom:  109    charge:    0.4255    magn:   -0.0009    constr:    0.0000
     atom:  110    charge:    0.4289    magn:    0.0007    constr:    0.0000
     atom:  111    charge:    0.4268    magn:   -0.0011    constr:    0.0000
     atom:  112    charge:    0.4330    magn:   -0.0010    constr:    0.0000
     atom:  113    charge:    2.4510    magn:    0.0106    constr:    0.0000
     atom:  114    charge:    2.4472    magn:    0.0119    constr:    0.0000
     atom:  115    charge:    2.4536    magn:    0.0142    constr:    0.0000
     atom:  116    charge:    2.4479    magn:    0.0140    constr:    0.0000
     atom:  117    charge:    2.4490    magn:    0.0131    constr:    0.0000
     atom:  118    charge:    2.4507    magn:    0.0140    constr:    0.0000
     atom:  119    charge:    2.4542    magn:    0.0136    constr:    0.0000
     atom:  120    charge:    2.4483    magn:    0.0139    constr:    0.0000
     atom:  121    charge:    7.4604    magn:    1.1335    constr:    0.0000
     atom:  122    charge:    7.4535    magn:    1.1511    constr:    0.0000
     atom:  123    charge:    7.4385    magn:    1.1095    constr:    0.0000
     atom:  124    charge:    7.4342    magn:    1.1132    constr:    0.0000
     atom:  125    charge:    2.1250    magn:    0.0386    constr:    0.0000
     atom:  126    charge:    2.1300    magn:    0.0359    constr:    0.0000
     atom:  127    charge:    2.1251    magn:    0.0225    constr:    0.0000
     atom:  128    charge:    2.1260    magn:    0.0233    constr:    0.0000
     atom:  129    charge:    2.1285    magn:    0.0363    constr:    0.0000
     atom:  130    charge:    2.1309    magn:    0.0359    constr:    0.0000
     atom:  131    charge:    2.1241    magn:    0.0408    constr:    0.0000
     atom:  132    charge:    2.1555    magn:    0.0107    constr:    0.0000
     atom:  133    charge:    2.1257    magn:    0.0374    constr:    0.0000
     atom:  134    charge:    2.1288    magn:    0.0383    constr:    0.0000
     atom:  135    charge:    2.1256    magn:    0.0383    constr:    0.0000
     atom:  136    charge:    2.1295    magn:    0.0374    constr:    0.0000
     atom:  137    charge:    2.1274    magn:    0.0378    constr:    0.0000
     atom:  138    charge:    2.1292    magn:    0.0389    constr:    0.0000
     atom:  139    charge:    2.1706    magn:    0.0094    constr:    0.0000
     atom:  140    charge:    2.1256    magn:    0.0396    constr:    0.0000

     total cpu time spent up to now is     2846.2 secs

     End of self-consistent calculation

 ------ SPIN UP ------------


          k = 0.0000 0.0000 0.0000 ( 91663 PWs)   bands (ev):

   -22.8426 -22.6264 -21.1375 -21.1102 -21.0901 -21.0870 -20.9726 -20.9435
   -19.2748 -19.2261 -18.1643 -18.1163 -18.1069 -18.0873 -18.0602 -18.0250
   -18.0092 -17.9444 -17.9061 -17.8977 -17.8527 -17.8198 -17.7719 -17.7396
   -15.2515 -14.9656 -14.8002 -14.7859 -14.7716 -14.7517 -14.5624 -14.5407
   -13.8658 -13.7436 -13.6182 -13.5658 -13.5454 -13.4665 -13.3619 -13.2052
   -12.9891 -12.7911 -12.3805 -12.3132 -12.1914 -12.0397 -12.0005 -11.9770
   -10.9647 -10.8559 -10.7236 -10.5760 -10.4563 -10.4099 -10.3964 -10.2715
   -10.2466 -10.2300 -10.1182 -10.0738 -10.0382 -10.0157 -10.0014  -9.9125
    -9.8339  -9.1685  -8.7725  -8.4493  -8.2702  -8.2403  -8.1894  -8.1527
    -8.1076  -7.9376  -7.8971  -7.8228  -7.7237  -7.6945  -7.5983  -7.5381
    -7.4118  -7.3627  -7.0561  -6.8450  -6.7539  -6.6855  -6.5857  -6.5249
    -6.4912  -6.4214  -6.3875  -6.3661  -6.3463  -6.2789  -6.2151  -6.1761
    -6.0890  -6.0442  -5.9878  -5.9105  -5.8333  -5.7490  -5.7163  -5.6759
    -5.6300  -5.5931  -5.5388  -5.5042  -5.4327  -5.3656  -5.3317  -5.3147
    -5.2910  -5.2237  -5.1987  -5.1438  -5.0879  -5.0789  -5.0378  -5.0014
    -4.9696  -4.9558  -4.9417  -4.9137  -4.8985  -4.8533  -4.8337  -4.8023
    -4.7294  -4.7119  -4.6935  -4.6402  -4.5757  -4.5658  -4.4830  -4.4632
    -4.4355  -4.4060  -4.3838  -4.3717  -4.3050  -4.2372  -4.1486  -4.1214
    -4.1061  -4.0756  -4.0407  -4.0291  -4.0117  -3.9617  -3.9495  -3.8003
    -3.7740  -3.7345  -3.6220  -3.3063  -3.2995  -3.1733  -3.1125  -3.0678
    -3.0139  -2.9896  -2.9450  -2.9087  -2.8834  -2.7978  -2.7789  -2.7257
    -2.6670  -2.6464  -2.6206  -2.6035  -2.5883  -2.5124  -2.4312  -2.3592
    -2.3210  -2.2905  -2.2792  -2.2180  -2.1872  -2.1509  -2.0955  -2.0480
    -2.0148  -1.9885  -1.9147  -1.8575  -1.8063  -1.8003  -1.7607  -1.7108
    -1.6604  -1.6315  -1.6180  -1.5958  -1.5637  -1.5348  -1.4564  -1.3686
    -1.3258  -1.2879  -1.2555  -1.2132  -1.1697  -1.1517  -1.1016  -1.0695
    -1.0513  -0.9460  -0.8995  -0.8833  -0.8548  -0.8258  -0.7896  -0.7518
    -0.7320  -0.7057  -0.6821  -0.6681  -0.6292  -0.6098  -0.5858  -0.5639
    -0.5235  -0.4583  -0.4485  -0.3110  -0.0145   0.0470   0.3805   0.4045
     0.5320   0.5794   0.9518   1.0169   1.2116   1.2702   1.3267   1.4150
     1.5067   1.5481   1.5756   1.6658   3.0324   3.0492   3.0859   3.1349
     3.1355   3.2095   3.2899   3.3134   3.7811   3.8510   3.9277   4.1091
     4.1420   4.3584   4.4435   4.7919   4.8752   4.9579   5.1527   5.1918
     5.3424   5.3692   5.3948   5.4403   5.5452   5.6462   5.6480   5.7006
     5.8215   5.8566   5.8748   5.9261   5.9708   6.0067   6.0237   6.1731
     6.2662   6.5202   6.5844   6.6662   6.7050   6.7627   6.8031   7.1879
     7.2601   7.3469   7.4124   7.5363   7.6145

 ------ SPIN DOWN ----------


          k = 0.0000 0.0000 0.0000 ( 91663 PWs)   bands (ev):

   -22.8091 -22.5947 -21.0424 -21.0077 -20.9905 -20.9878 -20.8709 -20.8401
   -19.2099 -19.1635 -18.0457 -18.0199 -17.9927 -17.9753 -17.9586 -17.9110
   -17.9000 -17.8799 -17.8672 -17.8559 -17.8189 -17.7833 -17.7362 -17.7038
   -15.2081 -14.9301 -14.7609 -14.7465 -14.7328 -14.7082 -14.5216 -14.4992
   -13.8221 -13.6993 -13.5752 -13.5239 -13.5059 -13.4257 -13.3168 -13.1620
   -12.9486 -12.7637 -12.3201 -12.2661 -12.1324 -11.9891 -11.9496 -11.9281
   -10.9296 -10.8188 -10.6869 -10.5392 -10.4163 -10.3668 -10.3547 -10.2267
   -10.2016 -10.1839 -10.0787 -10.0385 -10.0032  -9.9834  -9.9622  -9.8774
    -9.7988  -9.1394  -8.7425  -8.4175  -8.2367  -8.2072  -8.1553  -8.1191
    -8.0767  -7.9023  -7.8554  -7.7968  -7.6856  -7.6589  -7.5549  -7.4986
    -7.3689  -7.3205  -7.0187  -6.7965  -6.6991  -6.6381  -6.5235  -6.4736
    -6.4455  -6.3836  -6.3389  -6.3102  -6.2924  -6.2318  -6.1628  -6.1170
    -6.0266  -5.9886  -5.9139  -5.8544  -5.7790  -5.7043  -5.6466  -5.6119
    -5.5666  -5.5176  -5.4705  -5.4537  -5.3416  -5.2835  -5.2489  -5.2367
    -5.2075  -5.1289  -5.1227  -5.0671  -5.0166  -5.0010  -4.9520  -4.9334
    -4.9000  -4.8763  -4.8622  -4.8342  -4.8133  -4.7819  -4.7671  -4.7364
    -4.6740  -4.6458  -4.6313  -4.5727  -4.5131  -4.5018  -4.4413  -4.4257
    -4.3879  -4.3520  -4.3215  -4.3209  -4.2486  -4.1692  -4.1027  -4.0651
    -4.0443  -4.0197  -3.9821  -3.9709  -3.9536  -3.9073  -3.8726  -3.7413
    -3.7021  -3.6258  -3.5484  -3.2760  -3.1414  -3.0780  -3.0121  -2.9205
    -2.9110  -2.8439  -2.8053  -2.7909  -2.7702  -2.6761  -2.6301  -2.5933
    -2.5657  -2.4837  -2.4584  -2.3929  -2.3643  -2.2704  -2.2139  -2.1958
    -2.1598  -2.1146  -2.0941  -2.0404  -1.9921  -1.9614  -1.9005  -1.8559
    -1.8208  -1.7699  -1.6437  -1.6108  -1.5888  -1.5653  -1.4889  -1.4361
    -1.3771  -1.3527  -1.2894  -1.2562  -1.2182  -1.1915  -1.1556  -1.1083
    -1.0459  -1.0328  -0.9992  -0.9701  -0.9398  -0.8641  -0.8429  -0.7514
    -0.7253  -0.7145  -0.6552  -0.6194  -0.5865  -0.4973  -0.4307  -0.3123
    -0.1336  -0.0617   0.0330   0.1140   0.1319   0.1509   0.1624   0.1992
     0.2176   0.2302   0.2551   0.2719   0.3466   0.3603   0.5573   0.5859
     0.7175   0.7312   1.6391   1.7432   1.8145   1.8337   1.9756   2.0369
     2.0991   2.1679   2.2467   2.2844   3.1461   3.1612   3.1982   3.2345
     3.2557   3.3318   3.3995   3.4241   3.8783   3.9507   4.0291   4.2177
     4.2401   4.4416   4.5412   4.8508   4.9565   5.0318   5.2211   5.2645
     5.4223   5.4548   5.4774   5.5174   5.6476   5.7171   5.7360   5.7775
     5.8984   5.9364   5.9583   6.0095   6.0484   6.0895   6.1010   6.2273
     6.3214   6.5719   6.6311   6.7134   6.7607   6.8172   6.8456   7.2324
     7.3031   7.3875   7.4488   7.5749   7.6577

     the spin up/dw Fermi energies are     1.7719    1.4295 ev

!    total energy              =   -1822.32606340 Ry
     Harris-Foulkes estimate   =   -1822.32606342 Ry
     estimated scf accuracy    <       0.00000067 Ry

     The total energy is the sum of the following terms:

     one-electron contribution =   -2366.10299850 Ry
     hartree contribution      =    1368.26636721 Ry
     xc contribution           =    -560.54640799 Ry
     ewald contribution        =    -266.22035779 Ry
     Dispersion Correction     =      -0.71594773 Ry
     smearing contrib. (-TS)   =       2.99328141 Ry

     total magnetization       =     8.00 Bohr mag/cell
     absolute magnetization    =     8.24 Bohr mag/cell

     convergence has been achieved in  26 iterations

     Forces acting on atoms (cartesian axes, Ry/au):

     atom    1 type  1   force =     0.00485175   -0.00534887    0.01013950
     atom    2 type  1   force =     0.00175445   -0.00146774    0.00001657
     atom    3 type  1   force =    -0.01474461    0.03338907   -0.05872592
     atom    4 type  1   force =    -0.02741756   -0.02112574   -0.04299794
     atom    5 type  1   force =     0.04659919    0.01233788    0.02792217
     atom    6 type  1   force =     0.03139918   -0.03623818    0.00323902
     atom    7 type  1   force =    -0.00741004    0.00408837   -0.00322334
     atom    8 type  1   force =     0.03410965   -0.00947491    0.01660431
     atom    9 type  1   force =    -0.00771829   -0.00619709   -0.01049729
     atom   10 type  1   force =    -0.03573520   -0.04411751    0.03736247
     atom   11 type  1   force =     0.00001033    0.01374437   -0.01084250
     atom   12 type  1   force =     0.00381129   -0.01041831   -0.00750125
     atom   13 type  1   force =    -0.03615710   -0.06823662   -0.01286315
     atom   14 type  1   force =    -0.01040349    0.03034146    0.01104881
     atom   15 type  1   force =    -0.00069120    0.03965817   -0.01949046
     atom   16 type  1   force =    -0.00578901    0.00335404   -0.00007675
     atom   17 type  1   force =    -0.01854015   -0.06207211    0.01894856
     atom   18 type  1   force =     0.00776707   -0.00736999   -0.00769925
     atom   19 type  1   force =     0.03518977    0.01088014   -0.03620842
     atom   20 type  1   force =    -0.02350881    0.02082782   -0.00483913
     atom   21 type  1   force =    -0.15971384   -0.03173624   -0.03508034
     atom   22 type  1   force =    -0.18739288    0.04287197   -0.04481765
     atom   23 type  1   force =     0.01569441    0.00220899   -0.00469908
     atom   24 type  1   force =     0.00293781   -0.00029821    0.01745661
     atom   25 type  1   force =    -0.02105250   -0.04866350   -0.01221912
     atom   26 type  1   force =    -0.03463027    0.03246023    0.01630945
     atom   27 type  1   force =     0.02663912    0.02403967    0.00807359
     atom   28 type  1   force =     0.02121128   -0.02152414   -0.00509517
     atom   29 type  1   force =    -0.01226344    0.00034260   -0.00116981
     atom   30 type  1   force =    -0.01178162    0.02234605   -0.04668265
     atom   31 type  1   force =    -0.00730759    0.00343289   -0.00349994
     atom   32 type  1   force =     0.03251616   -0.00852550    0.01631282
     atom   33 type  1   force =    -0.00697294   -0.00604887   -0.01049968
     atom   34 type  1   force =    -0.03534166   -0.04442512    0.03790061
     atom   35 type  1   force =     0.01476545   -0.01144734    0.07136483
     atom   36 type  1   force =     0.03692674    0.03918024    0.04393693
     atom   37 type  1   force =     0.00733250    0.00235965   -0.00089675
     atom   38 type  1   force =     0.00104637    0.00575021   -0.00513456
     atom   39 type  1   force =    -0.00060930    0.03959348   -0.02057873
     atom   40 type  1   force =    -0.00494319    0.00275008   -0.00024419
     atom   41 type  1   force =    -0.01914049   -0.06184912    0.02017434
     atom   42 type  1   force =     0.00699062   -0.00711008   -0.00830822
     atom   43 type  1   force =     0.03460605    0.01081370   -0.03646088
     atom   44 type  1   force =    -0.02335581    0.01969981   -0.00390717
     atom   45 type  1   force =     0.00184839   -0.00148343   -0.00074382
     atom   46 type  1   force =     0.00433251   -0.00071510    0.00320502
     atom   47 type  1   force =     0.01574983    0.00562546   -0.00397787
     atom   48 type  1   force =     0.00178061    0.00538695    0.01783399
     atom   49 type  1   force =     0.00035775   -0.00005536   -0.00072734
     atom   50 type  1   force =     0.00035070   -0.00071328    0.00041493
     atom   51 type  1   force =    -0.00013244   -0.00047927    0.00042686
     atom   52 type  1   force =     0.00010194    0.00075816   -0.00056347
     atom   53 type  1   force =    -0.00011619   -0.00000147   -0.00017353
     atom   54 type  1   force =    -0.00045374    0.00010493   -0.00023122
     atom   55 type  1   force =     0.00014165    0.00013579    0.00001821
     atom   56 type  1   force =     0.00002862   -0.00011427   -0.00014164
     atom   57 type  1   force =    -0.00013602    0.00019931    0.00019670
     atom   58 type  1   force =    -0.00003149   -0.00035422   -0.00049095
     atom   59 type  1   force =    -0.00011831   -0.00005063    0.00002147
     atom   60 type  1   force =    -0.00014913    0.00012499    0.00007868
     atom   61 type  1   force =    -0.00012506    0.00022331   -0.00033845
     atom   62 type  1   force =     0.00005110    0.00028095   -0.00036380
     atom   63 type  1   force =     0.00012018    0.00009463   -0.00010003
     atom   64 type  1   force =    -0.00000919   -0.00007520    0.00000314
     atom   65 type  2   force =     0.00113753    0.00328707    0.00056685
     atom   66 type  2   force =     0.00017846    0.00096203   -0.00236937
     atom   67 type  2   force =     0.00057903   -0.00235519   -0.00034296
     atom   68 type  2   force =     0.00032092    0.00129159    0.00152292
     atom   69 type  2   force =    -0.00162382    0.00202501    0.00597432
     atom   70 type  2   force =    -0.00030997   -0.00021380    0.00118178
     atom   71 type  2   force =     0.00220296   -0.00270089    0.00561687
     atom   72 type  2   force =     0.00368129   -0.01080562   -0.03082262
     atom   73 type  2   force =    -0.00020588   -0.00237449    0.00198317
     atom   74 type  2   force =     0.00132586    0.00184149   -0.01560846
     atom   75 type  2   force =     0.00010094    0.00010363   -0.00014243
     atom   76 type  2   force =    -0.00038794    0.00201267   -0.00286528
     atom   77 type  2   force =     0.00005062   -0.00151267   -0.00059614
     atom   78 type  2   force =    -0.00403772    0.00449497   -0.02359794
     atom   79 type  2   force =     0.00044634   -0.00203931   -0.00030342
     atom   80 type  2   force =    -0.00016893    0.00135874    0.00125308
     atom   81 type  2   force =    -0.00151175    0.00209324    0.00659174
     atom   82 type  2   force =     0.00454090   -0.00446462    0.00037133
     atom   83 type  2   force =    -0.00033566   -0.00010220    0.00117098
     atom   84 type  2   force =    -0.00220202    0.00079010    0.00000213
     atom   85 type  2   force =     0.00114960    0.00243240   -0.00296008
     atom   86 type  2   force =     0.00150639    0.00153993   -0.01555151
     atom   87 type  2   force =     0.00029760    0.00007539   -0.00029446
     atom   88 type  2   force =     0.00021836    0.00229747   -0.00280138
     atom   89 type  2   force =    -0.00030182    0.00010403    0.00008448
     atom   90 type  2   force =    -0.00055307    0.00045402    0.00000585
     atom   91 type  2   force =     0.00011533    0.00044871    0.00005468
     atom   92 type  2   force =    -0.00029341    0.00016787    0.00023361
     atom   93 type  2   force =     0.00092972    0.00018319   -0.00001051
     atom   94 type  2   force =    -0.00043899    0.00015263    0.00049295
     atom   95 type  2   force =    -0.00034358    0.00020176   -0.00014383
     atom   96 type  2   force =     0.00069039   -0.00021421   -0.00053832
     atom   97 type  2   force =     0.00033076   -0.00011599    0.00045289
     atom   98 type  2   force =     0.00017971    0.00009811    0.00020844
     atom   99 type  2   force =     0.00001672   -0.00003705   -0.00011452
     atom  100 type  2   force =     0.00007533   -0.00031237   -0.00012346
     atom  101 type  2   force =    -0.00038270    0.00003512    0.00032915
     atom  102 type  2   force =     0.00044019   -0.00036200   -0.00029241
     atom  103 type  2   force =     0.00041659   -0.00022679   -0.00010600
     atom  104 type  2   force =     0.00003746    0.00057696   -0.00011357
     atom  105 type  2   force =     0.00031072   -0.00040405   -0.00003228
     atom  106 type  2   force =    -0.00013572    0.00003089    0.00037891
     atom  107 type  2   force =    -0.00054084    0.00033740   -0.00008707
     atom  108 type  2   force =     0.00077226   -0.00069164   -0.00026478
     atom  109 type  2   force =     0.00017561    0.00026174    0.00038728
     atom  110 type  2   force =     0.00022540    0.00005221    0.00023298
     atom  111 type  2   force =     0.00004358   -0.00000034   -0.00001296
     atom  112 type  2   force =     0.00001774   -0.00037404   -0.00017906
     atom  113 type  3   force =     0.01975805   -0.00315567    0.01355516
     atom  114 type  3   force =     0.01417761    0.00371489    0.00849581
     atom  115 type  3   force =    -0.01640216    0.01439345    0.00038603
     atom  116 type  3   force =     0.00436767   -0.00624319   -0.00121567
     atom  117 type  3   force =    -0.01341427   -0.00294305   -0.00149601
     atom  118 type  3   force =    -0.00517098    0.00697551    0.00281100
     atom  119 type  3   force =    -0.01629397    0.01468111    0.00062970
     atom  120 type  3   force =     0.00474216   -0.00457718   -0.00151904
     atom  121 type  4   force =    -0.00194134   -0.04072698   -0.04072462
     atom  122 type  4   force =    -0.00364742    0.04062446   -0.04199904
     atom  123 type  4   force =     0.01173630    0.00277790    0.00813050
     atom  124 type  4   force =     0.00391962   -0.00218323   -0.00043488
     atom  125 type  5   force =     0.00023813    0.00235046    0.00166477
     atom  126 type  5   force =     0.01281774    0.01667624    0.00427668
     atom  127 type  5   force =     0.04552904   -0.02485622    0.04263806
     atom  128 type  5   force =     0.05046683    0.02889885    0.03692254
     atom  129 type  5   force =    -0.01191442   -0.00204368   -0.00154998
     atom  130 type  5   force =     0.00758340    0.01706277    0.01126231
     atom  131 type  5   force =     0.00405959   -0.00107755    0.00216817
     atom  132 type  5   force =     0.10815367   -0.01640496    0.07442633
     atom  133 type  5   force =     0.00267801   -0.00020534    0.00167461
     atom  134 type  5   force =     0.00792126    0.01209121    0.00423780
     atom  135 type  5   force =    -0.00659369   -0.00052944   -0.00069448
     atom  136 type  5   force =    -0.01206968   -0.00464826   -0.00044318
     atom  137 type  5   force =    -0.01027417    0.00022137   -0.00399126
     atom  138 type  5   force =     0.01043804    0.01236650    0.00635395
     atom  139 type  5   force =     0.10127119    0.02127399    0.02610272
     atom  140 type  5   force =     0.00199340    0.00341498    0.00261231

     Total force =     0.442309     Total SCF correction =     0.001334

     BFGS Geometry Optimization

     number of scf cycles    =   1
     number of bfgs steps    =   0

     energy   new            =   -1822.3260634007 Ry

     new trust radius        =       0.1973897611 bohr
     new conv_thr            =       0.0000010000 Ry


ATOMIC_POSITIONS (crystal)
C             0.2884268065        0.9698239835        0.5225062350
C             0.0384532554        0.0310439806        0.0223088535
C             0.3899550331        0.0131808563        0.5434673221
C             0.1390435178        0.9868513309        0.0439313913
C             0.4539130250        0.9707233376        0.6518091309
C             0.2038516976        0.0268217544        0.1500598256
C             0.2078644217        0.5298767541        0.5262179818
C             0.4600039193        0.4710086372        0.0287592051
C             0.2448005597        0.6130691417        0.6058943374
C             0.4953418805        0.3868128131        0.1105413537
C             0.2494662739        0.8897867689        0.6026445574
C             0.0012232441        0.1117917738        0.1038606482
C             0.4064349494        0.8864996592        0.7268894838
C             0.1595051310        0.1108290794        0.2283810689
C             0.0888144825        0.6106587573        0.7263481441
C             0.3406449650        0.3917747252        0.2293900472
C             0.0461582319        0.5224561409        0.6522879456
C             0.2979794478        0.4743995810        0.1523574502
C             0.1096191211        0.4847297406        0.5482510856
C             0.3568326849        0.5165360801        0.0503887608
C             0.4265188008        0.0979779842        0.4648141873
C             0.1735454307        0.9015315568        0.9633636675
C             0.0680377068        0.3945673410        0.4704339738
C             0.3161836768        0.6041593989        0.9700061023
C             0.7873097065        0.9679937220        0.5213546544
C             0.5369289022        0.0324776081        0.0231480180
C             0.8917688064        0.0127857971        0.5469078304
C             0.6411367826        0.9868344969        0.0458835734
C             0.9513949741        0.9702164767        0.6503107487
C             0.7019777013        0.0292972333        0.1474886105
C             0.7078694977        0.5298490567        0.5262037355
C             0.9599372172        0.4710487548        0.0287441918
C             0.7448320973        0.6130754049        0.6058942142
C             0.9953590379        0.3867998152        0.1105690704
C             0.7501676956        0.8887222922        0.6068786451
C             0.5026727450        0.1138875626        0.1065099712
C             0.9082864352        0.8894827071        0.7275058127
C             0.6599734647        0.1097899751        0.2275475446
C             0.5888169282        0.6106560240        0.7262920929
C             0.8406805994        0.3917492049        0.2293814232
C             0.5461339771        0.5224655632        0.6523510793
C             0.7979460214        0.4744105634        0.1523260853
C             0.6095941843        0.4847269331        0.5482380826
C             0.8568400326        0.5164884161        0.0504367610
C             0.9333875178        0.0992563178        0.4665826893
C             0.6817033351        0.8996897835        0.9658370745
C             0.5680397279        0.3947117041        0.4704711196
C             0.8161350631        0.6043996260        0.9700255394
C             0.5468894563        0.0146346608        0.6924005383
C             0.6232062290        0.0755098604        0.7393883710
C             0.2968497957        0.9728107485        0.1808109856
C             0.3208987855        0.8703800360        0.1168429786
C             0.9698929206        0.4471919380        0.6989330621
C             0.8689475832        0.4532164339        0.7452300912
C             0.5459800111        0.5121537380        0.9574169381
C             0.6204250782        0.4460321717        0.9029147050
C             0.7357784289        0.9609014220        0.3991271312
C             0.6333212075        0.9248410326        0.3760807138
C             0.4508930137        0.9972038607        0.9427561060
C             0.3747587634        0.0639872815        0.8898750523
C             0.4702863909        0.4469964361        0.6996875682
C             0.3692958212        0.4522058717        0.7459082624
C             0.0458329915        0.5122699987        0.9573418481
C             0.1200986139        0.4461008225        0.9024281619
H             0.2371726662        0.9997138951        0.4431421958
H             0.0320683305        0.9988456505        0.6733979658
H             0.2587241803        0.5007954813        0.4492643358
H             0.3226560072        0.6505605762        0.5927134382
H             0.0749048877        0.3529365667        0.0953357074
H             0.1701419913        0.8551139659        0.5886208677
H             0.4224204836        0.1476178739        0.0901752970
H             0.4534968829        0.8547164083        0.8071734812
H             0.2062321472        0.1430026657        0.3088991430
H             0.0437704735        0.6430218120        0.8058040864
H             0.2963821379        0.3575303790        0.3090436641
H             0.2189328987        0.5052860454        0.1751164239
H             0.9865395832        0.0026280820        0.9434682958
H             0.7821470241        0.9988549353        0.1713865886
H             0.7587186025        0.5008088289        0.4492663722
H             0.8226350264        0.6505634137        0.5926995400
H             0.5749102090        0.3529394498        0.0953675077
H             0.6703464968        0.8549343472        0.5885791254
H             0.9223088942        0.1477276815        0.0899463111
H             0.9532768230        0.8552063856        0.8087611096
H             0.7062858710        0.1432057811        0.3086445409
H             0.5437781663        0.6430090700        0.8058070196
H             0.7963903171        0.3575291856        0.3090358337
H             0.7189586141        0.5052980796        0.1751197148
H             0.5684543074        0.1103623956        0.5627923514
H             0.7082296022        0.0623121847        0.7208523013
H             0.6025919314        0.1411309604        0.8058948161
H             0.3486438033        0.9973810933        0.2618470321
H             0.2820633314        0.8031627407        0.1679574586
H             0.4063638862        0.8529344493        0.1100823894
H             0.0023303267        0.3663455254        0.6940795923
H             0.8296387094        0.5288849484        0.7578422736
H             0.8268174207        0.3800400990        0.7688493259
H             0.5575187999        0.5975951456        0.9606967358
H             0.6075876000        0.3600324346        0.9005761017
H             0.6907540718        0.4772568009        0.8574446411
H             0.7901461146        0.9722194840        0.3205849531
H             0.5759803528        0.9182957035        0.4539109393
H             0.6063655286        0.9037024171        0.2783715404
H             0.4418154785        0.9121533794        0.9372681506
H             0.3848221181        0.1503759267        0.8939603376
H             0.3051206121        0.0328863051        0.8377915160
H             0.5035530325        0.3664012567        0.6955685155
H             0.3287594300        0.5274127745        0.7567363627
H             0.3280957941        0.3787050596        0.7706119468
H             0.0570327562        0.5977622062        0.9608569997
H             0.1070508319        0.3601969857        0.8993763324
H             0.1905205827        0.4774621947        0.8572847777
N             0.3092857709        0.8511196571        0.7055261583
N             0.0613368914        0.1490139728        0.2064895768
N             0.1858483017        0.6509181958        0.7058578823
N             0.4389936793        0.3506641939        0.2079783868
N             0.8078679706        0.8511286415        0.7047509478
N             0.5605128238        0.1491517506        0.2061967803
N             0.6858541084        0.6509303508        0.7058704329
N             0.9390092412        0.3507345912        0.2079627616
Ni            0.2468816789        0.7497650799        0.8342284786
Ni            0.4997782913        0.2497155882        0.3370148396
Ni            0.7475062445        0.7516033802        0.8367447616
Ni            1.0001374517        0.2479067476        0.3391556013
O             0.1227896370        0.3477883186        0.3829587438
O             0.3717543935        0.6516816550        0.8815122703
O             0.3795965352        0.1464566994        0.3793740730
O             0.1272681211        0.8535731218        0.8781626949
O             0.4725633866        0.3560736443        0.4829141683
O             0.2214684496        0.6421359877        0.9804570650
O             0.0290138144        0.1351124679        0.4811896718
O             0.2813323029        0.8620648079        0.9832323274
O             0.6228938902        0.3476803232        0.3829592505
O             0.8715471618        0.6514879145        0.8815102678
O             0.8773503359        0.1474846286        0.3771422307
O             0.6245868540        0.8521555875        0.8762381738
O             0.9726305055        0.3561693541        0.4827884304
O             0.7215846433        0.6419375469        0.9802042600
O             0.5331497739        0.1360569332        0.4824224203
O             0.7767727996        0.8629023002        0.9795335469



     Writing output data file /nfs/hpc/share/gantzlen/NiPyC2_relax_sc211_meta_functionalized_CH-CH2_pbesol_relax_frozen_parent_atoms_Round2.save/
     NEW-OLD atomic charge density approx. for the potential

     Check: negative core charge=   -0.000145

     total cpu time spent up to now is     2882.0 secs

     Self-consistent Calculation

     iteration #  1     ecut=   100.00 Ry     beta= 0.70
     Davidson diagonalization with overlap
     ethr =  1.00E-06,  avg # of iterations = 18.0

     total cpu time spent up to now is     3216.9 secs

     total energy              =   -1822.35904669 Ry
     Harris-Foulkes estimate   =   -1822.38610577 Ry
     estimated scf accuracy    <       0.08752626 Ry

     total magnetization       =     8.00 Bohr mag/cell
     absolute magnetization    =     8.24 Bohr mag/cell

     iteration #  2     ecut=   100.00 Ry     beta= 0.70
     Davidson diagonalization with overlap
     ethr =  1.82E-05,  avg # of iterations =  2.0

     total cpu time spent up to now is     3285.8 secs

     total energy              =   -1822.35790359 Ry
     Harris-Foulkes estimate   =   -1822.36729425 Ry
     estimated scf accuracy    <       0.03921666 Ry

     total magnetization       =     8.00 Bohr mag/cell
     absolute magnetization    =     8.23 Bohr mag/cell

     iteration #  3     ecut=   100.00 Ry     beta= 0.70
     Davidson diagonalization with overlap
     ethr =  8.17E-06,  avg # of iterations =  2.0

     total cpu time spent up to now is     3354.4 secs

     total energy              =   -1822.35530106 Ry
     Harris-Foulkes estimate   =   -1822.36999417 Ry
     estimated scf accuracy    <       0.15098348 Ry

     total magnetization       =     8.00 Bohr mag/cell
     absolute magnetization    =     8.24 Bohr mag/cell

     iteration #  4     ecut=   100.00 Ry     beta= 0.70
     Davidson diagonalization with overlap
     ethr =  8.17E-06,  avg # of iterations =  2.0

     total cpu time spent up to now is     3422.3 secs

     total energy              =   -1822.36127230 Ry
     Harris-Foulkes estimate   =   -1822.36346144 Ry
     estimated scf accuracy    <       0.02331420 Ry

     total magnetization       =     8.00 Bohr mag/cell
     absolute magnetization    =     8.24 Bohr mag/cell

     iteration #  5     ecut=   100.00 Ry     beta= 0.70
     Davidson diagonalization with overlap
     ethr =  4.86E-06,  avg # of iterations =  1.0

     total cpu time spent up to now is     3487.9 secs

     total energy              =   -1822.36169580 Ry
     Harris-Foulkes estimate   =   -1822.36282135 Ry
     estimated scf accuracy    <       0.00753373 Ry

     total magnetization       =     8.00 Bohr mag/cell
     absolute magnetization    =     8.23 Bohr mag/cell

     iteration #  6     ecut=   100.00 Ry     beta= 0.70
     Davidson diagonalization with overlap
     ethr =  1.57E-06,  avg # of iterations =  8.0

     total cpu time spent up to now is     3564.2 secs

     total energy              =   -1822.36189514 Ry
     Harris-Foulkes estimate   =   -1822.36220813 Ry
     estimated scf accuracy    <       0.00187131 Ry

     total magnetization       =     8.00 Bohr mag/cell
     absolute magnetization    =     8.24 Bohr mag/cell

     iteration #  7     ecut=   100.00 Ry     beta= 0.70
     Davidson diagonalization with overlap
     ethr =  3.90E-07,  avg # of iterations =  3.0

     total cpu time spent up to now is     3633.9 secs

     total energy              =   -1822.36193347 Ry
     Harris-Foulkes estimate   =   -1822.36199579 Ry
     estimated scf accuracy    <       0.00039034 Ry

     total magnetization       =     8.00 Bohr mag/cell
     absolute magnetization    =     8.24 Bohr mag/cell

     iteration #  8     ecut=   100.00 Ry     beta= 0.70
     Davidson diagonalization with overlap
     ethr =  8.13E-08,  avg # of iterations =  3.0

     total cpu time spent up to now is     3704.8 secs

     total energy              =   -1822.36192166 Ry
     Harris-Foulkes estimate   =   -1822.36197727 Ry
     estimated scf accuracy    <       0.00060440 Ry

     total magnetization       =     8.00 Bohr mag/cell
     absolute magnetization    =     8.24 Bohr mag/cell

     iteration #  9     ecut=   100.00 Ry     beta= 0.70
     Davidson diagonalization with overlap
     ethr =  8.13E-08,  avg # of iterations =  1.0

     total cpu time spent up to now is     3770.5 secs

     total energy              =   -1822.36194091 Ry
     Harris-Foulkes estimate   =   -1822.36196439 Ry
     estimated scf accuracy    <       0.00027480 Ry

     total magnetization       =     8.00 Bohr mag/cell
     absolute magnetization    =     8.24 Bohr mag/cell

     iteration # 10     ecut=   100.00 Ry     beta= 0.70
     Davidson diagonalization with overlap
     ethr =  5.73E-08,  avg # of iterations =  1.5

     total cpu time spent up to now is     3836.9 secs

     total energy              =   -1822.36195131 Ry
     Harris-Foulkes estimate   =   -1822.36195431 Ry
     estimated scf accuracy    <       0.00004566 Ry

     total magnetization       =     8.00 Bohr mag/cell
     absolute magnetization    =     8.24 Bohr mag/cell

     iteration # 11     ecut=   100.00 Ry     beta= 0.70
     Davidson diagonalization with overlap
     ethr =  9.51E-09,  avg # of iterations =  3.5

     total cpu time spent up to now is     3908.2 secs

     total energy              =   -1822.36195322 Ry
     Harris-Foulkes estimate   =   -1822.36195407 Ry
     estimated scf accuracy    <       0.00001852 Ry

     total magnetization       =     8.00 Bohr mag/cell
     absolute magnetization    =     8.24 Bohr mag/cell

     iteration # 12     ecut=   100.00 Ry     beta= 0.70
     Davidson diagonalization with overlap
     ethr =  3.86E-09,  avg # of iterations =  3.0

     total cpu time spent up to now is     3978.6 secs

     total energy              =   -1822.36195389 Ry
     Harris-Foulkes estimate   =   -1822.36195441 Ry
     estimated scf accuracy    <       0.00000775 Ry

     total magnetization       =     8.00 Bohr mag/cell
     absolute magnetization    =     8.23 Bohr mag/cell

     iteration # 13     ecut=   100.00 Ry     beta= 0.70
     Davidson diagonalization with overlap
     ethr =  1.61E-09,  avg # of iterations =  2.5

     total cpu time spent up to now is     4047.3 secs

     total energy              =   -1822.36195390 Ry
     Harris-Foulkes estimate   =   -1822.36195525 Ry
     estimated scf accuracy    <       0.00002279 Ry

     total magnetization       =     8.00 Bohr mag/cell
     absolute magnetization    =     8.23 Bohr mag/cell

     iteration # 14     ecut=   100.00 Ry     beta= 0.70
     Davidson diagonalization with overlap
     ethr =  1.61E-09,  avg # of iterations =  2.0

     total cpu time spent up to now is     4114.9 secs

     total energy              =   -1822.36195483 Ry
     Harris-Foulkes estimate   =   -1822.36195474 Ry
     estimated scf accuracy    <       0.00000229 Ry

     total magnetization       =     8.00 Bohr mag/cell
     absolute magnetization    =     8.23 Bohr mag/cell

     iteration # 15     ecut=   100.00 Ry     beta= 0.70
     Davidson diagonalization with overlap
     ethr =  4.76E-10,  avg # of iterations =  3.0

     total cpu time spent up to now is     4187.7 secs

     total energy              =   -1822.36195487 Ry
     Harris-Foulkes estimate   =   -1822.36195498 Ry
     estimated scf accuracy    <       0.00000156 Ry

     total magnetization       =     8.00 Bohr mag/cell
     absolute magnetization    =     8.23 Bohr mag/cell

     iteration # 16     ecut=   100.00 Ry     beta= 0.70
     Davidson diagonalization with overlap
     ethr =  3.25E-10,  avg # of iterations =  2.0
 
     Magnetic moment per site:
     atom:    1    charge:    0.8225    magn:    0.0031    constr:    0.0000
     atom:    2    charge:    0.8233    magn:    0.0042    constr:    0.0000
     atom:    3    charge:    0.8207    magn:    0.0059    constr:    0.0000
     atom:    4    charge:    0.8279    magn:    0.0049    constr:    0.0000
     atom:    5    charge:    0.8196    magn:    0.0005    constr:    0.0000
     atom:    6    charge:    0.8213    magn:    0.0003    constr:    0.0000
     atom:    7    charge:    0.8264    magn:    0.0041    constr:    0.0000
     atom:    8    charge:    0.8193    magn:    0.0044    constr:    0.0000
     atom:    9    charge:    0.8092    magn:    0.0062    constr:    0.0000
     atom:   10    charge:    0.8168    magn:    0.0060    constr:    0.0000
     atom:   11    charge:    0.8085    magn:    0.0066    constr:    0.0000
     atom:   12    charge:    0.8079    magn:    0.0061    constr:    0.0000
     atom:   13    charge:    0.8165    magn:    0.0077    constr:    0.0000
     atom:   14    charge:    0.8089    magn:    0.0071    constr:    0.0000
     atom:   15    charge:    0.8107    magn:    0.0068    constr:    0.0000
     atom:   16    charge:    0.8114    magn:    0.0059    constr:    0.0000
     atom:   17    charge:    0.8100    magn:    0.0063    constr:    0.0000
     atom:   18    charge:    0.8194    magn:    0.0044    constr:    0.0000
     atom:   19    charge:    0.8232    magn:    0.0052    constr:    0.0000
     atom:   20    charge:    0.8176    magn:    0.0050    constr:    0.0000
     atom:   21    charge:    0.7768    magn:    0.0013    constr:    0.0000
     atom:   22    charge:    0.7718    magn:    0.0018    constr:    0.0000
     atom:   23    charge:    0.7954    magn:   -0.0013    constr:    0.0000
     atom:   24    charge:    0.7972    magn:   -0.0007    constr:    0.0000
     atom:   25    charge:    0.8206    magn:    0.0045    constr:    0.0000
     atom:   26    charge:    0.8212    magn:    0.0044    constr:    0.0000
     atom:   27    charge:    0.8171    magn:    0.0057    constr:    0.0000
     atom:   28    charge:    0.8197    magn:    0.0048    constr:    0.0000
     atom:   29    charge:    0.8205    magn:    0.0040    constr:    0.0000
     atom:   30    charge:    0.8211    magn:    0.0056    constr:    0.0000
     atom:   31    charge:    0.8263    magn:    0.0043    constr:    0.0000
     atom:   32    charge:    0.8194    magn:    0.0046    constr:    0.0000
     atom:   33    charge:    0.8088    magn:    0.0062    constr:    0.0000
     atom:   34    charge:    0.8164    magn:    0.0061    constr:    0.0000
     atom:   35    charge:    0.8187    magn:    0.0063    constr:    0.0000
     atom:   36    charge:    0.8194    magn:    0.0059    constr:    0.0000
     atom:   37    charge:    0.8114    magn:    0.0060    constr:    0.0000
     atom:   38    charge:    0.8097    magn:    0.0060    constr:    0.0000
     atom:   39    charge:    0.8106    magn:    0.0066    constr:    0.0000
     atom:   40    charge:    0.8112    magn:    0.0059    constr:    0.0000
     atom:   41    charge:    0.8100    magn:    0.0065    constr:    0.0000
     atom:   42    charge:    0.8194    magn:    0.0046    constr:    0.0000
     atom:   43    charge:    0.8234    magn:    0.0051    constr:    0.0000
     atom:   44    charge:    0.8173    magn:    0.0053    constr:    0.0000
     atom:   45    charge:    0.7963    magn:   -0.0016    constr:    0.0000
     atom:   46    charge:    0.7968    magn:   -0.0013    constr:    0.0000
     atom:   47    charge:    0.7946    magn:   -0.0012    constr:    0.0000
     atom:   48    charge:    0.7985    magn:   -0.0010    constr:    0.0000
     atom:   49    charge:    0.8194    magn:    0.0169    constr:    0.0000
     atom:   50    charge:    0.8239    magn:    0.0037    constr:    0.0000
     atom:   51    charge:    0.8124    magn:    0.0130    constr:    0.0000
     atom:   52    charge:    0.7973    magn:   -0.0004    constr:    0.0000
     atom:   53    charge:    0.8170    magn:    0.0060    constr:    0.0000
     atom:   54    charge:    0.8161    magn:    0.0134    constr:    0.0000
     atom:   55    charge:    0.8236    magn:    0.0058    constr:    0.0000
     atom:   56    charge:    0.8129    magn:    0.0121    constr:    0.0000
     atom:   57    charge:    0.8256    magn:    0.0039    constr:    0.0000
[...]
     atom   38 type  1   force =     0.00045015    0.00049538    0.00018123
     atom   39 type  1   force =     0.00001208    0.00011818    0.00029184
     atom   40 type  1   force =    -0.00019023    0.00001441   -0.00013065
     atom   41 type  1   force =    -0.00002588    0.00009596    0.00007224
     atom   42 type  1   force =     0.00023089   -0.00036207    0.00029870
     atom   43 type  1   force =     0.00029842   -0.00056498    0.00058449
     atom   44 type  1   force =     0.00028035    0.00012898    0.00030129
     atom   45 type  1   force =    -0.00044701    0.00015031    0.00045778
     atom   46 type  1   force =    -0.00033302    0.00064879    0.00012423
     atom   47 type  1   force =    -0.00022205    0.00054687   -0.00015451
     atom   48 type  1   force =    -0.00016914   -0.00063361   -0.00062206
     atom   49 type  1   force =    -0.00009494    0.00012577   -0.00025383
     atom   50 type  1   force =    -0.00001955    0.00062367   -0.00041537
     atom   51 type  1   force =     0.00068698    0.00020607   -0.00023795
     atom   52 type  1   force =     0.00030395   -0.00012911    0.00006063
     atom   53 type  1   force =    -0.00062897   -0.00017276   -0.00015891
     atom   54 type  1   force =     0.00022536    0.00062198   -0.00001069
     atom   55 type  1   force =     0.00037954    0.00036932   -0.00059543
     atom   56 type  1   force =     0.00001356   -0.00011223    0.00050334
     atom   57 type  1   force =    -0.00005146    0.00008223   -0.00020360
     atom   58 type  1   force =    -0.00004187   -0.00026513   -0.00021833
     atom   59 type  1   force =    -0.00015201    0.00046778   -0.00041425
     atom   60 type  1   force =     0.00042441   -0.00033366   -0.00006087
     atom   61 type  1   force =    -0.00031183   -0.00019473    0.00051540
     atom   62 type  1   force =     0.00036290    0.00035715   -0.00004953
     atom   63 type  1   force =    -0.00019314   -0.00020716   -0.00013286
     atom   64 type  1   force =    -0.00056789    0.00032990    0.00033347
     atom   65 type  2   force =     0.00004580   -0.00008046    0.00008253
     atom   66 type  2   force =    -0.00002323   -0.00037065    0.00009404
     atom   67 type  2   force =    -0.00004219    0.00047293   -0.00056044
     atom   68 type  2   force =    -0.00002753   -0.00038639    0.00006515
     atom   69 type  2   force =     0.00057860   -0.00068682   -0.00039795
     atom   70 type  2   force =     0.00018206   -0.00011222   -0.00016278
     atom   71 type  2   force =    -0.00038962    0.00014550   -0.00035280
     atom   72 type  2   force =    -0.00017256    0.00040663   -0.00005201
     atom   73 type  2   force =    -0.00001285    0.00014416    0.00002270
     atom   74 type  2   force =    -0.00020358    0.00036730   -0.00047482
     atom   75 type  2   force =     0.00081196   -0.00021523    0.00061705
     atom   76 type  2   force =    -0.00016229   -0.00003965    0.00027594
     atom   77 type  2   force =    -0.00027416   -0.00021940   -0.00006227
     atom   78 type  2   force =    -0.00004169    0.00046088    0.00002986
     atom   79 type  2   force =     0.00037020    0.00070004    0.00036314
     atom   80 type  2   force =     0.00028691    0.00019248    0.00052568
     atom   81 type  2   force =     0.00042399   -0.00011429    0.00038894
     atom   82 type  2   force =    -0.00010248    0.00030191    0.00010816
     atom   83 type  2   force =     0.00062270   -0.00064016   -0.00045412
     atom   84 type  2   force =    -0.00037703   -0.00000007    0.00010023
     atom   85 type  2   force =     0.00003455    0.00004466    0.00006649
     atom   86 type  2   force =    -0.00001560    0.00005071   -0.00002903
     atom   87 type  2   force =    -0.00022745   -0.00033204    0.00073418
     atom   88 type  2   force =     0.00051754   -0.00036557    0.00008772
     atom   89 type  2   force =    -0.00009048    0.00016772    0.00000981
     atom   90 type  2   force =     0.00006701   -0.00025612   -0.00016356
     atom   91 type  2   force =    -0.00010284    0.00025770    0.00005334
     atom   92 type  2   force =    -0.00053917    0.00002451   -0.00034443
     atom   93 type  2   force =    -0.00002735   -0.00012021    0.00043648
     atom   94 type  2   force =     0.00049048   -0.00002185    0.00071555
     atom   95 type  2   force =    -0.00036253   -0.00031838   -0.00080557
     atom   96 type  2   force =    -0.00001993    0.00027259    0.00038488
     atom   97 type  2   force =     0.00009837   -0.00053464    0.00001168
     atom   98 type  2   force =    -0.00031328    0.00074936    0.00018937
     atom   99 type  2   force =     0.00017837   -0.00033974    0.00045110
     atom  100 type  2   force =     0.00014737   -0.00022785   -0.00020049
     atom  101 type  2   force =    -0.00013489    0.00004443   -0.00035310
     atom  102 type  2   force =     0.00038470   -0.00015598   -0.00042250
     atom  103 type  2   force =    -0.00015347   -0.00023024    0.00030045
     atom  104 type  2   force =    -0.00016807    0.00004723   -0.00018748
     atom  105 type  2   force =     0.00026699   -0.00015038   -0.00026031
     atom  106 type  2   force =    -0.00003682    0.00044555    0.00052237
     atom  107 type  2   force =    -0.00016639   -0.00011031   -0.00019612
     atom  108 type  2   force =    -0.00006481   -0.00013867    0.00007181
     atom  109 type  2   force =     0.00004265   -0.00021050   -0.00017137
     atom  110 type  2   force =     0.00016764   -0.00030396    0.00034129
     atom  111 type  2   force =    -0.00020834    0.00099274   -0.00014996
     atom  112 type  2   force =     0.00000360   -0.00052530   -0.00007960
     atom  113 type  3   force =    -0.00046826   -0.00090050    0.00048333
     atom  114 type  3   force =     0.00020009   -0.00028387    0.00013570
     atom  115 type  3   force =     0.00049249    0.00048288    0.00008578
     atom  116 type  3   force =     0.00021938   -0.00023602    0.00017845
     atom  117 type  3   force =     0.00010587    0.00015344   -0.00013783
     atom  118 type  3   force =     0.00009966   -0.00046638   -0.00030092
     atom  119 type  3   force =     0.00015296   -0.00006714    0.00003206
     atom  120 type  3   force =     0.00006495    0.00066628   -0.00012518
     atom  121 type  4   force =     0.00056351   -0.00026371    0.00053210
     atom  122 type  4   force =    -0.00014531    0.00064119   -0.00022658
     atom  123 type  4   force =    -0.00006484    0.00004088   -0.00016864
     atom  124 type  4   force =     0.00079122    0.00072480    0.00009407
     atom  125 type  5   force =    -0.00086791   -0.00061319   -0.00081429
     atom  126 type  5   force =    -0.00019927    0.00063040    0.00031869
     atom  127 type  5   force =    -0.00000261   -0.00038896   -0.00031672
     atom  128 type  5   force =    -0.00002050    0.00004326   -0.00030334
     atom  129 type  5   force =    -0.00018614   -0.00000850    0.00000886
     atom  130 type  5   force =    -0.00000501    0.00003696   -0.00008081
     atom  131 type  5   force =    -0.00021842    0.00042972   -0.00041516
     atom  132 type  5   force =    -0.00061633    0.00024501    0.00025380
     atom  133 type  5   force =     0.00033545   -0.00023614    0.00049384
     atom  134 type  5   force =    -0.00011638    0.00001960    0.00059843
     atom  135 type  5   force =    -0.00006529   -0.00054295    0.00031135
     atom  136 type  5   force =    -0.00010204    0.00012029    0.00039280
     atom  137 type  5   force =     0.00020309   -0.00053804    0.00029458
     atom  138 type  5   force =     0.00003410    0.00049943   -0.00033797
     atom  139 type  5   force =     0.00037520    0.00016634   -0.00002642
     atom  140 type  5   force =    -0.00001725   -0.00023745   -0.00080363

     Total force =     0.007023     Total SCF correction =     0.000105

     bfgs converged in  74 scf cycles and  73 bfgs steps
     (criteria: energy <  1.0E-04 Ry, force <  1.0E-03 Ry/Bohr)

     End of BFGS Geometry Optimization

     Final energy   =   -1822.6139827592 Ry
Begin final coordinates

ATOMIC_POSITIONS (crystal)
C             0.2879210122        0.9877793048        0.5415383544
C             0.0324709950        0.0225914369        0.0258049455
C             0.3961824446        0.0142424311        0.5498207162
C             0.1316320280        0.9774021707        0.0568788837
C             0.4636479863        0.9533008398        0.6372911303
C             0.1907130467        0.0169968143        0.1666122102
C             0.2123472511        0.5220338455        0.5063644573
C             0.4670593291        0.4868100923        0.0495943815
C             0.2425992410        0.6105421610        0.5822408744
C             0.4890037188        0.3936188138        0.1226740716
C             0.2480257718        0.9036634198        0.6151356388
C            -0.0064703611        0.1042360671        0.1048651970
C             0.4181321468        0.8609263852        0.6974878899
C             0.1471775016        0.1029808041        0.2381798369
C             0.0861607273        0.6018356600        0.7006442607
C             0.3221958496        0.3951067965        0.2176538497
C             0.0562106135        0.5039347465        0.6400607431
C             0.2916365957        0.4846354306        0.1434845789
C             0.1179309489        0.4686267176        0.5346737398
C             0.3640063357        0.5329061849        0.0596234496
C             0.4369311831        0.1033780386        0.4746862480
C             0.1797501869        0.8927516569        0.9810281305
C             0.0742611882        0.3799003566        0.4571596360
C             0.3267731132        0.6212688538        0.9763313491
C             0.7893692741        0.9380134409        0.5074054879
C             0.5161020719        0.0360806117        0.0226701913
C             0.8842307053       -0.0040716216        0.5392771504
C             0.6234017417        0.9982632702        0.0307597465
C             0.9434701108        0.9669575010        0.6506752183
C             0.6948997249        0.0554495492        0.1105758381
C             0.7210624641        0.5275263061        0.5247340864
C             0.9694510329        0.4749581911        0.0531082537
C             0.7510702347        0.6103698268        0.6100226525
C             0.9909790491        0.3810476539        0.1263450591
C             0.7563312677        0.8600222079        0.5981203828
C             0.4855682419        0.1167961207        0.1113309279
C             0.9056983649        0.8872303974        0.7331539067
C             0.6584507754        0.1361395464        0.1932709070
C             0.5893663258        0.6017006464        0.7166098485
C             0.8302936426        0.3922655071        0.2324576000
C             0.5600164152        0.5069820587        0.6482719029
C             0.8010236825        0.4843367087        0.1619622897
C             0.6239601347        0.4758655749        0.5431284360
C             0.8711700777        0.5291276384        0.0728581892
C             0.9226098386        0.0874377837        0.4630892166
C             0.6661631631        0.9044235233        0.9601382335
C             0.5787866101        0.3935366436        0.4572340132
C             0.8352748917        0.6238421606        0.9970768233
C             0.5614273513       -0.0105246045        0.6783735098
C             0.6383929006        0.0477613955        0.7289159347
C             0.2848236802        0.9683412504        0.2078760585
C             0.3239440124        0.8740422921        0.1415419632
C             0.9753373459        0.4367795243        0.6927583192
C             0.8884008234        0.4707444219        0.7595786086
C             0.5552707164        0.5279091573        0.9807264982
C             0.6330889784        0.4629686066        0.9313268962
C             0.7280182155        0.9528990221        0.3907078460
C             0.6287339050        0.9110285362        0.3642400007
C             0.4372016691        0.9990105185        0.9318104385
C             0.3505304637        0.0572991581        0.8900712881
C             0.4769336314        0.4377635393        0.6924146618
C             0.3830341842        0.4686626132        0.7460327164
C             0.0513465182        0.5097044530        0.9700067720
C             0.1292421972        0.4440551024        0.9217516219
H             0.2324274690        1.0349807592        0.4826080990
H             0.0179213427        1.0074370209        0.6759806979
H             0.2645556519        0.4952977556        0.4297390869
H             0.3172668392        0.6527432523        0.5667606298
H             0.0670706348        0.3403130027        0.1175094063
H             0.1632535224        0.8846689713        0.6158924068
H             0.4024317314        0.1418893814        0.1150021475
H             0.4682787440        0.8084434560        0.7568710209
H             0.1912715691        0.1377963495        0.3202087160
H             0.0356471404        0.6377553944        0.7735335576
H             0.2680695775        0.3581038648        0.2859307819
H             0.2116698871        0.5168221153        0.1538066123
H             0.9837104181       -0.0048208278        0.9437507390
H             0.7790483941        1.0339858676        0.1142592383
H             0.7751088222        0.5038270776        0.4484736780
H             0.8272624107        0.6509809843        0.6009945122
H             0.5673279153        0.3566463437        0.1185010524
H             0.6832578942        0.8149460044        0.5806182718
H             0.9158725540        0.1411060485        0.0866646139
H             0.9496195172        0.8622397833        0.8202116663
H             0.7118538672        0.1768682357        0.2614266959
H             0.5348385317        0.6361266703        0.7860653562
H             0.7777011896        0.3590632407        0.3047675791
H             0.7239006177        0.5207760771        0.1796568167
H             0.5792795319        0.0997459548        0.5565585271
H             0.7226048300        0.0409521582        0.7028405656
H             0.6186269634        0.1053816489        0.8057114486
H             0.3283457982        0.9966702117        0.2939471309
H             0.3106601656        0.8014766696        0.2017939559
H             0.4107069835        0.8767420623        0.1252067672
H            -0.0135163672        0.3514435960        0.6784001200
H             0.8786703608        0.5546787931        0.7819637985
H             0.8292836850        0.4139612310        0.7925270990
H             0.5603048680        0.6138046552        0.9696953852
H             0.6260619403        0.3763913060        0.9353733243
H             0.7007302395        0.4966871413        0.8825694971
H             0.7648954725        1.0035825183        0.3187683358
H             0.5864785028        0.8620087167        0.4338614595
H             0.5892098574        0.9282980562        0.2714329311
H             0.4508510819        0.9195641280        0.8932293658
H             0.3367555277        0.1380485510        0.9252628130
H             0.2953454373        0.0250713492        0.8171152464
H             0.4929988215        0.3526933411        0.6820495568
H             0.3663088487        0.5525307877        0.7601033769
H             0.3243142631        0.4093676611        0.7732152546
H             0.0504561078        0.5936920806        0.9450785515
H             0.1292084818        0.3581850257        0.9386784282
H             0.1902968585        0.4772008159        0.8609441366
N             0.3130030860        0.8417567072        0.6918954772
N             0.0500398660        0.1421953109        0.2092391976
N             0.1807424851        0.6487109187        0.6790252992
N             0.4206554734        0.3518728032        0.2064235848
N             0.8110164009        0.8379834175        0.7080066364
N             0.5534839564        0.1618775527        0.1972675451
N             0.6862434847        0.6468798236        0.7051359350
N             0.9246243198        0.3423029530        0.2142682900
Ni            0.2475488544        0.7440155240        0.8187733539
Ni            0.4937317874        0.2561020591        0.3311313559
Ni            0.7454655784        0.7507641422        0.8444594290
Ni            0.9872393761        0.2370538170        0.3397828753
O             0.1248896647        0.3260577531        0.3726679526
O             0.3848908039        0.6731985519        0.8957803779
O             0.3816951692        0.1544506323        0.3915266601
O             0.1409909074        0.8538181514        0.8774930099
O             0.4797998215        0.3648806529        0.4678946241
O             0.2274147297        0.6484659185        0.9711745514
O             0.0180067737        0.1240081514        0.4786147248
O             0.2754900922        0.8534563918        1.0160918537
O             0.6279761748        0.3445867626        0.3668324037
O             0.8896260884        0.6727849118        0.9105953189
O             0.8648643340        0.1392860600        0.3787770359
O             0.6102269817        0.8379029757        0.8913150314
O             0.9753058578        0.3515999874        0.4695247451
O             0.7389253012        0.6593126651        1.0055965267
O             0.5383229040        0.1357182905        0.4844464306
O             0.7663959374        0.8830015638        0.9657812472
End final coordinates



     Writing output data file /nfs/hpc/share/gantzlen/NiPyC2_relax_sc211_meta_functionalized_CH-CH2_pbesol_relax_frozen_parent_atoms_Round2.save/
 
     init_run     :     63.86s CPU     74.57s WALL (       1 calls)
     electrons    :  72159.28s CPU  77600.01s WALL (      74 calls)
     update_pot   :    835.80s CPU    877.41s WALL (      73 calls)
     forces       :   1622.46s CPU   1697.16s WALL (      74 calls)

     Called by init_run:
     wfcinit      :     49.42s CPU     59.23s WALL (       1 calls)
     potinit      :      5.98s CPU      6.63s WALL (       1 calls)
     hinit0       :      5.41s CPU      5.62s WALL (       1 calls)

     Called by electrons:
     c_bands      :  67697.94s CPU  72135.94s WALL (     958 calls)
     sum_band     :   2830.35s CPU   3426.47s WALL (     958 calls)
     v_of_rho     :    862.70s CPU   1009.50s WALL (    1021 calls)
     mix_rho      :    749.89s CPU    951.22s WALL (     958 calls)

     Called by c_bands:
     init_us_2    :     55.25s CPU     56.84s WALL (    1917 calls)
     regterg      :  67494.86s CPU  71576.66s WALL (     958 calls)

     Called by sum_band:

     Called by *egterg:
     h_psi        :  24130.16s CPU  26666.82s WALL (    3318 calls)
     g_psi        :     18.22s CPU     18.41s WALL (    2359 calls)
     rdiaghg      :   2805.92s CPU   2833.72s WALL (    3233 calls)

     Called by h_psi:
     h_psi:calbec :   7168.10s CPU   7434.64s WALL (    3318 calls)
     vloc_psi     :   9828.70s CPU  12079.72s WALL (    3318 calls)
     add_vuspsi   :   7085.57s CPU   7103.87s WALL (    3318 calls)

     General routines
     calbec       :   8149.59s CPU   8450.54s WALL (    3614 calls)
     fft          :    498.45s CPU    672.75s WALL (   16150 calls)
     ffts         :    527.94s CPU    681.71s WALL (   16757 calls)
     fftw         :  10477.06s CPU  13217.39s WALL (  772746 calls)
 
     Parallel routines
     fft_scatt_xy :   1855.45s CPU   1912.82s WALL (  805653 calls)
     fft_scatt_yz :   2413.10s CPU   5231.05s WALL (  805653 calls)
 
     PWSCF        :     20h45m CPU     22h18m WALL

 
   This run was terminated on:   8:41: 2   9Jul2020            

=------------------------------------------------------------------------------=
   JOB DONE.
=------------------------------------------------------------------------------=
QE finished Thu Jul 9 08:41:02 PDT 2020
