
     Program PWSCF v.6.4.1 starts on 29Apr2020 at  7:36:54 

     This program is part of the open-source Quantum ESPRESSO suite
     for quantum simulation of materials; please cite
         "P. Giannozzi et al., J. Phys.:Condens. Matter 21 395502 (2009);
         "P. Giannozzi et al., J. Phys.:Condens. Matter 29 465901 (2017);
          URL http://www.quantum-espresso.org", 
     in publications or presentations arising from this work. More details at
     http://www.quantum-espresso.org/quote

     Parallel version (MPI & OpenMP), running on     128 processor cores
     Number of MPI processes:               128
     Threads/MPI process:                     1

     MPI processes distributed on     2 nodes
     K-points division:     npool     =       2
     R & G space division:  proc/nbgrp/npool/nimage =      64
     Reading input from nipyc_from_cif.inp

     Current dimensions of program PWSCF are:
     Max number of different atomic species (ntypx) = 10
     Max number of k-points (npk) =  40000
     Max angular momentum in pseudopotentials (lmaxx) =  3

     -------------------------------------------------
     Parameters for Dispersion (Grimme-D2) Correction:
     -------------------------------------------------
       atom      VdW radius       C_6     

        Ni1        2.952        374.666
        Ni2        2.952        374.666
        H          1.892          4.857
        O          2.536         24.284
        N          2.640         42.670
        C          2.744         60.710

     gamma-point specific algorithms are used

     Subspace diagonalization in iterative solution of the eigenvalue problem:
     one sub-group per band group will be used
     scalapack distributed-memory algorithm (size of sub-group:  5*  5 procs)

 
     Parallelization info
     --------------------
     sticks:   dense  smooth     PW     G-vecs:    dense   smooth      PW
     Min         138     138     34                11454    11454    1426
     Max         140     140     36                11468    11468    1444
     Sum        8917    8917   2219               733525   733525   91637
 

     Title: 
     nipyc_from_cif                                                             


     bravais-lattice index     =            0
     lattice parameter (alat)  =      11.8161  a.u.
     unit-cell volume          =    5429.3119 (a.u.)^3
     number of atoms/cell      =           54
     number of atomic types    =            6
     number of electrons       =       200.00 (up: 102.00, down:  98.00)
     number of Kohn-Sham states=          122
     kinetic-energy cutoff     =     100.0000  Ry
     charge density cutoff     =     400.0000  Ry
     convergence threshold     =      1.0E-06
     mixing beta               =       0.7000
     number of iterations used =            8  local-TF  mixing
     Exchange-correlation      = PBESOL ( 1  4 10  8 0 0)
     nstep                     =          200


     celldm(1)=  11.816080  celldm(2)=   0.000000  celldm(3)=   0.000000
     celldm(4)=   0.000000  celldm(5)=   0.000000  celldm(6)=   0.000000

     crystal axes: (cart. coord. in units of alat)
               a(1) = (   1.000000   0.000000   0.000000 )  
               a(2) = (   0.000000   2.002847   0.000000 )  
               a(3) = (  -0.036399   0.000000   1.643149 )  

     reciprocal axes: (cart. coord. in units 2 pi/alat)
               b(1) = (  1.000000  0.000000  0.022152 )  
               b(2) = (  0.000000  0.499289  0.000000 )  
               b(3) = (  0.000000  0.000000  0.608588 )  


     PseudoPot. # 1 for Ni read from file:
     pseudo/Ni.pbesol-n-nc.UPF
     MD5 check sum: edf8e57b53144cd06b183e33dc393044
     Pseudo is Norm-conserving + core correction, Zval = 10.0
     Generated using "atomic" code by A. Dal Corso v.6.2 svn rev. 13949:13950
     Using radial grid of 1195 points,  2 beta functions with: 
                l(1) =   1
                l(2) =   2

     PseudoPot. # 2 for Ni read from file:
     pseudo/Ni.pbesol-n-nc.UPF
     MD5 check sum: edf8e57b53144cd06b183e33dc393044
     Pseudo is Norm-conserving + core correction, Zval = 10.0
     Generated using "atomic" code by A. Dal Corso v.6.2 svn rev. 13949:13950
     Using radial grid of 1195 points,  2 beta functions with: 
                l(1) =   1
                l(2) =   2

     PseudoPot. # 3 for H  read from file:
     pseudo/H.pbesol-n-nc.UPF
     MD5 check sum: 95e7839de2ad228c76493ec3b5404ce3
     Pseudo is Norm-conserving, Zval =  1.0
     Generated using "atomic" code by A. Dal Corso v.6.2 svn rev. 13949:13950
     Using radial grid of  929 points,  0 beta functions with: 

     PseudoPot. # 4 for O  read from file:
     pseudo/O.pbesol-nc.UPF
     MD5 check sum: 84b06decddbe1da0041c21d855b8c3e0
     Pseudo is Norm-conserving, Zval =  6.0
     Generated using "atomic" code by A. Dal Corso v.6.2 svn rev. 13949:13950
     Using radial grid of 1095 points,  1 beta functions with: 
                l(1) =   1

     PseudoPot. # 5 for N  read from file:
     pseudo/N.pbesol-nc.UPF
     MD5 check sum: cfd375ffefd4cc6291ee4f2a9be5669e
     Pseudo is Norm-conserving, Zval =  5.0
     Generated using "atomic" code by A. Dal Corso v.6.2 svn rev. 13949:13950
     Using radial grid of 1085 points,  1 beta functions with: 
                l(1) =   1

     PseudoPot. # 6 for C  read from file:
     pseudo/C.pbesol-nc.UPF
     MD5 check sum: 8bd801d64030d018287f06c43cd365d7
     Pseudo is Norm-conserving, Zval =  4.0
     Generated using "atomic" code by A. Dal Corso v.6.2 svn rev. 13949:13950
     Using radial grid of 1073 points,  1 beta functions with: 
                l(1) =   1

     atomic species   valence    mass     pseudopotential
        Ni1           10.00    58.69000     Ni( 1.00)
        Ni2           10.00    58.69000     Ni( 1.00)
        H              1.00     1.00000     H ( 1.00)
        O              6.00    16.00000     O ( 1.00)
        N              5.00    65.38000     N ( 1.00)
        C              4.00    65.38000     C ( 1.00)

     Starting magnetic structure 
     atomic species   magnetization
        Ni1          0.250
        Ni2          0.250
        H            0.000
        O            0.000
        N            0.000
        C            0.000

     No symmetry found



   Cartesian axes

     site n.     atom                  positions (alat units)
         1           Ni1 tau(   1) = (   0.4642458   1.5100664   1.3793082  )
         2           Ni2 tau(   2) = (   0.9824452   0.4927804   0.5577339  )
         3           O   tau(   3) = (   0.2269990   0.7002353   0.6455931  )
         4           O   tau(   4) = (   0.7087996   1.3026115   1.4671674  )
         5           O   tau(   5) = (   0.7414252   0.2665388   0.6082936  )
         6           O   tau(   6) = (   0.2232258   1.7363079   1.4298679  )
         7           O   tau(   7) = (   0.9187989   0.7054627   0.8171378  )
         8           O   tau(   8) = (   0.4005996   1.2973841   1.6387121  )
         9           O   tau(   9) = (   0.0492397   0.2399410   0.7791811  )
        10           O   tau(  10) = (   0.5310404   1.7629057   1.6007554  )
        11           N   tau(  11) = (   0.6025592   1.6881995   1.1439601  )
        12           N   tau(  12) = (   0.1207586   0.3146472   0.3223858  )
        13           N   tau(  13) = (   0.3350713   1.2940393   1.1750156  )
        14           N   tau(  14) = (   0.8532706   0.7088075   0.3534413  )
        15           C   tau(  15) = (   0.5691129   1.9213309   0.8435925  )
        16           C   tau(  16) = (   0.0873123   0.0815159   0.0220182  )
        17           H   tau(  17) = (   0.4840353   1.9752075   0.7297223  )
        18           H   tau(  18) = (  -0.0341640   0.0276393   1.5512966  )
        19           C   tau(  19) = (   0.7737740   1.9988411   0.8769484  )
        20           C   tau(  20) = (   0.2919734   0.0040057   0.0553741  )
        21           C   tau(  21) = (   0.8939723   1.9119175   1.0440566  )
        22           C   tau(  22) = (   0.4121716   0.0909292   0.2224823  )
        23           H   tau(  23) = (   0.0365226   1.9583836   1.0688682  )
        24           H   tau(  24) = (   0.5547220   0.0444632   0.2472939  )
        25           C   tau(  25) = (   0.3878955   1.0396778   0.8940372  )
        26           C   tau(  26) = (   0.9060948   0.9631690   0.0724629  )
        27           H   tau(  27) = (   0.4777087   0.9833978   0.7850964  )
        28           H   tau(  28) = (   0.9595093   1.0194490   1.6066707  )
        29           C   tau(  29) = (   0.4576709   1.2081172   1.0215455  )
        30           C   tau(  30) = (   0.9758703   0.7947296   0.1999712  )
        31           H   tau(  31) = (   0.5969732   1.2643972   0.9988700  )
        32           H   tau(  32) = (   0.1151726   0.7384496   0.1772957  )
        33           C   tau(  33) = (   0.4898428   1.7643077   0.9776734  )
        34           C   tau(  34) = (   0.0080421   0.2385391   0.1560991  )
        35           H   tau(  35) = (   0.3510215   1.7084283   0.9515474  )
        36           H   tau(  36) = (   0.8692209   0.2944185   0.1299731  )
        37           C   tau(  37) = (   0.8025222   1.7578986   1.1727152  )
        38           C   tau(  38) = (   0.3207216   0.2449482   0.3511409  )
        39           H   tau(  39) = (   0.8848144   1.6990149   1.2859281  )
        40           H   tau(  40) = (   0.4030137   0.3038319   0.4643538  )
        41           C   tau(  41) = (   0.1377615   1.2107209   1.2070570  )
        42           C   tau(  42) = (   0.6559609   0.7921259   0.3854827  )
        43           H   tau(  43) = (   0.0501556   1.2710066   1.3156691  )
        44           H   tau(  44) = (   0.5683549   0.7318402   0.4940948  )
        45           C   tau(  45) = (   0.0584822   1.0420812   1.0887503  )
        46           C   tau(  46) = (   0.5766816   0.9607656   0.2671760  )
        47           H   tau(  47) = (   0.9198816   0.9864020   1.1158622  )
        48           H   tau(  48) = (   0.4380810   1.0164447   0.2942879  )
        49           C   tau(  49) = (   0.1873493   0.9553579   0.9277217  )
        50           C   tau(  50) = (   0.7055486   1.0474889   0.1061474  )
        51           C   tau(  51) = (   0.8614386   0.1788542   0.7476326  )
        52           C   tau(  52) = (   0.3432392   1.8239926   1.5692069  )
        53           C   tau(  53) = (   0.1044740   0.7734994   0.7911761  )
        54           C   tau(  54) = (   0.5862747   1.2293474   1.6127504  )

     number of k points=     1  Marzari-Vanderbilt smearing, width (Ry)=  0.2000
                       cart. coord. in units 2pi/alat
        k(    1) = (   0.0000000   0.0000000   0.0000000), wk =   1.0000000

     Dense  grid:   366763 G-vectors     FFT dimensions: (  75, 160, 125)

     Estimated max dynamical RAM per process >      26.42 MB

     Estimated total dynamical RAM >       3.30 GB
     Generating pointlists ...
     new r_m :   0.1337 (alat units)  1.5801 (a.u.) for type    1
     new r_m :   0.1337 (alat units)  1.5801 (a.u.) for type    2
     new r_m :   0.0626 (alat units)  0.7399 (a.u.) for type    3
     new r_m :   0.0823 (alat units)  0.9721 (a.u.) for type    4
     new r_m :   0.0882 (alat units)  1.0416 (a.u.) for type    5
     new r_m :   0.0626 (alat units)  0.7399 (a.u.) for type    6

     Check: negative core charge=   -0.000145

     Initial potential from superposition of free atoms

     starting charge  199.99832, renormalised to  200.00000

     negative rho (up, down):  0.000E+00 5.260E-04
     Starting wfcs are  178 randomized atomic wfcs

     total cpu time spent up to now is       16.9 secs

     Self-consistent Calculation

     iteration #  1     ecut=   100.00 Ry     beta= 0.70
     Davidson diagonalization with overlap
     ethr =  1.00E-02,  avg # of iterations =  4.0

     negative rho (up, down):  0.000E+00 5.933E-05

     total cpu time spent up to now is       19.7 secs

     total energy              =    -808.50799848 Ry
     Harris-Foulkes estimate   =    -813.54069941 Ry
     estimated scf accuracy    <      13.16916700 Ry

     total magnetization       =     4.00 Bohr mag/cell
     absolute magnetization    =     4.57 Bohr mag/cell

     iteration #  2     ecut=   100.00 Ry     beta= 0.70
     Davidson diagonalization with overlap
     ethr =  6.58E-03,  avg # of iterations =  2.0

     negative rho (up, down):  1.358E-05 1.073E-04

     total cpu time spent up to now is       21.4 secs

     total energy              =    -810.77811591 Ry
     Harris-Foulkes estimate   =    -813.09985775 Ry
     estimated scf accuracy    <      10.77525574 Ry

     total magnetization       =     4.00 Bohr mag/cell
     absolute magnetization    =     4.10 Bohr mag/cell

     iteration #  3     ecut=   100.00 Ry     beta= 0.70
     Davidson diagonalization with overlap
     ethr =  5.39E-03,  avg # of iterations =  1.0

     negative rho (up, down):  1.051E-04 4.467E-05

     total cpu time spent up to now is       22.8 secs

     total energy              =    -810.33249172 Ry
     Harris-Foulkes estimate   =    -811.13855184 Ry
     estimated scf accuracy    <       2.70562619 Ry

     total magnetization       =     4.00 Bohr mag/cell
     absolute magnetization    =     4.10 Bohr mag/cell

     iteration #  4     ecut=   100.00 Ry     beta= 0.70
     Davidson diagonalization with overlap
     ethr =  1.35E-03,  avg # of iterations =  5.0

     negative rho (up, down):  5.250E-06 9.667E-05

     total cpu time spent up to now is       24.7 secs

     total energy              =    -810.36398739 Ry
     Harris-Foulkes estimate   =    -811.20942867 Ry
     estimated scf accuracy    <       7.22477675 Ry

     total magnetization       =     4.00 Bohr mag/cell
     absolute magnetization    =     4.12 Bohr mag/cell

     iteration #  5     ecut=   100.00 Ry     beta= 0.70
     Davidson diagonalization with overlap
     ethr =  1.35E-03,  avg # of iterations =  3.0

     negative rho (up, down):  0.000E+00 1.140E-04

     total cpu time spent up to now is       26.3 secs

     total energy              =    -810.68157908 Ry
     Harris-Foulkes estimate   =    -810.72628162 Ry
     estimated scf accuracy    <       0.13321883 Ry

     total magnetization       =     4.00 Bohr mag/cell
     absolute magnetization    =     4.13 Bohr mag/cell

     iteration #  6     ecut=   100.00 Ry     beta= 0.70
     Davidson diagonalization with overlap
     ethr =  6.66E-05,  avg # of iterations =  7.0

     negative rho (up, down):  0.000E+00 1.593E-04

     total cpu time spent up to now is       28.6 secs

     total energy              =    -810.69189651 Ry
     Harris-Foulkes estimate   =    -810.73133936 Ry
     estimated scf accuracy    <       0.74240429 Ry

     total magnetization       =     4.00 Bohr mag/cell
     absolute magnetization    =     4.12 Bohr mag/cell

     iteration #  7     ecut=   100.00 Ry     beta= 0.70
     Davidson diagonalization with overlap
     ethr =  6.66E-05,  avg # of iterations =  1.5

     negative rho (up, down):  0.000E+00 4.440E-04

     total cpu time spent up to now is       30.1 secs

     total energy              =    -810.64813851 Ry
     Harris-Foulkes estimate   =    -810.70559431 Ry
     estimated scf accuracy    <       0.41033096 Ry

     total magnetization       =     4.00 Bohr mag/cell
     absolute magnetization    =     4.13 Bohr mag/cell

     iteration #  8     ecut=   100.00 Ry     beta= 0.70
     Davidson diagonalization with overlap
     ethr =  6.66E-05,  avg # of iterations =  2.0

     negative rho (up, down):  0.000E+00 1.406E-03

     total cpu time spent up to now is       31.6 secs

     total energy              =    -810.67580817 Ry
     Harris-Foulkes estimate   =    -810.68514174 Ry
     estimated scf accuracy    <       0.09253780 Ry

     total magnetization       =     4.00 Bohr mag/cell
     absolute magnetization    =     4.13 Bohr mag/cell

     iteration #  9     ecut=   100.00 Ry     beta= 0.70
     Davidson diagonalization with overlap
     ethr =  4.63E-05,  avg # of iterations =  1.5

     negative rho (up, down):  0.000E+00 2.563E-03

     total cpu time spent up to now is       33.1 secs

     total energy              =    -810.68355528 Ry
     Harris-Foulkes estimate   =    -810.68191574 Ry
     estimated scf accuracy    <       0.01061188 Ry

     total magnetization       =     4.00 Bohr mag/cell
     absolute magnetization    =     4.12 Bohr mag/cell

     iteration # 10     ecut=   100.00 Ry     beta= 0.70
     Davidson diagonalization with overlap
     ethr =  5.31E-06,  avg # of iterations =  4.5

     negative rho (up, down):  5.320E-05 3.109E-03

     total cpu time spent up to now is       35.0 secs

     total energy              =    -810.68280554 Ry
     Harris-Foulkes estimate   =    -810.68532655 Ry
     estimated scf accuracy    <       0.03756739 Ry

     total magnetization       =     4.00 Bohr mag/cell
     absolute magnetization    =     4.10 Bohr mag/cell

     iteration # 11     ecut=   100.00 Ry     beta= 0.70
     Davidson diagonalization with overlap
     ethr =  5.31E-06,  avg # of iterations =  2.5

     negative rho (up, down):  2.294E-04 3.180E-03

     total cpu time spent up to now is       36.5 secs

     total energy              =    -810.68513264 Ry
     Harris-Foulkes estimate   =    -810.68465377 Ry
     estimated scf accuracy    <       0.00137075 Ry

     total magnetization       =     4.00 Bohr mag/cell
     absolute magnetization    =     4.10 Bohr mag/cell

     iteration # 12     ecut=   100.00 Ry     beta= 0.70
     Davidson diagonalization with overlap
     ethr =  6.85E-07,  avg # of iterations =  3.5

     negative rho (up, down):  1.728E-06 3.066E-03

     total cpu time spent up to now is       38.2 secs

     total energy              =    -810.68560706 Ry
     Harris-Foulkes estimate   =    -810.68521761 Ry
     estimated scf accuracy    <       0.00035993 Ry

     total magnetization       =     4.00 Bohr mag/cell
     absolute magnetization    =     4.10 Bohr mag/cell

     iteration # 13     ecut=   100.00 Ry     beta= 0.70
     Davidson diagonalization with overlap
     ethr =  1.80E-07,  avg # of iterations =  3.5

     negative rho (up, down):  0.000E+00 2.973E-03

     total cpu time spent up to now is       39.9 secs

     total energy              =    -810.68569942 Ry
     Harris-Foulkes estimate   =    -810.68563684 Ry
     estimated scf accuracy    <       0.00008981 Ry

     total magnetization       =     4.00 Bohr mag/cell
     absolute magnetization    =     4.10 Bohr mag/cell

     iteration # 14     ecut=   100.00 Ry     beta= 0.70
     Davidson diagonalization with overlap
     ethr =  4.49E-08,  avg # of iterations =  3.0

     negative rho (up, down):  0.000E+00 2.963E-03

     total cpu time spent up to now is       41.6 secs

     total energy              =    -810.68572038 Ry
     Harris-Foulkes estimate   =    -810.68570698 Ry
     estimated scf accuracy    <       0.00002813 Ry

     total magnetization       =     4.00 Bohr mag/cell
     absolute magnetization    =     4.10 Bohr mag/cell

     iteration # 15     ecut=   100.00 Ry     beta= 0.70
     Davidson diagonalization with overlap
     ethr =  1.41E-08,  avg # of iterations =  2.5

     negative rho (up, down):  0.000E+00 3.010E-03

     total cpu time spent up to now is       43.2 secs

     total energy              =    -810.68572660 Ry
     Harris-Foulkes estimate   =    -810.68572224 Ry
     estimated scf accuracy    <       0.00000939 Ry

     total magnetization       =     4.00 Bohr mag/cell
     absolute magnetization    =     4.10 Bohr mag/cell

     iteration # 16     ecut=   100.00 Ry     beta= 0.70
     Davidson diagonalization with overlap
     ethr =  4.69E-09,  avg # of iterations =  3.0

     negative rho (up, down):  0.000E+00 2.986E-03

     total cpu time spent up to now is       44.9 secs

     total energy              =    -810.68572794 Ry
     Harris-Foulkes estimate   =    -810.68572781 Ry
     estimated scf accuracy    <       0.00000627 Ry

     total magnetization       =     4.00 Bohr mag/cell
     absolute magnetization    =     4.10 Bohr mag/cell

     iteration # 17     ecut=   100.00 Ry     beta= 0.70
     Davidson diagonalization with overlap
     ethr =  3.13E-09,  avg # of iterations =  1.5

     negative rho (up, down):  0.000E+00 3.000E-03

     total cpu time spent up to now is       46.3 secs

     total energy              =    -810.68572896 Ry
     Harris-Foulkes estimate   =    -810.68572838 Ry
     estimated scf accuracy    <       0.00000350 Ry

     total magnetization       =     4.00 Bohr mag/cell
     absolute magnetization    =     4.10 Bohr mag/cell

     iteration # 18     ecut=   100.00 Ry     beta= 0.70
     Davidson diagonalization with overlap
     ethr =  1.75E-09,  avg # of iterations =  2.5

     negative rho (up, down):  0.000E+00 2.977E-03
 
     Magnetic moment per site:
     atom:    1    charge:    7.5196    magn:    1.2592    constr:    0.0000
     atom:    2    charge:    7.5199    magn:    1.2595    constr:    0.0000
     atom:    3    charge:    3.1214    magn:    0.0530    constr:    0.0000
     atom:    4    charge:    3.1183    magn:    0.0530    constr:    0.0000
     atom:    5    charge:    3.1196    magn:    0.0537    constr:    0.0000
     atom:    6    charge:    3.1205    magn:    0.0537    constr:    0.0000
     atom:    7    charge:    3.1293    magn:    0.0507    constr:    0.0000
     atom:    8    charge:    3.1285    magn:    0.0507    constr:    0.0000
     atom:    9    charge:    3.1278    magn:    0.0529    constr:    0.0000
     atom:   10    charge:    3.1271    magn:    0.0529    constr:    0.0000
     atom:   11    charge:    2.4097    magn:    0.0143    constr:    0.0000
     atom:   12    charge:    2.4116    magn:    0.0143    constr:    0.0000
     atom:   13    charge:    2.4038    magn:    0.0134    constr:    0.0000
     atom:   14    charge:    2.4029    magn:    0.0134    constr:    0.0000
     atom:   15    charge:    0.5999    magn:    0.0036    constr:    0.0000
     atom:   16    charge:    0.5992    magn:    0.0036    constr:    0.0000
     atom:   17    charge:    0.4555    magn:   -0.0007    constr:    0.0000
     atom:   18    charge:    0.4554    magn:   -0.0007    constr:    0.0000
     atom:   19    charge:    0.5735    magn:    0.0039    constr:    0.0000
     atom:   20    charge:    0.5742    magn:    0.0039    constr:    0.0000
     atom:   21    charge:    0.5988    magn:    0.0038    constr:    0.0000
     atom:   22    charge:    0.5986    magn:    0.0038    constr:    0.0000
     atom:   23    charge:    0.4555    magn:   -0.0008    constr:    0.0000
     atom:   24    charge:    0.4561    magn:   -0.0008    constr:    0.0000
     atom:   25    charge:    0.6004    magn:    0.0036    constr:    0.0000
     atom:   26    charge:    0.5998    magn:    0.0036    constr:    0.0000
     atom:   27    charge:    0.4562    magn:   -0.0007    constr:    0.0000
     atom:   28    charge:    0.4559    magn:   -0.0007    constr:    0.0000
     atom:   29    charge:    0.5923    magn:    0.0032    constr:    0.0000
     atom:   30    charge:    0.5914    magn:    0.0032    constr:    0.0000
     atom:   31    charge:    0.4597    magn:   -0.0005    constr:    0.0000
     atom:   32    charge:    0.4596    magn:   -0.0005    constr:    0.0000
     atom:   33    charge:    0.5935    magn:    0.0033    constr:    0.0000
     atom:   34    charge:    0.5921    magn:    0.0033    constr:    0.0000
     atom:   35    charge:    0.4599    magn:   -0.0006    constr:    0.0000
     atom:   36    charge:    0.4598    magn:   -0.0006    constr:    0.0000
     atom:   37    charge:    0.5950    magn:    0.0032    constr:    0.0000
     atom:   38    charge:    0.5949    magn:    0.0032    constr:    0.0000
     atom:   39    charge:    0.4586    magn:   -0.0004    constr:    0.0000
     atom:   40    charge:    0.4586    magn:   -0.0004    constr:    0.0000
     atom:   41    charge:    0.5915    magn:    0.0033    constr:    0.0000
     atom:   42    charge:    0.5913    magn:    0.0033    constr:    0.0000
     atom:   43    charge:    0.4577    magn:   -0.0004    constr:    0.0000
     atom:   44    charge:    0.4570    magn:   -0.0004    constr:    0.0000
     atom:   45    charge:    0.5979    magn:    0.0036    constr:    0.0000
     atom:   46    charge:    0.5981    magn:    0.0036    constr:    0.0000
     atom:   47    charge:    0.4561    magn:   -0.0008    constr:    0.0000
     atom:   48    charge:    0.4566    magn:   -0.0008    constr:    0.0000
     atom:   49    charge:    0.5730    magn:    0.0038    constr:    0.0000
     atom:   50    charge:    0.5741    magn:    0.0038    constr:    0.0000
     atom:   51    charge:    0.5601    magn:   -0.0013    constr:    0.0000
     atom:   52    charge:    0.5597    magn:   -0.0013    constr:    0.0000
     atom:   53    charge:    0.5596    magn:   -0.0012    constr:    0.0000
     atom:   54    charge:    0.5600    magn:   -0.0012    constr:    0.0000

     total cpu time spent up to now is       47.7 secs

     End of self-consistent calculation

 ------ SPIN UP ------------


          k = 0.0000 0.0000 0.0000 ( 45819 PWs)   bands (ev):

   -22.6624 -22.6600 -22.5619 -22.5599 -19.9632 -19.9631 -19.9422 -19.9411
   -19.4054 -19.3916 -19.2803 -19.2729 -15.5796 -15.5124 -15.5073 -15.4799
   -14.6074 -14.5709 -14.5672 -14.5230 -11.7733 -11.7223 -11.7002 -11.6693
   -11.4717 -11.4410 -11.4108 -11.3509  -9.9227  -9.6610  -9.6375  -9.5632
    -8.2607  -7.9883  -7.9535  -7.9425  -7.6991  -7.6729  -7.6185  -7.5379
    -7.2950  -7.1781  -7.0214  -6.9627  -6.9113  -6.7457  -6.7172  -6.6696
    -6.6453  -6.6005  -6.4454  -6.4195  -6.3919  -6.3556  -6.2636  -6.1168
    -6.1108  -6.0393  -5.9785  -5.9309  -5.7184  -5.5557  -5.3636  -5.1751
    -4.5702  -4.5029  -4.3572  -4.2961  -4.2694  -4.2680  -4.0706  -4.0584
    -3.7554  -3.4914  -3.3577  -3.2640  -3.2476  -3.2077  -3.1875  -3.1477
    -3.0600  -2.7328  -2.6330  -2.6132  -2.5103  -2.4868  -2.4700  -2.4112
    -2.3792  -2.3316  -2.3046  -2.2856  -2.2261  -2.1468  -2.1078  -2.0668
    -2.0168  -1.9172  -0.5975  -0.5759  -0.3397  -0.3183   2.0440   2.0601
     2.0986   2.1390   3.0299   3.1420   3.3182   3.4719   3.4795   4.2663
     4.5055   4.5691   4.7437   4.7770   4.9911   5.3658   5.7329   5.7855
     5.8137   6.1266

 ------ SPIN DOWN ----------


          k = 0.0000 0.0000 0.0000 ( 45819 PWs)   bands (ev):

   -22.5613 -22.5588 -22.4605 -22.4584 -19.8353 -19.8352 -19.8113 -19.8102
   -19.3720 -19.3578 -19.2480 -19.2403 -15.5406 -15.4739 -15.4690 -15.4404
   -14.5733 -14.5365 -14.5330 -14.4888 -11.7278 -11.6804 -11.6590 -11.6295
   -11.4449 -11.4136 -11.3836 -11.3241  -9.8927  -9.6332  -9.6088  -9.5307
    -8.1953  -7.9351  -7.8967  -7.8797  -7.6598  -7.6259  -7.5769  -7.5049
    -7.2671  -7.1433  -6.9833  -6.9246  -6.8032  -6.6502  -6.5967  -6.5469
    -6.5298  -6.5202  -6.3399  -6.2953  -6.2667  -6.2418  -6.1973  -6.0809
    -6.0303  -6.0117  -5.9404  -5.9092  -5.6500  -5.4790  -5.2881  -5.0982
    -4.4316  -4.3072  -4.2770  -4.2389  -4.2314  -3.9083  -3.6079  -3.5901
    -3.2461  -3.1435  -3.0648  -3.0199  -2.7978  -2.7451  -2.6785  -2.6588
    -2.6092  -2.4722  -2.4716  -2.3582  -2.3140  -2.2950  -2.2145  -2.1615
    -2.1479  -2.0098  -1.9810  -1.8289  -1.6056  -1.3711  -1.3585  -1.3311
    -1.3121  -1.2011   0.2524   0.2588   0.4497   0.4685   2.1331   2.1630
     2.2153   2.2287   3.1061   3.2192   3.3970   3.5132   3.5532   4.3122
     4.5520   4.6266   4.8019   4.8488   5.0412   5.4117   5.7759   5.8175
     5.8606   6.2020

     the spin up/dw Fermi energies are     0.0862   -0.2218 ev

!    total energy              =    -810.68572919 Ry
     Harris-Foulkes estimate   =    -810.68572911 Ry
     estimated scf accuracy    <       0.00000068 Ry

     The total energy is the sum of the following terms:

     one-electron contribution =   -1216.55048755 Ry
     hartree contribution      =     678.55032255 Ry
     xc contribution           =    -248.39651849 Ry
     ewald contribution        =     -25.36060033 Ry
     Dispersion Correction     =      -0.20316512 Ry
     smearing contrib. (-TS)   =       1.27471975 Ry

     total magnetization       =     4.00 Bohr mag/cell
     absolute magnetization    =     4.10 Bohr mag/cell

     convergence has been achieved in  18 iterations

     negative rho (up, down):  0.000E+00 2.977E-03

     Forces acting on atoms (cartesian axes, Ry/au):

     atom    1 type  1   force =    -0.01097990   -0.00924325   -0.03721874
     atom    2 type  2   force =     0.02016654    0.00812731   -0.00674934
     atom    3 type  4   force =    -0.01555548   -0.03649191   -0.02529367
     atom    4 type  4   force =    -0.01573160    0.03662687   -0.02630611
     atom    5 type  4   force =     0.01569922    0.03986161   -0.01993793
     atom    6 type  4   force =     0.01677340   -0.04011714   -0.02083687
     atom    7 type  4   force =    -0.04214776   -0.04400977   -0.01636989
     atom    8 type  4   force =    -0.04264397    0.04435297   -0.01727682
     atom    9 type  4   force =     0.03692017    0.04793961   -0.01344479
     atom   10 type  4   force =     0.03769098   -0.04769399   -0.01498798
     atom   11 type  5   force =    -0.01996939   -0.01699757    0.01603177
     atom   12 type  5   force =    -0.02052205    0.01620032    0.01608280
     atom   13 type  5   force =    -0.00205460    0.00399477    0.01711086
     atom   14 type  5   force =    -0.00217138   -0.00382081    0.01729963
     atom   15 type  6   force =     0.15795223   -0.07203833    0.17026993
     atom   16 type  6   force =     0.15787903    0.07212322    0.17026273
     atom   17 type  3   force =    -0.16212149    0.09374699   -0.20270789
     atom   18 type  3   force =    -0.16211339   -0.09371726   -0.20269772
     atom   19 type  6   force =     0.01385975    0.01127002    0.01184727
     atom   20 type  6   force =     0.01386035   -0.01116118    0.01193667
     atom   21 type  6   force =    -0.23427816   -0.04743385   -0.08008014
     atom   22 type  6   force =    -0.23407326    0.04754146   -0.08009701
     atom   23 type  3   force =     0.25817462    0.08086876    0.05540546
     atom   24 type  3   force =     0.25817659   -0.08083389    0.05541371
     atom   25 type  6   force =    -0.15342041    0.08565652    0.17208831
     atom   26 type  6   force =    -0.15332210   -0.08567373    0.17196504
     atom   27 type  3   force =     0.17042475   -0.09721148   -0.19374179
     atom   28 type  3   force =     0.17043868    0.09724225   -0.19377039
     atom   29 type  6   force =    -0.22800083   -0.09340575    0.03078287
     atom   30 type  6   force =    -0.22798445    0.09358519    0.03075636
     atom   31 type  3   force =     0.25365689    0.11237597   -0.03357761
     atom   32 type  3   force =     0.25369363   -0.11233502   -0.03359286
     atom   33 type  6   force =     0.22242438    0.08440133    0.04633123
     atom   34 type  6   force =     0.22237891   -0.08447280    0.04640186
     atom   35 type  3   force =    -0.25725808   -0.10844001   -0.03620768
     atom   36 type  3   force =    -0.25722922    0.10843808   -0.03619780
     atom   37 type  6   force =    -0.13070910    0.08638355   -0.17412261
     atom   38 type  6   force =    -0.13061664   -0.08623597   -0.17398851
     atom   39 type  3   force =     0.14208553   -0.11264576    0.21334081
     atom   40 type  3   force =     0.14193588    0.11246926    0.21314351
     atom   41 type  6   force =     0.15567933   -0.07903152   -0.16647066
     atom   42 type  6   force =     0.15554701    0.07928321   -0.16628552
     atom   43 type  3   force =    -0.15084823    0.11850839    0.20176821
     atom   44 type  3   force =    -0.15076090   -0.11816188    0.20162519
     atom   45 type  6   force =     0.24684346    0.06770032   -0.07957643
     atom   46 type  6   force =     0.24670759   -0.06763495   -0.07956664
     atom   47 type  3   force =    -0.25610779   -0.09667375    0.05735581
     atom   48 type  3   force =    -0.25611079    0.09672089    0.05736666
     atom   49 type  6   force =    -0.03538573   -0.01945233    0.00212887
     atom   50 type  6   force =    -0.03530650    0.01938392    0.00216559
     atom   51 type  6   force =    -0.05051173   -0.07831538    0.03157818
     atom   52 type  6   force =    -0.05035526    0.07840903    0.03162577
     atom   53 type  6   force =     0.05972395    0.08214088    0.03953929
     atom   54 type  6   force =     0.05959729   -0.08210341    0.03947902

     Total force =     1.514233     Total SCF correction =     0.001455


     Computing stress (Cartesian axis) and pressure


     negative rho (up, down):  0.000E+00 2.977E-03
          total   stress  (Ry/bohr**3)                   (kbar)     P=   93.74
   0.00109877  -0.00000022  -0.00000125        161.63     -0.03     -0.18
  -0.00000022   0.00027982   0.00000008         -0.03     41.16      0.01
  -0.00000125   0.00000008   0.00053314         -0.18      0.01     78.43


     BFGS Geometry Optimization

     number of scf cycles    =   1
     number of bfgs steps    =   0

     enthalpy new            =    -810.6857291915 Ry

     new trust radius        =       0.4047984414 bohr
     new conv_thr            =       0.0000010000 Ry

     new unit-cell volume =   5692.34451 a.u.^3 (   843.51842 Ang^3 )
     density =      4.11832 g/cm^3

CELL_PARAMETERS (angstrom)
   6.424555618   0.000000000  -0.001846138
   0.000000000  12.611009251   0.000000000
  -0.233845485   0.000000000  10.411287394

ATOMIC_POSITIONS (crystal)
Ni1      0.493800992   0.753569426   0.837513047
Ni2      0.996494050   0.246383420   0.339082375
O        0.239936115   0.348078032   0.391597248
O        0.739919311   0.651927671   0.891545103
O        0.756191254   0.134764355   0.369173096
O        0.256280477   0.865224847   0.869126796
O        0.933302328   0.350370364   0.496456868
O        0.433258633   0.649644138   0.996410156
O        0.069599365   0.121825692   0.473507526
O        0.569661706   0.878184687   0.973428043
N        0.626240037   0.842181766   0.697025717
N        0.126193361   0.157784546   0.197028345
N        0.360958197   0.646268799   0.715981296
N        0.860948667   0.353738551   0.215991018
C        0.601486774   0.956256015   0.522169760
C        0.101480566   0.043747572   0.022169389
H        0.486099567   0.990161286   0.433659522
H       -0.013899728   0.009839970   0.933660046
C        0.794395167   0.998476216   0.534310194
C        0.294395386   0.001528383   0.034314799
C        0.897122809   0.952595679   0.631275469
C        0.397140118   0.047408868   0.131274600
H        0.082153301   0.981217115   0.653353661
H        0.582153484   0.018784358   0.153354086
C        0.395038580   0.522719423   0.552963416
C        0.895046669   0.477279850   0.052957067
H        0.509159911   0.486892322   0.467821321
H        1.009161036   0.513108979   0.967819848
C        0.461061899   0.599253133   0.623285473
C        0.961063236   0.400754449   0.123284108
H        0.640504146   0.636048455   0.606170584
H        0.140507226   0.363953275   0.106169798
C        0.530410731   0.884466385   0.597386292
C        0.030407016   0.115530596   0.097389930
H        0.350260257   0.848417859   0.577235122
H        0.850262718   0.151582059   0.077235631
C        0.817111601   0.881350143   0.704731808
C        0.317119678   0.118656093   0.204738714
H        0.925724714   0.843540145   0.793588127
H        0.425711680   0.156452397   0.293577966
C        0.177363125   0.601160517   0.726025921
C        0.677352274   0.398850118   0.226035457
H        0.066911907   0.639607581   0.811092080
H        0.566919029   0.360407061   0.311084714
C        0.103341287   0.523160682   0.658501413
C        0.603329807   0.476842080   0.158501917
H        0.923033011   0.488415044   0.682054113
H        0.423032777   0.511586948   0.182054672
C        0.204909281   0.476178040   0.564709648
C        0.704916055   0.523819069   0.064711539
C        0.873784370   0.085990778   0.456626436
C        0.373797702   0.914013180   0.956628887
C        0.127128589   0.389670869   0.483536473
C        0.627117757   0.610330714   0.983533369



     Writing output data file nipyc_from_cif.save/
     Message from routine punch:
     wavefunctions written to file
     NEW-OLD atomic charge density approx. for the potential
     NEW k-points:
   0.0000000   0.0000000   0.0000000   1.0000000
   0.0000000   0.0000000   0.0000000   1.0000000

     Check: negative core charge=   -0.000171

     negative rho (up, down):  0.000E+00 7.167E-04
     extrapolated charge  209.24155, renormalised to  200.00000

     total cpu time spent up to now is       62.5 secs

     Self-consistent Calculation

     iteration #  1     ecut=   100.00 Ry     beta= 0.70
     Davidson diagonalization with overlap
     ethr =  1.00E-06,  avg # of iterations = 19.0

     negative rho (up, down):  1.051E-03 1.063E-01

     total cpu time spent up to now is       69.4 secs

     total energy              =    -778.04016870 Ry
     Harris-Foulkes estimate   =    -764.19504813 Ry
     estimated scf accuracy    <      83.49324050 Ry

     total magnetization       =     4.00 Bohr mag/cell
     absolute magnetization    =     4.09 Bohr mag/cell

     iteration #  2     ecut=   100.00 Ry     beta= 0.70
     Davidson diagonalization with overlap
     ethr =  1.00E-02,  avg # of iterations =  5.5

     negative rho (up, down):  0.000E+00 3.931E-02

     total cpu time spent up to now is       72.2 secs

     total energy              =    -814.58775166 Ry
     Harris-Foulkes estimate   =    -822.75465783 Ry
     estimated scf accuracy    <      35.44638334 Ry

     total magnetization       =     4.00 Bohr mag/cell
     absolute magnetization    =     4.11 Bohr mag/cell

     iteration #  3     ecut=   100.00 Ry     beta= 0.70
     Davidson diagonalization with overlap
     ethr =  1.00E-02,  avg # of iterations =  2.0

     negative rho (up, down):  1.612E-05 2.207E-02

     total cpu time spent up to now is       73.7 secs

     total energy              =    -812.60447068 Ry
     Harris-Foulkes estimate   =    -815.39869969 Ry
     estimated scf accuracy    <      16.27546550 Ry

     total magnetization       =     4.00 Bohr mag/cell
     absolute magnetization    =     4.10 Bohr mag/cell

     iteration #  4     ecut=   100.00 Ry     beta= 0.70
     Davidson diagonalization with overlap
     ethr =  8.14E-03,  avg # of iterations =  1.0

     negative rho (up, down):  3.827E-04 5.915E-03

     total cpu time spent up to now is       75.2 secs

     total energy              =    -809.16957818 Ry
     Harris-Foulkes estimate   =    -812.80587836 Ry
     estimated scf accuracy    <      10.79706559 Ry

     total magnetization       =     4.00 Bohr mag/cell
     absolute magnetization    =     4.13 Bohr mag/cell

     iteration #  5     ecut=   100.00 Ry     beta= 0.70
     Davidson diagonalization with overlap
     ethr =  5.40E-03,  avg # of iterations =  4.5

     negative rho (up, down):  9.345E-05 7.119E-03

     total cpu time spent up to now is       77.0 secs

     total energy              =    -809.27948764 Ry
     Harris-Foulkes estimate   =    -811.01147825 Ry
     estimated scf accuracy    <      10.37364603 Ry

     total magnetization       =     4.00 Bohr mag/cell
     absolute magnetization    =     4.16 Bohr mag/cell

     iteration #  6     ecut=   100.00 Ry     beta= 0.70
     Davidson diagonalization with overlap
     ethr =  5.19E-03,  avg # of iterations =  1.0

     negative rho (up, down):  0.000E+00 5.857E-03

     total cpu time spent up to now is       78.4 secs

     total energy              =    -810.48550938 Ry
     Harris-Foulkes estimate   =    -810.71559671 Ry
     estimated scf accuracy    <       4.23643932 Ry

     total magnetization       =     4.00 Bohr mag/cell
     absolute magnetization    =     4.14 Bohr mag/cell

     iteration #  7     ecut=   100.00 Ry     beta= 0.70
     Davidson diagonalization with overlap
     ethr =  2.12E-03,  avg # of iterations =  1.0

     negative rho (up, down):  0.000E+00 4.267E-03

     total cpu time spent up to now is       79.7 secs

     total energy              =    -810.25716856 Ry
     Harris-Foulkes estimate   =    -810.52369313 Ry
     estimated scf accuracy    <       1.90723408 Ry

     total magnetization       =     4.00 Bohr mag/cell
     absolute magnetization    =     4.14 Bohr mag/cell

     iteration #  8     ecut=   100.00 Ry     beta= 0.70
     Davidson diagonalization with overlap
     ethr =  9.54E-04,  avg # of iterations =  3.0

     negative rho (up, down):  0.000E+00 3.893E-03

     total cpu time spent up to now is       81.4 secs

     total energy              =    -810.41015774 Ry
     Harris-Foulkes estimate   =    -810.43404776 Ry
     estimated scf accuracy    <       0.51737761 Ry

     total magnetization       =     4.00 Bohr mag/cell
     absolute magnetization    =     4.14 Bohr mag/cell

     iteration #  9     ecut=   100.00 Ry     beta= 0.70
     Davidson diagonalization with overlap
     ethr =  2.59E-04,  avg # of iterations =  1.0

     negative rho (up, down):  0.000E+00 3.995E-03

     total cpu time spent up to now is       82.8 secs

     total energy              =    -810.41302519 Ry
     Harris-Foulkes estimate   =    -810.41482486 Ry
     estimated scf accuracy    <       0.23623414 Ry

     total magnetization       =     4.00 Bohr mag/cell
     absolute magnetization    =     4.15 Bohr mag/cell

     iteration # 10     ecut=   100.00 Ry     beta= 0.70
     Davidson diagonalization with overlap
     ethr =  1.18E-04,  avg # of iterations =  1.0

     negative rho (up, down):  4.147E-06 1.295E-03

     total cpu time spent up to now is       84.2 secs

     total energy              =    -810.42015803 Ry
     Harris-Foulkes estimate   =    -810.41421400 Ry
     estimated scf accuracy    <       0.26288138 Ry

     total magnetization       =     4.00 Bohr mag/cell
     absolute magnetization    =     4.15 Bohr mag/cell

     iteration # 11     ecut=   100.00 Ry     beta= 0.70
     Davidson diagonalization with overlap
     ethr =  1.18E-04,  avg # of iterations =  2.0

     negative rho (up, down):  0.000E+00 8.467E-04

     total cpu time spent up to now is       85.8 secs

     total energy              =    -810.18251070 Ry
     Harris-Foulkes estimate   =    -810.45477940 Ry
     estimated scf accuracy    <       1.24953758 Ry

     total magnetization       =     4.00 Bohr mag/cell
     absolute magnetization    =     4.15 Bohr mag/cell

     iteration # 12     ecut=   100.00 Ry     beta= 0.70
     Davidson diagonalization with overlap
     ethr =  1.18E-04,  avg # of iterations =  2.0

     negative rho (up, down):  0.000E+00 1.103E-03

     total cpu time spent up to now is       87.4 secs

     total energy              =    -810.36609548 Ry
     Harris-Foulkes estimate   =    -810.50376768 Ry
     estimated scf accuracy    <       1.76767106 Ry

     total magnetization       =     4.00 Bohr mag/cell
     absolute magnetization    =     4.10 Bohr mag/cell

     iteration # 13     ecut=   100.00 Ry     beta= 0.70
     Davidson diagonalization with overlap
     ethr =  1.18E-04,  avg # of iterations =  2.0

     negative rho (up, down):  0.000E+00 3.416E-03

     total cpu time spent up to now is       88.8 secs

     total energy              =    -810.38379462 Ry
     Harris-Foulkes estimate   =    -810.40718561 Ry
     estimated scf accuracy    <       0.20753875 Ry

     total magnetization       =     4.00 Bohr mag/cell
     absolute magnetization    =     4.10 Bohr mag/cell

     iteration # 14     ecut=   100.00 Ry     beta= 0.70
     Davidson diagonalization with overlap
     ethr =  1.04E-04,  avg # of iterations =  1.0

     negative rho (up, down):  0.000E+00 1.888E-03

     total cpu time spent up to now is       90.2 secs

     total energy              =    -810.39629377 Ry
     Harris-Foulkes estimate   =    -810.39779663 Ry
     estimated scf accuracy    <       0.00818177 Ry

     total magnetization       =     4.00 Bohr mag/cell
     absolute magnetization    =     4.08 Bohr mag/cell

     iteration # 15     ecut=   100.00 Ry     beta= 0.70
     Davidson diagonalization with overlap
     ethr =  4.09E-06,  avg # of iterations =  5.5

     negative rho (up, down):  0.000E+00 2.229E-03

     total cpu time spent up to now is       92.2 secs

     total energy              =    -810.39747432 Ry
     Harris-Foulkes estimate   =    -810.39763453 Ry
     estimated scf accuracy    <       0.00381184 Ry

     total magnetization       =     4.00 Bohr mag/cell
     absolute magnetization    =     4.08 Bohr mag/cell

     iteration # 16     ecut=   100.00 Ry     beta= 0.70
     Davidson diagonalization with overlap
     ethr =  1.91E-06,  avg # of iterations =  2.5

     negative rho (up, down):  0.000E+00 2.199E-03

     total cpu time spent up to now is       93.8 secs

     total energy              =    -810.39756197 Ry
     Harris-Foulkes estimate   =    -810.39757645 Ry
     estimated scf accuracy    <       0.00060560 Ry

     total magnetization       =     4.00 Bohr mag/cell
     absolute magnetization    =     4.07 Bohr mag/cell

     iteration # 17     ecut=   100.00 Ry     beta= 0.70
     Davidson diagonalization with overlap
     ethr =  3.03E-07,  avg # of iterations =  3.0

     negative rho (up, down):  0.000E+00 1.986E-03

     total cpu time spent up to now is       95.3 secs

     total energy              =    -810.39759831 Ry
     Harris-Foulkes estimate   =    -810.39758684 Ry
     estimated scf accuracy    <       0.00006745 Ry

     total magnetization       =     4.00 Bohr mag/cell
     absolute magnetization    =     4.07 Bohr mag/cell

     iteration # 18     ecut=   100.00 Ry     beta= 0.70
     Davidson diagonalization with overlap
     ethr =  3.37E-08,  avg # of iterations =  2.0

     negative rho (up, down):  0.000E+00 1.857E-03

     total cpu time spent up to now is       96.9 secs

     total energy              =    -810.39760471 Ry
     Harris-Foulkes estimate   =    -810.39760247 Ry
     estimated scf accuracy    <       0.00005044 Ry

     total magnetization       =     4.00 Bohr mag/cell
     absolute magnetization    =     4.07 Bohr mag/cell

     iteration # 19     ecut=   100.00 Ry     beta= 0.70
     Davidson diagonalization with overlap
     ethr =  2.52E-08,  avg # of iterations =  1.5

     negative rho (up, down):  0.000E+00 1.855E-03

     total cpu time spent up to now is       98.3 secs

     total energy              =    -810.39760863 Ry
     Harris-Foulkes estimate   =    -810.39760735 Ry
     estimated scf accuracy    <       0.00001042 Ry

     total magnetization       =     4.00 Bohr mag/cell
     absolute magnetization    =     4.07 Bohr mag/cell

     iteration # 20     ecut=   100.00 Ry     beta= 0.70
     Davidson diagonalization with overlap
     ethr =  5.21E-09,  avg # of iterations =  2.0

     negative rho (up, down):  0.000E+00 1.830E-03

     total cpu time spent up to now is       99.8 secs

     total energy              =    -810.39760933 Ry
     Harris-Foulkes estimate   =    -810.39761015 Ry
     estimated scf accuracy    <       0.00003027 Ry

     total magnetization       =     4.00 Bohr mag/cell
     absolute magnetization    =     4.07 Bohr mag/cell

     iteration # 21     ecut=   100.00 Ry     beta= 0.70
     Davidson diagonalization with overlap
     ethr =  5.21E-09,  avg # of iterations =  2.0

     negative rho (up, down):  0.000E+00 1.847E-03

     total cpu time spent up to now is      101.3 secs

     total energy              =    -810.39761173 Ry
     Harris-Foulkes estimate   =    -810.39761139 Ry
     estimated scf accuracy    <       0.00000136 Ry

     total magnetization       =     4.00 Bohr mag/cell
     absolute magnetization    =     4.07 Bohr mag/cell

     iteration # 22     ecut=   100.00 Ry     beta= 0.70
     Davidson diagonalization with overlap
     ethr =  6.80E-10,  avg # of iterations =  3.5

     negative rho (up, down):  0.000E+00 1.809E-03
 
     Magnetic moment per site:
     atom:    1    charge:    7.5635    magn:    1.2453    constr:    0.0000
     atom:    2    charge:    7.5646    magn:    1.2466    constr:    0.0000
     atom:    3    charge:    3.1680    magn:    0.0482    constr:    0.0000
     atom:    4    charge:    3.1637    magn:    0.0495    constr:    0.0000
     atom:    5    charge:    3.1647    magn:    0.0508    constr:    0.0000
     atom:    6    charge:    3.1659    magn:    0.0504    constr:    0.0000
     atom:    7    charge:    3.1502    magn:    0.0594    constr:    0.0000
     atom:    8    charge:    3.1492    magn:    0.0605    constr:    0.0000
     atom:    9    charge:    3.1528    magn:    0.0597    constr:    0.0000
     atom:   10    charge:    3.1512    magn:    0.0609    constr:    0.0000
     atom:   11    charge:    2.5183    magn:    0.0147    constr:    0.0000
     atom:   12    charge:    2.5199    magn:    0.0147    constr:    0.0000
     atom:   13    charge:    2.5177    magn:    0.0143    constr:    0.0000
     atom:   14    charge:    2.5153    magn:    0.0146    constr:    0.0000
     atom:   15    charge:    0.5848    magn:    0.0039    constr:    0.0000
     atom:   16    charge:    0.5839    magn:    0.0039    constr:    0.0000
     atom:   17    charge:    0.3558    magn:    0.0013    constr:    0.0000
     atom:   18    charge:    0.3556    magn:    0.0013    constr:    0.0000
     atom:   19    charge:    0.6235    magn:    0.0036    constr:    0.0000
     atom:   20    charge:    0.6242    magn:    0.0036    constr:    0.0000
     atom:   21    charge:    0.5843    magn:    0.0036    constr:    0.0000
     atom:   22    charge:    0.5840    magn:    0.0036    constr:    0.0000
     atom:   23    charge:    0.3500    magn:    0.0016    constr:    0.0000
     atom:   24    charge:    0.3505    magn:    0.0016    constr:    0.0000
     atom:   25    charge:    0.5840    magn:    0.0039    constr:    0.0000
     atom:   26    charge:    0.5834    magn:    0.0039    constr:    0.0000
     atom:   27    charge:    0.3546    magn:    0.0014    constr:    0.0000
     atom:   28    charge:    0.3544    magn:    0.0014    constr:    0.0000
     atom:   29    charge:    0.5783    magn:    0.0029    constr:    0.0000
     atom:   30    charge:    0.5773    magn:    0.0029    constr:    0.0000
     atom:   31    charge:    0.3567    magn:    0.0017    constr:    0.0000
     atom:   32    charge:    0.3565    magn:    0.0017    constr:    0.0000
     atom:   33    charge:    0.5793    magn:    0.0030    constr:    0.0000
     atom:   34    charge:    0.5779    magn:    0.0030    constr:    0.0000
     atom:   35    charge:    0.3587    magn:    0.0016    constr:    0.0000
     atom:   36    charge:    0.3587    magn:    0.0016    constr:    0.0000
     atom:   37    charge:    0.5804    magn:    0.0038    constr:    0.0000
     atom:   38    charge:    0.5803    magn:    0.0038    constr:    0.0000
     atom:   39    charge:    0.3594    magn:    0.0020    constr:    0.0000
     atom:   40    charge:    0.3596    magn:    0.0020    constr:    0.0000
     atom:   41    charge:    0.5802    magn:    0.0035    constr:    0.0000
     atom:   42    charge:    0.5798    magn:    0.0035    constr:    0.0000
     atom:   43    charge:    0.3571    magn:    0.0019    constr:    0.0000
     atom:   44    charge:    0.3565    magn:    0.0020    constr:    0.0000
     atom:   45    charge:    0.5790    magn:    0.0034    constr:    0.0000
     atom:   46    charge:    0.5788    magn:    0.0035    constr:    0.0000
     atom:   47    charge:    0.3467    magn:    0.0016    constr:    0.0000
     atom:   48    charge:    0.3471    magn:    0.0016    constr:    0.0000
     atom:   49    charge:    0.6225    magn:    0.0036    constr:    0.0000
     atom:   50    charge:    0.6236    magn:    0.0037    constr:    0.0000
     atom:   51    charge:    0.5623    magn:   -0.0019    constr:    0.0000
     atom:   52    charge:    0.5618    magn:   -0.0019    constr:    0.0000
     atom:   53    charge:    0.5612    magn:   -0.0017    constr:    0.0000
     atom:   54    charge:    0.5613    magn:   -0.0019    constr:    0.0000

     total cpu time spent up to now is      102.9 secs

     End of self-consistent calculation

 ------ SPIN UP ------------


          k = 0.0000 0.0000 0.0000 ( 45819 PWs)   bands (ev):

   -22.1568 -22.1425 -22.0607 -22.0460 -20.4679 -20.4448 -20.3932 -20.3809
   -19.5967 -19.5901 -19.5787 -19.5628 -16.5943 -16.5368 -16.5339 -16.5113
   -14.5723 -14.5442 -14.5089 -14.4840 -12.6254 -12.5213 -12.4731 -12.4550
   -11.0084 -10.9872 -10.9587 -10.8979  -9.7555  -9.6360  -9.6126  -9.5150
    -8.6083  -8.3384  -8.2981  -8.2640  -8.2086  -8.1715  -7.9420  -7.8447
    -7.2516  -7.1929  -7.1264  -6.9840  -6.9326  -6.7412  -6.6926  -6.5216
    -6.4835  -6.4489  -6.4310  -6.3399  -6.2909  -6.0103  -5.7714  -5.5364
    -5.2871  -5.1317  -5.1251  -5.1215  -4.9954  -4.9195  -4.8594  -4.8056
    -4.7663  -4.6844  -4.5461  -4.4660  -4.0603  -4.0505  -4.0383  -3.8965
    -3.7739  -3.6494  -3.6318  -3.5864  -3.5520  -3.2609  -3.2182  -3.1116
    -3.0649  -3.0083  -2.9866  -2.9380  -2.8851  -2.8830  -2.8521  -2.7955
    -2.7016  -2.6596  -2.6017  -2.5636  -2.5434  -2.5288  -2.5096  -2.4586
    -2.4064  -2.3513  -1.0456  -0.9984  -0.8826  -0.8753   1.3110   1.3631
     1.3853   1.4582   2.9536   3.4882   3.6005   3.6965   3.7166   3.9030
     3.9354   4.0370   4.1133   4.2685   4.3555   4.6134   4.7132   4.9196
     5.0229   5.3131

 ------ SPIN DOWN ----------


          k = 0.0000 0.0000 0.0000 ( 45819 PWs)   bands (ev):

   -22.0540 -22.0381 -21.9588 -21.9431 -20.4351 -20.4114 -20.3601 -20.3474
   -19.4579 -19.4495 -19.4417 -19.4233 -16.5571 -16.5000 -16.4969 -16.4736
   -14.5338 -14.5056 -14.4692 -14.4444 -12.5857 -12.4826 -12.4357 -12.4150
   -10.9729 -10.9516 -10.9240 -10.8636  -9.7157  -9.5961  -9.5723  -9.4766
    -8.5519  -8.3022  -8.2576  -8.2238  -8.1669  -8.1071  -7.8696  -7.7647
    -7.1661  -7.0780  -6.9999  -6.8971  -6.8341  -6.6587  -6.6152  -6.4550
    -6.3529  -6.3396  -6.2882  -6.2563  -6.1619  -5.9090  -5.6772  -5.4492
    -5.2473  -5.0946  -5.0760  -5.0235  -4.9358  -4.8209  -4.7457  -4.7283
    -4.6939  -4.3386  -4.1218  -4.0621  -3.9279  -3.7063  -3.6892  -3.4918
    -3.3676  -3.3265  -3.2868  -3.0960  -3.0622  -3.0395  -2.9939  -2.9630
    -2.8754  -2.8015  -2.7628  -2.6615  -2.6417  -2.5836  -2.5541  -2.4640
    -2.4241  -2.3767  -2.3591  -2.2757  -2.0390  -1.7743  -1.7661  -1.7637
    -1.7516  -1.6435  -0.2297  -0.2083  -0.1057  -0.0684   1.4128   1.4480
     1.4992   1.5451   2.9836   3.5482   3.6551   3.7400   3.7745   3.9379
     4.0004   4.0895   4.1765   4.3129   4.4131   4.6536   4.7695   4.9526
     5.0681   5.0960

     the spin up/dw Fermi energies are    -0.4076   -0.6642 ev

!    total energy              =    -810.39761224 Ry
     Harris-Foulkes estimate   =    -810.39761229 Ry
     estimated scf accuracy    <       0.00000044 Ry

     The total energy is the sum of the following terms:

     one-electron contribution =   -1226.54903314 Ry
     hartree contribution      =     681.22424090 Ry
     xc contribution           =    -246.02498583 Ry
     ewald contribution        =     -20.33623625 Ry
     Dispersion Correction     =      -0.19104059 Ry
     smearing contrib. (-TS)   =       1.47944267 Ry

     total magnetization       =     4.00 Bohr mag/cell
     absolute magnetization    =     4.07 Bohr mag/cell

     convergence has been achieved in  22 iterations

     negative rho (up, down):  0.000E+00 1.809E-03

     Forces acting on atoms (cartesian axes, Ry/au):

     atom    1 type  1   force =    -0.00098788   -0.00731799   -0.02057804
     atom    2 type  2   force =     0.04209238    0.00862498    0.02136798
     atom    3 type  4   force =    -0.07916637    0.01494446    0.05886233
     atom    4 type  4   force =    -0.08024326   -0.01623774    0.05967419
     atom    5 type  4   force =     0.07873761   -0.01957717    0.05954857
     atom    6 type  4   force =     0.07814745    0.01935406    0.05775156
     atom    7 type  4   force =     0.12786372    0.02418321   -0.03864373
     atom    8 type  4   force =     0.12753973   -0.02487059   -0.03910493
     atom    9 type  4   force =    -0.12491962   -0.01404284   -0.03739976
     atom   10 type  4   force =    -0.12721059    0.01515943   -0.03842508
     atom   11 type  5   force =     0.00614465   -0.01513465    0.03293221
     atom   12 type  5   force =     0.00761557    0.01467066    0.03417324
     atom   13 type  5   force =     0.00736512    0.02260588    0.02374140
     atom   14 type  5   force =     0.00852666   -0.02308717    0.02517029
     atom   15 type  6   force =    -0.11249114    0.18878840   -0.29115254
     atom   16 type  6   force =    -0.11245655   -0.18895076   -0.29145292
     atom   17 type  3   force =     0.07469012   -0.04614465    0.09911008
     atom   18 type  3   force =     0.07473092    0.04613621    0.09914859
     atom   19 type  6   force =    -0.00052969    0.07103259   -0.07002939
     atom   20 type  6   force =    -0.00060017   -0.07109007   -0.07000383
     atom   21 type  6   force =     0.33397126    0.14453583    0.01907503
     atom   22 type  6   force =     0.33389107   -0.14457176    0.01912397
     atom   23 type  3   force =    -0.13080521   -0.04258732   -0.02125642
     atom   24 type  3   force =    -0.13073628    0.04258117   -0.02125375
     atom   25 type  6   force =     0.10173595   -0.22499263   -0.28815756
     atom   26 type  6   force =     0.10167335    0.22532549   -0.28848790
     atom   27 type  3   force =    -0.07863769    0.04962163    0.09511807
     atom   28 type  3   force =    -0.07860317   -0.04955065    0.09502205
     atom   29 type  6   force =     0.31864834    0.23222253    0.04631765
     atom   30 type  6   force =     0.31796612   -0.23308953    0.04774841
     atom   31 type  3   force =    -0.12577193   -0.05278573    0.01769259
     atom   32 type  3   force =    -0.12563098    0.05281187    0.01765149
     atom   33 type  6   force =    -0.32668093   -0.20693869    0.03341180
     atom   34 type  6   force =    -0.32709437    0.20725451    0.03396781
     atom   35 type  3   force =     0.12100616    0.05383772    0.02153540
     atom   36 type  3   force =     0.12102936   -0.05387198    0.02163947
     atom   37 type  6   force =     0.08435994   -0.20415702    0.28893501
     atom   38 type  6   force =     0.08394071    0.20359472    0.28813190
     atom   39 type  3   force =    -0.06723488    0.05141008   -0.09285739
     atom   40 type  3   force =    -0.06719199   -0.05155670   -0.09290748
     atom   41 type  6   force =    -0.11380107    0.21309580    0.27631693
     atom   42 type  6   force =    -0.11238978   -0.21389492    0.27648187
     atom   43 type  3   force =     0.07184645   -0.04951965   -0.08861683
     atom   44 type  3   force =     0.07174756    0.04992078   -0.08853659
     atom   45 type  6   force =    -0.32782496   -0.17343674    0.02254070
     atom   46 type  6   force =    -0.32793211    0.17377442    0.02223952
     atom   47 type  3   force =     0.12814859    0.05366803   -0.02389083
     atom   48 type  3   force =     0.12807621   -0.05361817   -0.02390565
     atom   49 type  6   force =     0.02099840   -0.05764685   -0.07012773
     atom   50 type  6   force =     0.02073333    0.05758709   -0.06981554
     atom   51 type  6   force =     0.04981546    0.05936764   -0.03382134
     atom   52 type  6   force =     0.05263510   -0.05968116   -0.03312254
     atom   53 type  6   force =    -0.05858769   -0.06061948   -0.03920476
     atom   54 type  6   force =    -0.05814898    0.06286338   -0.04167761

     Total force =     1.649767     Total SCF correction =     0.001076


     Computing stress (Cartesian axis) and pressure


     negative rho (up, down):  0.000E+00 1.809E-03
          total   stress  (Ry/bohr**3)                   (kbar)     P=   19.49
  -0.00007545   0.00000082  -0.00000289        -11.10      0.12     -0.43
   0.00000082   0.00024999   0.00000126          0.12     36.78      0.18
  -0.00000289   0.00000126   0.00022297         -0.43      0.18     32.80


     number of scf cycles    =   2
     number of bfgs steps    =   1

     enthalpy old            =    -810.6857291915 Ry
     enthalpy new            =    -810.3976122390 Ry

     CASE: enthalpy_new > enthalpy_old

     new trust radius        =       0.1809046856 bohr
     new conv_thr            =       0.0000010000 Ry

     new unit-cell volume =   5546.38687 a.u.^3 (   821.88973 Ang^3 )
     density =      4.22670 g/cm^3

CELL_PARAMETERS (angstrom)
   6.329822438   0.000000000  -0.000827886
   0.000000000  12.562687843   0.000000000
  -0.230397320   0.000000000  10.335719691

ATOMIC_POSITIONS (crystal)
Ni1      0.494352003   0.753784850   0.838570358
Ni2      0.995559683   0.246194004   0.339274110
O        0.240688376   0.348928517   0.392315791
O        0.740680841   0.651074041   0.892292407
O        0.755479053   0.133835336   0.369739493
O        0.255519064   0.866159822   0.869718730
O        0.935286652   0.351396061   0.496921904
O        0.435267058   0.648610442   0.996900957
O        0.067889886   0.120708405   0.473889465
O        0.567917842   0.879296249   0.973853822
N        0.627155603   0.842577914   0.696570286
N        0.127134671   0.157406979   0.196571465
N        0.361036409   0.646175697   0.715495210
N        0.861032136   0.353827600   0.215499570
C        0.593937725   0.957934949   0.517332729
C        0.093934941   0.042066660   0.017332563
H        0.493876773   0.987976407   0.439418050
H       -0.006122911   0.012024156   0.939418285
C        0.793735963   0.998213555   0.533973637
C        0.293736061   0.001788507   0.033975702
C        0.908141387   0.953701178   0.633550387
C        0.408149149   0.046300861   0.133549997
H        0.070044784   0.979332378   0.651779702
H        0.570044866   0.020668283   0.151779892
C        0.402022087   0.520723101   0.548074729
C        0.902025714   0.479276573   0.048071881
H        0.501405055   0.489157944   0.473325141
H        1.001405560   0.510842639   0.973324480
C        0.471672826   0.601430059   0.622410993
C        0.971673426   0.398573341   0.122410380
H        0.628698519   0.633429407   0.607124457
H        0.128699901   0.366571369   0.107124105
C        0.519980367   0.882499317   0.596070114
C        0.019978701   0.117499329   0.096071745
H        0.362306140   0.850945175   0.578263710
H        0.862307244   0.149054788   0.078263938
C        0.823392963   0.879336878   0.709678285
C        0.323396585   0.120665919   0.209681383
H        0.918871764   0.846165481   0.787527538
H        0.418865919   0.153831175   0.287522982
C        0.170268366   0.603002435   0.730755022
C        0.670263500   0.397002334   0.230759299
H        0.073744658   0.636845610   0.805360246
H        0.573747852   0.363160956   0.305356943
C        0.091901266   0.521582850   0.660762021
C        0.591896117   0.478418388   0.160762247
H        0.934928455   0.490668134   0.680424749
H        0.434928350   0.509332760   0.180424999
C        0.206558836   0.476631399   0.564649171
C        0.706561874   0.523367305   0.064650019
C        0.876109534   0.087816006   0.455729362
C        0.376115513   0.912185769   0.955730461
C        0.124299875   0.387756484   0.482413240
C        0.624295017   0.612244226   0.982411848



     Writing output data file nipyc_from_cif.save/
     Message from routine punch:
     wavefunctions written to file
     NEW-OLD atomic charge density approx. for the potential
     NEW k-points:
   0.0000000   0.0000000   0.0000000   1.0000000
   0.0000000   0.0000000   0.0000000   1.0000000

     Check: negative core charge=   -0.000157

     negative rho (up, down):  0.000E+00 5.413E-04
     extrapolated charge  194.73688, renormalised to  200.00000

     total cpu time spent up to now is      117.1 secs

     Self-consistent Calculation

     iteration #  1     ecut=   100.00 Ry     beta= 0.70
     Davidson diagonalization with overlap
     ethr =  1.00E-06,  avg # of iterations = 19.0

     negative rho (up, down):  1.150E-03 4.071E-03

     total cpu time spent up to now is      122.4 secs

     total energy              =    -807.92424748 Ry
     Harris-Foulkes estimate   =    -840.70655919 Ry
     estimated scf accuracy    <       7.87785968 Ry

     total magnetization       =     4.00 Bohr mag/cell
     absolute magnetization    =     4.18 Bohr mag/cell

     iteration #  2     ecut=   100.00 Ry     beta= 0.70
     Davidson diagonalization with overlap
     ethr =  3.94E-03,  avg # of iterations =  3.0

     negative rho (up, down):  0.000E+00 2.160E-02

     total cpu time spent up to now is      124.1 secs

     total energy              =    -808.67386054 Ry
     Harris-Foulkes estimate   =    -814.94105589 Ry
     estimated scf accuracy    <      61.80135358 Ry

     total magnetization       =     4.00 Bohr mag/cell
     absolute magnetization    =     4.23 Bohr mag/cell

     iteration #  3     ecut=   100.00 Ry     beta= 0.70
     Davidson diagonalization with overlap
     ethr =  3.94E-03,  avg # of iterations =  2.5

     negative rho (up, down):  0.000E+00 1.625E-02

     total cpu time spent up to now is      125.8 secs

     total energy              =    -811.14328087 Ry
     Harris-Foulkes estimate   =    -811.33121628 Ry
     estimated scf accuracy    <       1.32261738 Ry

     total magnetization       =     4.00 Bohr mag/cell
     absolute magnetization    =     4.17 Bohr mag/cell

     iteration #  4     ecut=   100.00 Ry     beta= 0.70
     Davidson diagonalization with overlap
     ethr =  6.61E-04,  avg # of iterations =  1.0

     negative rho (up, down):  0.000E+00 5.774E-03

     total cpu time spent up to now is      127.1 secs

     total energy              =    -811.11247138 Ry
     Harris-Foulkes estimate   =    -811.20685976 Ry
     estimated scf accuracy    <       1.26682264 Ry

     total magnetization       =     4.00 Bohr mag/cell
     absolute magnetization    =     4.17 Bohr mag/cell

     iteration #  5     ecut=   100.00 Ry     beta= 0.70
     Davidson diagonalization with overlap
     ethr =  6.33E-04,  avg # of iterations =  1.0

     negative rho (up, down):  0.000E+00 1.746E-03

     total cpu time spent up to now is      128.5 secs

     total energy              =    -811.11026659 Ry
     Harris-Foulkes estimate   =    -811.13823070 Ry
     estimated scf accuracy    <       0.29754664 Ry

     total magnetization       =     4.00 Bohr mag/cell
     absolute magnetization    =     4.15 Bohr mag/cell

     iteration #  6     ecut=   100.00 Ry     beta= 0.70
     Davidson diagonalization with overlap
     ethr =  1.49E-04,  avg # of iterations =  4.5

     negative rho (up, down):  0.000E+00 1.535E-03

     total cpu time spent up to now is      130.4 secs

     total energy              =    -811.11627646 Ry
     Harris-Foulkes estimate   =    -811.11951474 Ry
     estimated scf accuracy    <       0.11487218 Ry

     total magnetization       =     4.00 Bohr mag/cell
     absolute magnetization    =     4.14 Bohr mag/cell

     iteration #  7     ecut=   100.00 Ry     beta= 0.70
     Davidson diagonalization with overlap
     ethr =  5.74E-05,  avg # of iterations =  3.0

     negative rho (up, down):  0.000E+00 1.619E-03

     total cpu time spent up to now is      132.0 secs

     total energy              =    -811.11131337 Ry
     Harris-Foulkes estimate   =    -811.11862599 Ry
     estimated scf accuracy    <       0.08949693 Ry

     total magnetization       =     4.00 Bohr mag/cell
     absolute magnetization    =     4.13 Bohr mag/cell

     iteration #  8     ecut=   100.00 Ry     beta= 0.70
     Davidson diagonalization with overlap
     ethr =  4.47E-05,  avg # of iterations =  3.0

     negative rho (up, down):  0.000E+00 1.713E-03

     total cpu time spent up to now is      133.5 secs

     total energy              =    -811.11351475 Ry
     Harris-Foulkes estimate   =    -811.11454519 Ry
     estimated scf accuracy    <       0.01469541 Ry

     total magnetization       =     4.00 Bohr mag/cell
     absolute magnetization    =     4.12 Bohr mag/cell

     iteration #  9     ecut=   100.00 Ry     beta= 0.70
     Davidson diagonalization with overlap
     ethr =  7.35E-06,  avg # of iterations =  3.5

     negative rho (up, down):  0.000E+00 1.909E-03

     total cpu time spent up to now is      135.2 secs

     total energy              =    -811.11368954 Ry
     Harris-Foulkes estimate   =    -811.11410032 Ry
     estimated scf accuracy    <       0.00466871 Ry

     total magnetization       =     4.00 Bohr mag/cell
     absolute magnetization    =     4.10 Bohr mag/cell

     iteration # 10     ecut=   100.00 Ry     beta= 0.70
     Davidson diagonalization with overlap
     ethr =  2.33E-06,  avg # of iterations =  3.0

     negative rho (up, down):  0.000E+00 2.219E-03

     total cpu time spent up to now is      136.8 secs

     total energy              =    -811.11384600 Ry
     Harris-Foulkes estimate   =    -811.11394488 Ry
     estimated scf accuracy    <       0.00074297 Ry

     total magnetization       =     4.00 Bohr mag/cell
     absolute magnetization    =     4.10 Bohr mag/cell

     iteration # 11     ecut=   100.00 Ry     beta= 0.70
     Davidson diagonalization with overlap
     ethr =  3.71E-07,  avg # of iterations =  3.5

     negative rho (up, down):  0.000E+00 2.483E-03

     total cpu time spent up to now is      138.6 secs

     total energy              =    -811.11395168 Ry
     Harris-Foulkes estimate   =    -811.11395110 Ry
     estimated scf accuracy    <       0.00002644 Ry

     total magnetization       =     4.00 Bohr mag/cell
     absolute magnetization    =     4.09 Bohr mag/cell

     iteration # 12     ecut=   100.00 Ry     beta= 0.70
     Davidson diagonalization with overlap
     ethr =  1.32E-08,  avg # of iterations =  3.5

     negative rho (up, down):  0.000E+00 2.425E-03

     total cpu time spent up to now is      140.7 secs

     total energy              =    -811.11396155 Ry
     Harris-Foulkes estimate   =    -811.11396041 Ry
     estimated scf accuracy    <       0.00001527 Ry

     total magnetization       =     4.00 Bohr mag/cell
     absolute magnetization    =     4.08 Bohr mag/cell

     iteration # 13     ecut=   100.00 Ry     beta= 0.70
     Davidson diagonalization with overlap
     ethr =  7.63E-09,  avg # of iterations =  1.5

     negative rho (up, down):  0.000E+00 2.360E-03

     total cpu time spent up to now is      142.2 secs

     total energy              =    -811.11396185 Ry
     Harris-Foulkes estimate   =    -811.11396220 Ry
     estimated scf accuracy    <       0.00000745 Ry

     total magnetization       =     4.00 Bohr mag/cell
     absolute magnetization    =     4.08 Bohr mag/cell

     iteration # 14     ecut=   100.00 Ry     beta= 0.70
     Davidson diagonalization with overlap
     ethr =  3.72E-09,  avg # of iterations =  2.0

     negative rho (up, down):  0.000E+00 2.276E-03

     total cpu time spent up to now is      143.7 secs

     total energy              =    -811.11396213 Ry
     Harris-Foulkes estimate   =    -811.11396221 Ry
     estimated scf accuracy    <       0.00000257 Ry

     total magnetization       =     4.00 Bohr mag/cell
     absolute magnetization    =     4.08 Bohr mag/cell

     iteration # 15     ecut=   100.00 Ry     beta= 0.70
     Davidson diagonalization with overlap
     ethr =  1.28E-09,  avg # of iterations =  2.5

     negative rho (up, down):  0.000E+00 2.287E-03
 
     Magnetic moment per site:
     atom:    1    charge:    7.5384    magn:    1.2591    constr:    0.0000
     atom:    2    charge:    7.5386    magn:    1.2606    constr:    0.0000
     atom:    3    charge:    3.1433    magn:    0.0519    constr:    0.0000
     atom:    4    charge:    3.1397    magn:    0.0525    constr:    0.0000
     atom:    5    charge:    3.1409    magn:    0.0535    constr:    0.0000
     atom:    6    charge:    3.1418    magn:    0.0534    constr:    0.0000
     atom:    7    charge:    3.1400    magn:    0.0555    constr:    0.0000
     atom:    8    charge:    3.1390    magn:    0.0559    constr:    0.0000
     atom:    9    charge:    3.1403    magn:    0.0570    constr:    0.0000
     atom:   10    charge:    3.1390    magn:    0.0574    constr:    0.0000
     atom:   11    charge:    2.4599    magn:    0.0143    constr:    0.0000
     atom:   12    charge:    2.4617    magn:    0.0143    constr:    0.0000
     atom:   13    charge:    2.4560    magn:    0.0137    constr:    0.0000
     atom:   14    charge:    2.4544    magn:    0.0139    constr:    0.0000
     atom:   15    charge:    0.5977    magn:    0.0038    constr:    0.0000
     atom:   16    charge:    0.5969    magn:    0.0038    constr:    0.0000
     atom:   17    charge:    0.4112    magn:   -0.0003    constr:    0.0000
     atom:   18    charge:    0.4110    magn:   -0.0003    constr:    0.0000
     atom:   19    charge:    0.5959    magn:    0.0038    constr:    0.0000
     atom:   20    charge:    0.5966    magn:    0.0038    constr:    0.0000
     atom:   21    charge:    0.5974    magn:    0.0038    constr:    0.0000
     atom:   22    charge:    0.5971    magn:    0.0038    constr:    0.0000
     atom:   23    charge:    0.4082    magn:   -0.0003    constr:    0.0000
     atom:   24    charge:    0.4087    magn:   -0.0003    constr:    0.0000
     atom:   25    charge:    0.5976    magn:    0.0038    constr:    0.0000
     atom:   26    charge:    0.5970    magn:    0.0038    constr:    0.0000
     atom:   27    charge:    0.4111    magn:   -0.0003    constr:    0.0000
     atom:   28    charge:    0.4109    magn:   -0.0002    constr:    0.0000
     atom:   29    charge:    0.5909    magn:    0.0030    constr:    0.0000
     atom:   30    charge:    0.5900    magn:    0.0030    constr:    0.0000
     atom:   31    charge:    0.4134    magn:   -0.0002    constr:    0.0000
     atom:   32    charge:    0.4133    magn:   -0.0002    constr:    0.0000
     atom:   33    charge:    0.5919    magn:    0.0030    constr:    0.0000
     atom:   34    charge:    0.5904    magn:    0.0030    constr:    0.0000
     atom:   35    charge:    0.4147    magn:   -0.0003    constr:    0.0000
     atom:   36    charge:    0.4146    magn:   -0.0003    constr:    0.0000
     atom:   37    charge:    0.5929    magn:    0.0033    constr:    0.0000
     atom:   38    charge:    0.5928    magn:    0.0033    constr:    0.0000
     atom:   39    charge:    0.4151    magn:    0.0002    constr:    0.0000
     atom:   40    charge:    0.4152    magn:    0.0002    constr:    0.0000
     atom:   41    charge:    0.5913    magn:    0.0033    constr:    0.0000
     atom:   42    charge:    0.5910    magn:    0.0033    constr:    0.0000
     atom:   43    charge:    0.4134    magn:    0.0001    constr:    0.0000
     atom:   44    charge:    0.4127    magn:    0.0001    constr:    0.0000
     atom:   45    charge:    0.5953    magn:    0.0036    constr:    0.0000
     atom:   46    charge:    0.5953    magn:    0.0036    constr:    0.0000
     atom:   47    charge:    0.4066    magn:   -0.0003    constr:    0.0000
     atom:   48    charge:    0.4070    magn:   -0.0003    constr:    0.0000
     atom:   49    charge:    0.5954    magn:    0.0037    constr:    0.0000
     atom:   50    charge:    0.5966    magn:    0.0038    constr:    0.0000
     atom:   51    charge:    0.5617    magn:   -0.0017    constr:    0.0000
     atom:   52    charge:    0.5612    magn:   -0.0017    constr:    0.0000
     atom:   53    charge:    0.5610    magn:   -0.0016    constr:    0.0000
     atom:   54    charge:    0.5613    magn:   -0.0016    constr:    0.0000

     total cpu time spent up to now is      145.1 secs

     End of self-consistent calculation

 ------ SPIN UP ------------


          k = 0.0000 0.0000 0.0000 ( 45819 PWs)   bands (ev):

   -22.4467 -22.4386 -22.3500 -22.3433 -19.8261 -19.8176 -19.8041 -19.8020
   -19.8008 -19.7945 -19.7307 -19.7203 -15.9608 -15.8974 -15.8937 -15.8699
   -14.4929 -14.4604 -14.4578 -14.4225 -12.0622 -11.9558 -11.9382 -11.9214
   -11.1500 -11.1291 -11.1025 -11.0445  -9.6902  -9.4932  -9.4544  -9.3859
    -8.4674  -8.0682  -7.9977  -7.9325  -7.8653  -7.8458  -7.7771  -7.7674
    -7.0569  -6.9363  -6.8943  -6.7887  -6.7501  -6.6206  -6.5018  -6.4843
    -6.4119  -6.4065  -6.2801  -6.2126  -6.1718  -6.1162  -6.0553  -6.0322
    -5.9722  -5.8400  -5.6897  -5.5700  -5.4814  -5.3653  -5.3598  -5.3429
    -4.7991  -4.7225  -4.3313  -4.3258  -3.9135  -3.7572  -3.7306  -3.7058
    -3.6735  -3.6574  -3.6053  -3.5255  -3.4728  -3.4438  -3.4045  -3.3793
    -3.2713  -2.9612  -2.8549  -2.7460  -2.7211  -2.7067  -2.6854  -2.6291
    -2.5406  -2.5132  -2.4744  -2.4614  -2.3891  -2.3711  -2.3370  -2.2347
    -2.1925  -2.1003  -0.8340  -0.7949  -0.6021  -0.5930   1.7592   1.7713
     1.8037   1.8626   3.2438   3.3273   3.3713   3.5290   3.6954   4.0442
     4.2773   4.3414   4.4828   4.5346   4.7707   5.1187   5.4152   5.5093
     5.5580   5.6732

 ------ SPIN DOWN ----------


          k = 0.0000 0.0000 0.0000 ( 45819 PWs)   bands (ev):

   -22.3423 -22.3336 -22.2462 -22.2390 -19.7859 -19.7700 -19.6991 -19.6909
   -19.6792 -19.6709 -19.6669 -19.6619 -15.9218 -15.8590 -15.8551 -15.8305
   -14.4566 -14.4239 -14.4212 -14.3859 -12.0170 -11.9140 -11.8939 -11.8803
   -11.1195 -11.0989 -11.0729 -11.0155  -9.6578  -9.4619  -9.4243  -9.3543
    -8.4039  -7.9979  -7.9525  -7.8798  -7.8029  -7.8018  -7.7306  -7.7047
    -6.9358  -6.8437  -6.7537  -6.6817  -6.6589  -6.5020  -6.4025  -6.3802
    -6.3136  -6.2704  -6.2009  -6.1382  -6.1024  -6.0861  -6.0143  -6.0069
    -5.9118  -5.7603  -5.6528  -5.5452  -5.4250  -5.3462  -5.3262  -5.2800
    -4.6583  -4.1414  -3.8742  -3.8493  -3.6911  -3.6407  -3.6365  -3.5997
    -3.5558  -3.3353  -3.3119  -3.3035  -2.9861  -2.9804  -2.8940  -2.8831
    -2.8089  -2.6789  -2.5903  -2.5785  -2.5462  -2.4997  -2.3533  -2.2948
    -2.2814  -2.1809  -2.1517  -2.0163  -1.8320  -1.5811  -1.5751  -1.5585
    -1.5432  -1.4302   0.0079   0.0181   0.1790   0.2059   1.8580   1.8607
     1.9202   1.9516   3.3017   3.3690   3.4421   3.6016   3.7708   4.0855
     4.3226   4.3960   4.5521   4.5871   4.8175   5.1599   5.4644   5.5360
     5.6057   5.7266

     the spin up/dw Fermi energies are    -0.1760   -0.4626 ev

!    total energy              =    -811.11396222 Ry
     Harris-Foulkes estimate   =    -811.11396233 Ry
     estimated scf accuracy    <       0.00000086 Ry

     The total energy is the sum of the following terms:

     one-electron contribution =   -1219.22075588 Ry
     hartree contribution      =     678.92673708 Ry
     xc contribution           =    -247.19729469 Ry
     ewald contribution        =     -24.85154887 Ry
     Dispersion Correction     =      -0.19674889 Ry
     smearing contrib. (-TS)   =       1.42564903 Ry

     total magnetization       =     4.00 Bohr mag/cell
     absolute magnetization    =     4.08 Bohr mag/cell

     convergence has been achieved in  15 iterations

     negative rho (up, down):  0.000E+00 2.287E-03

     Forces acting on atoms (cartesian axes, Ry/au):

     atom    1 type  1   force =    -0.00757000   -0.00880216   -0.03654411
     atom    2 type  2   force =     0.03129147    0.00885610    0.00544602
[...]

     total energy              =    -811.24813224 Ry
     Harris-Foulkes estimate   =    -811.24802576 Ry
     estimated scf accuracy    <       0.00028371 Ry

     total magnetization       =     4.00 Bohr mag/cell
     absolute magnetization    =     4.15 Bohr mag/cell

     iteration # 13     ecut=   100.00 Ry     beta= 0.70
     Davidson diagonalization with overlap
     ethr =  1.42E-07,  avg # of iterations =  5.0

     negative rho (up, down):  0.000E+00 4.551E-03

     total cpu time spent up to now is     2688.9 secs

     total energy              =    -811.24817336 Ry
     Harris-Foulkes estimate   =    -811.24815673 Ry
     estimated scf accuracy    <       0.00004762 Ry

     total magnetization       =     4.00 Bohr mag/cell
     absolute magnetization    =     4.15 Bohr mag/cell

     iteration # 14     ecut=   100.00 Ry     beta= 0.70
     Davidson diagonalization with overlap
     ethr =  2.38E-08,  avg # of iterations =  2.5

     negative rho (up, down):  0.000E+00 4.653E-03

     total cpu time spent up to now is     2690.7 secs

     total energy              =    -811.24818526 Ry
     Harris-Foulkes estimate   =    -811.24817761 Ry
     estimated scf accuracy    <       0.00001323 Ry

     total magnetization       =     4.00 Bohr mag/cell
     absolute magnetization    =     4.15 Bohr mag/cell

     iteration # 15     ecut=   100.00 Ry     beta= 0.70
     Davidson diagonalization with overlap
     ethr =  6.62E-09,  avg # of iterations =  3.5

     negative rho (up, down):  0.000E+00 4.698E-03

     total cpu time spent up to now is     2692.7 secs

     total energy              =    -811.24818798 Ry
     Harris-Foulkes estimate   =    -811.24818658 Ry
     estimated scf accuracy    <       0.00000338 Ry

     total magnetization       =     4.00 Bohr mag/cell
     absolute magnetization    =     4.15 Bohr mag/cell

     iteration # 16     ecut=   100.00 Ry     beta= 0.70
     Davidson diagonalization with overlap
     ethr =  1.69E-09,  avg # of iterations =  3.0

     negative rho (up, down):  0.000E+00 4.680E-03

     total cpu time spent up to now is     2694.6 secs

     total energy              =    -811.24818895 Ry
     Harris-Foulkes estimate   =    -811.24818825 Ry
     estimated scf accuracy    <       0.00000099 Ry

     total magnetization       =     4.00 Bohr mag/cell
     absolute magnetization    =     4.15 Bohr mag/cell

     iteration # 17     ecut=   100.00 Ry     beta= 0.70
     Davidson diagonalization with overlap
     ethr =  4.93E-10,  avg # of iterations =  3.0

     negative rho (up, down):  0.000E+00 4.692E-03

     total cpu time spent up to now is     2696.5 secs

     total energy              =    -811.24818917 Ry
     Harris-Foulkes estimate   =    -811.24818904 Ry
     estimated scf accuracy    <       0.00000038 Ry

     total magnetization       =     4.00 Bohr mag/cell
     absolute magnetization    =     4.15 Bohr mag/cell

     iteration # 18     ecut=   100.00 Ry     beta= 0.70
     Davidson diagonalization with overlap
     ethr =  1.88E-10,  avg # of iterations =  3.0

     negative rho (up, down):  0.000E+00 4.704E-03

     total cpu time spent up to now is     2698.4 secs

     total energy              =    -811.24818923 Ry
     Harris-Foulkes estimate   =    -811.24818921 Ry
     estimated scf accuracy    <       0.00000011 Ry

     total magnetization       =     4.00 Bohr mag/cell
     absolute magnetization    =     4.15 Bohr mag/cell

     iteration # 19     ecut=   100.00 Ry     beta= 0.70
     Davidson diagonalization with overlap
     ethr =  5.58E-11,  avg # of iterations =  2.5

     negative rho (up, down):  0.000E+00 4.683E-03

     total cpu time spent up to now is     2700.2 secs

     total energy              =    -811.24818924 Ry
     Harris-Foulkes estimate   =    -811.24818924 Ry
     estimated scf accuracy    <       0.00000007 Ry

     total magnetization       =     4.00 Bohr mag/cell
     absolute magnetization    =     4.15 Bohr mag/cell

     iteration # 20     ecut=   100.00 Ry     beta= 0.70
     Davidson diagonalization with overlap
     ethr =  3.40E-11,  avg # of iterations =  3.0

     negative rho (up, down):  0.000E+00 4.673E-03

     total cpu time spent up to now is     2702.1 secs

     total energy              =    -811.24818925 Ry
     Harris-Foulkes estimate   =    -811.24818925 Ry
     estimated scf accuracy    <       0.00000002 Ry

     total magnetization       =     4.00 Bohr mag/cell
     absolute magnetization    =     4.15 Bohr mag/cell

     iteration # 21     ecut=   100.00 Ry     beta= 0.70
     Davidson diagonalization with overlap
     ethr =  7.64E-12,  avg # of iterations =  2.5

     negative rho (up, down):  0.000E+00 4.677E-03

     total cpu time spent up to now is     2703.9 secs

     total energy              =    -811.24818926 Ry
     Harris-Foulkes estimate   =    -811.24818926 Ry
     estimated scf accuracy    <       0.00000001 Ry

     total magnetization       =     4.00 Bohr mag/cell
     absolute magnetization    =     4.15 Bohr mag/cell

     iteration # 22     ecut=   100.00 Ry     beta= 0.70
     Davidson diagonalization with overlap
     ethr =  5.47E-12,  avg # of iterations =  3.0

     negative rho (up, down):  0.000E+00 4.677E-03
 
     Magnetic moment per site:
     atom:    1    charge:    7.3262    magn:    1.0330    constr:    0.0000
     atom:    2    charge:    7.3922    magn:    1.0277    constr:    0.0000
     atom:    3    charge:    3.1184    magn:    0.0665    constr:    0.0000
     atom:    4    charge:    3.1180    magn:    0.0698    constr:    0.0000
     atom:    5    charge:    3.1171    magn:    0.0681    constr:    0.0000
     atom:    6    charge:    3.1178    magn:    0.0693    constr:    0.0000
     atom:    7    charge:    3.1186    magn:    0.0684    constr:    0.0000
     atom:    8    charge:    3.1173    magn:    0.0713    constr:    0.0000
     atom:    9    charge:    3.1164    magn:    0.0706    constr:    0.0000
     atom:   10    charge:    3.1173    magn:    0.0710    constr:    0.0000
     atom:   11    charge:    2.4087    magn:    0.0197    constr:    0.0000
     atom:   12    charge:    2.4087    magn:    0.0198    constr:    0.0000
     atom:   13    charge:    2.4115    magn:    0.0189    constr:    0.0000
     atom:   14    charge:    2.4082    magn:    0.0197    constr:    0.0000
     atom:   15    charge:    0.5737    magn:    0.0056    constr:    0.0000
     atom:   16    charge:    0.5735    magn:    0.0056    constr:    0.0000
     atom:   17    charge:    0.3687    magn:   -0.0012    constr:    0.0000
     atom:   18    charge:    0.3690    magn:   -0.0012    constr:    0.0000
     atom:   19    charge:    0.5759    magn:    0.0043    constr:    0.0000
     atom:   20    charge:    0.5757    magn:    0.0043    constr:    0.0000
     atom:   21    charge:    0.5740    magn:    0.0055    constr:    0.0000
     atom:   22    charge:    0.5726    magn:    0.0055    constr:    0.0000
     atom:   23    charge:    0.3685    magn:   -0.0015    constr:    0.0000
     atom:   24    charge:    0.3689    magn:   -0.0015    constr:    0.0000
     atom:   25    charge:    0.5748    magn:    0.0054    constr:    0.0000
     atom:   26    charge:    0.5728    magn:    0.0055    constr:    0.0000
     atom:   27    charge:    0.3688    magn:   -0.0013    constr:    0.0000
     atom:   28    charge:    0.3693    magn:   -0.0012    constr:    0.0000
     atom:   29    charge:    0.5682    magn:    0.0048    constr:    0.0000
     atom:   30    charge:    0.5670    magn:    0.0048    constr:    0.0000
     atom:   31    charge:    0.3700    magn:   -0.0011    constr:    0.0000
     atom:   32    charge:    0.3702    magn:   -0.0011    constr:    0.0000
     atom:   33    charge:    0.5669    magn:    0.0048    constr:    0.0000
     atom:   34    charge:    0.5664    magn:    0.0048    constr:    0.0000
     atom:   35    charge:    0.3697    magn:   -0.0012    constr:    0.0000
     atom:   36    charge:    0.3705    magn:   -0.0012    constr:    0.0000
     atom:   37    charge:    0.5678    magn:    0.0047    constr:    0.0000
     atom:   38    charge:    0.5667    magn:    0.0047    constr:    0.0000
     atom:   39    charge:    0.3690    magn:   -0.0008    constr:    0.0000
     atom:   40    charge:    0.3685    magn:   -0.0008    constr:    0.0000
     atom:   41    charge:    0.5680    magn:    0.0047    constr:    0.0000
     atom:   42    charge:    0.5670    magn:    0.0047    constr:    0.0000
     atom:   43    charge:    0.3683    magn:   -0.0008    constr:    0.0000
     atom:   44    charge:    0.3691    magn:   -0.0008    constr:    0.0000
     atom:   45    charge:    0.5741    magn:    0.0054    constr:    0.0000
     atom:   46    charge:    0.5746    magn:    0.0056    constr:    0.0000
     atom:   47    charge:    0.3683    magn:   -0.0015    constr:    0.0000
     atom:   48    charge:    0.3690    magn:   -0.0015    constr:    0.0000
     atom:   49    charge:    0.5774    magn:    0.0042    constr:    0.0000
     atom:   50    charge:    0.5755    magn:    0.0043    constr:    0.0000
     atom:   51    charge:    0.5545    magn:   -0.0013    constr:    0.0000
     atom:   52    charge:    0.5547    magn:   -0.0014    constr:    0.0000
     atom:   53    charge:    0.5556    magn:   -0.0012    constr:    0.0000
     atom:   54    charge:    0.5558    magn:   -0.0015    constr:    0.0000

     total cpu time spent up to now is     2705.6 secs

     End of self-consistent calculation

 ------ SPIN UP ------------


          k = 0.0000 0.0000 0.0000 ( 46637 PWs)   bands (ev):

   -22.7720 -22.7474 -22.6013 -22.5807 -19.7743 -19.7464 -19.7408 -19.7274
   -19.4843 -19.4477 -19.3067 -19.2860 -15.6696 -15.5718 -15.5592 -15.5343
   -14.3952 -14.3565 -14.3340 -14.2982 -12.0080 -11.8089 -11.7866 -11.7695
   -11.2324 -11.2120 -11.1854 -11.1195  -9.5728  -9.2592  -9.2408  -9.1984
    -8.4992  -7.9782  -7.9263  -7.8187  -7.7982  -7.7491  -7.7135  -7.5797
    -7.0251  -6.9114  -6.8843  -6.8394  -6.7784  -6.7039  -6.6467  -6.6256
    -6.6104  -6.5541  -6.3868  -6.3093  -6.3057  -6.2614  -6.1820  -6.0835
    -5.9971  -5.7647  -5.6114  -5.5642  -5.5107  -5.4164  -5.3832  -5.1113
    -4.8794  -4.7605  -4.4605  -4.3435  -4.2375  -4.1808  -4.1664  -3.9697
    -3.9220  -3.7442  -3.6880  -3.6228  -3.4801  -3.3534  -3.3149  -3.2909
    -3.2154  -2.8233  -2.7360  -2.6415  -2.6342  -2.6080  -2.4871  -2.4708
    -2.4481  -2.3613  -2.3080  -2.2600  -2.2385  -2.1861  -2.1340  -2.0995
    -2.0164  -1.9122  -0.2098  -0.1408   0.1623   0.2220   1.6483   1.7332
     1.8034   1.8639   2.9104   2.9371   3.1207   3.1661   3.4640   4.2339
     4.3215   4.3376   4.4783   4.5212   5.0841   5.3070   5.4517   5.6101
     5.6259   5.8217

 ------ SPIN DOWN ----------


          k = 0.0000 0.0000 0.0000 ( 46637 PWs)   bands (ev):

   -22.6393 -22.6112 -22.4689 -22.4451 -19.6055 -19.5742 -19.5657 -19.5527
   -19.4357 -19.3989 -19.2585 -19.2377 -15.6177 -15.5203 -15.5076 -15.4815
   -14.3440 -14.3048 -14.2825 -14.2463 -11.9486 -11.7531 -11.7299 -11.7122
   -11.1926 -11.1722 -11.1454 -11.0808  -9.5371  -9.2277  -9.2062  -9.1631
    -8.4170  -7.8802  -7.8475  -7.7315  -7.7189  -7.6563  -7.6389  -7.5247
    -6.8769  -6.7605  -6.7277  -6.7098  -6.6475  -6.5973  -6.5323  -6.5313
    -6.4839  -6.4184  -6.3333  -6.2568  -6.2419  -6.1951  -6.0783  -5.9649
    -5.8893  -5.7260  -5.5691  -5.5375  -5.4792  -5.3297  -5.3021  -5.0000
    -4.7194  -4.2963  -4.2917  -4.2104  -4.1457  -4.1336  -3.8787  -3.7053
    -3.5967  -3.5134  -3.4185  -3.3230  -3.0339  -2.9334  -2.8841  -2.8790
    -2.8253  -2.5229  -2.4515  -2.4131  -2.3965  -2.3600  -2.2339  -2.1743
    -2.1552  -2.0981  -1.8886  -1.8282  -1.8012  -1.5375  -1.4928  -1.4789
    -1.4269  -1.3548   0.5340   0.5889   0.8113   0.8880   1.7680   1.8928
     1.9402   1.9881   3.0269   3.0531   3.2365   3.2834   3.5099   4.3096
     4.4053   4.4223   4.5465   4.6246   5.1523   5.3663   5.4986   5.6420
     5.6676   5.8675

     the spin up/dw Fermi energies are     0.1355   -0.3091 ev

!    total energy              =    -811.24818926 Ry
     Harris-Foulkes estimate   =    -811.24818926 Ry
     estimated scf accuracy    <          3.6E-09 Ry

     The total energy is the sum of the following terms:

     one-electron contribution =   -1268.33752732 Ry
     hartree contribution      =     703.55912060 Ry
     xc contribution           =    -246.75113645 Ry
     ewald contribution        =      -0.90190545 Ry
     Dispersion Correction     =      -0.20650368 Ry
     smearing contrib. (-TS)   =       1.38976305 Ry

     total magnetization       =     4.00 Bohr mag/cell
     absolute magnetization    =     4.15 Bohr mag/cell

     convergence has been achieved in  22 iterations

     negative rho (up, down):  0.000E+00 4.677E-03

     Forces acting on atoms (cartesian axes, Ry/au):

     atom    1 type  1   force =    -0.00479043    0.00871182   -0.02823816
     atom    2 type  2   force =    -0.01188135   -0.00878399   -0.03814881
     atom    3 type  4   force =    -0.00049432   -0.00108869    0.00277620
     atom    4 type  4   force =    -0.00211037    0.00128149    0.00266098
     atom    5 type  4   force =    -0.00017614    0.00154880    0.00368477
     atom    6 type  4   force =     0.00053332   -0.00146984    0.00433448
     atom    7 type  4   force =     0.00381053   -0.00153540    0.00004895
     atom    8 type  4   force =     0.00313443    0.00102455    0.00213343
     atom    9 type  4   force =    -0.00129649    0.00082962    0.00253642
     atom   10 type  4   force =    -0.00307324   -0.00120221    0.00068701
     atom   11 type  5   force =     0.00017083   -0.00470013    0.00004260
     atom   12 type  5   force =    -0.00034970    0.00500320   -0.00022128
     atom   13 type  5   force =     0.00143992    0.00471731   -0.00016351
     atom   14 type  5   force =     0.00070778   -0.00473089   -0.00029666
     atom   15 type  6   force =     0.00133472    0.00001433    0.00155522
     atom   16 type  6   force =     0.00083569    0.00007464    0.00134806
     atom   17 type  3   force =     0.00043033   -0.00037493    0.00136855
     atom   18 type  3   force =     0.00075826   -0.00006936    0.00155225
     atom   19 type  6   force =     0.00012685   -0.00025120    0.00160501
     atom   20 type  6   force =     0.00011619    0.00021894    0.00171717
     atom   21 type  6   force =    -0.00046627   -0.00019258    0.00153718
     atom   22 type  6   force =    -0.00036595    0.00037223    0.00177583
     atom   23 type  3   force =     0.00034627   -0.00029052    0.00127769
     atom   24 type  3   force =     0.00015349    0.00003885    0.00143786
     atom   25 type  6   force =     0.00085198    0.00047185    0.00145766
     atom   26 type  6   force =     0.00080718   -0.00023951    0.00069905
     atom   27 type  3   force =     0.00093253    0.00021976    0.00137184
     atom   28 type  3   force =     0.00024216   -0.00015267    0.00162086
     atom   29 type  6   force =     0.00036295    0.00081696    0.00102784
     atom   30 type  6   force =     0.00071772   -0.00096906    0.00089004
     atom   31 type  3   force =    -0.00138528   -0.00050849    0.00187253
     atom   32 type  3   force =    -0.00144869    0.00065765    0.00159122
     atom   33 type  6   force =    -0.00020029   -0.00098729    0.00124291
     atom   34 type  6   force =     0.00035277    0.00104489    0.00090433
     atom   35 type  3   force =     0.00236993    0.00070515    0.00139424
     atom   36 type  3   force =     0.00174013   -0.00040463    0.00116872
     atom   37 type  6   force =     0.00083426   -0.00043194    0.00187226
     atom   38 type  6   force =     0.00076061    0.00077659    0.00199457
     atom   39 type  3   force =    -0.00045299    0.00131276   -0.00031271
     atom   40 type  3   force =    -0.00041797   -0.00104757   -0.00020420
     atom   41 type  6   force =    -0.00030635   -0.00022655    0.00188371
     atom   42 type  6   force =     0.00021144    0.00013606    0.00190208
     atom   43 type  3   force =     0.00160010   -0.00161979   -0.00036593
     atom   44 type  3   force =     0.00140682    0.00140491   -0.00015261
     atom   45 type  6   force =     0.00053188    0.00056119    0.00247233
     atom   46 type  6   force =     0.00054980   -0.00067025    0.00189519
     atom   47 type  3   force =     0.00037296    0.00005250    0.00119320
     atom   48 type  3   force =     0.00026461    0.00002905    0.00156171
     atom   49 type  6   force =     0.00055931    0.00068754    0.00108560
     atom   50 type  6   force =    -0.00007524   -0.00028751    0.00121852
     atom   51 type  6   force =     0.00002755    0.00003619    0.00075316
     atom   52 type  6   force =     0.00055452   -0.00022428    0.00021915
     atom   53 type  6   force =    -0.00062237    0.00014476    0.00040370
     atom   54 type  6   force =    -0.00003638   -0.00043428    0.00032777

     Total force =     0.053815     Total SCF correction =     0.000128


     Computing stress (Cartesian axis) and pressure


     negative rho (up, down):  0.000E+00 4.677E-03
          total   stress  (Ry/bohr**3)                   (kbar)     P=   17.70
   0.00013793   0.00000806   0.00000727         20.29      1.19      1.07
   0.00000806   0.00011717   0.00000942          1.19     17.24      1.39
   0.00000727   0.00000942   0.00010593          1.07      1.39     15.58


     Writing output data file nipyc_from_cif.save/
 
     init_run     :     11.50s CPU     13.63s WALL (       2 calls)
     electrons    :   1577.60s CPU   1621.10s WALL (      73 calls)
     update_pot   :    390.03s CPU    390.65s WALL (      71 calls)
     forces       :    224.69s CPU    225.32s WALL (      73 calls)
     stress       :    325.36s CPU    325.70s WALL (      73 calls)

     Called by init_run:
     wfcinit      :      1.90s CPU      2.98s WALL (       2 calls)
     potinit      :      3.52s CPU      3.61s WALL (       2 calls)
     hinit0       :      4.72s CPU      5.51s WALL (       2 calls)

     Called by electrons:
     c_bands      :   1046.61s CPU   1068.65s WALL (     966 calls)
     sum_band     :    193.40s CPU    198.44s WALL (     966 calls)
     v_of_rho     :    185.19s CPU    186.62s WALL (    1038 calls)
     mix_rho      :    138.34s CPU    140.31s WALL (     966 calls)

     Called by c_bands:
     init_us_2    :      7.37s CPU      7.45s WALL (    1934 calls)
     regterg      :   1022.50s CPU   1043.95s WALL (     966 calls)

     Called by sum_band:

     Called by *egterg:
     h_psi        :    698.87s CPU    717.79s WALL (    3328 calls)
     g_psi        :      5.75s CPU      5.81s WALL (    2360 calls)
     rdiaghg      :    218.90s CPU    221.70s WALL (    3254 calls)

     Called by h_psi:
     h_psi:pot    :    697.36s CPU    716.21s WALL (    3328 calls)
     h_psi:calbec :     11.64s CPU     12.13s WALL (    3328 calls)
     vloc_psi     :    677.32s CPU    695.46s WALL (    3328 calls)
     add_vuspsi   :      8.23s CPU      8.51s WALL (    3328 calls)

     General routines
     calbec       :     13.28s CPU     13.95s WALL (    3693 calls)
     fft          :    115.25s CPU    117.64s WALL (   17760 calls)
     ffts         :    112.65s CPU    114.06s WALL (   17110 calls)
     fftw         :    774.11s CPU    793.66s WALL (  333018 calls)
     davcio       :      0.02s CPU      0.27s WALL (      72 calls)
 
     Parallel routines
     fft_scatt_xy :     96.77s CPU    101.14s WALL (  367888 calls)
     fft_scatt_yz :    637.11s CPU    646.04s WALL (  367888 calls)
 
     PWSCF        :  43m 2.02s CPU  45m18.32s WALL

 
   This run was terminated on:   8:22:12  29Apr2020            

=------------------------------------------------------------------------------=
   JOB DONE.
=------------------------------------------------------------------------------=
