ITEM: TIMESTEP
0
ITEM: NUMBER OF ATOMS
124
ITEM: BOX BOUNDS xy xz yz pp pp pp
-2.3409339915495037e-01 1.4919241188277200e+01 0.0000000000000000e+00
0.0000000000000000e+00 1.0206423000589799e+01 -2.3409339915495037e-01
0.0000000000000000e+00 1.0567681463379200e+01 0.0000000000000000e+00
ITEM: ATOMS id type x y z
1 1 2.28936 8.86282 8.86814
2 1 6.20054 3.56739 3.50709
3 2 -0.0265138 4.97268 3.65845
4 2 3.68805 7.83361 8.98957
5 2 4.7805 2.53352 3.57024
6 2 0.894089 9.89836 8.98708
7 2 5.68674 4.71544 4.77896
8 2 1.7975 7.72555 10.1524
9 2 14.1574 2.73035 4.82162
10 2 2.79285 10.0234 10.1313
11 3 3.06936 10.0003 7.51986
12 3 14.5709 2.74603 2.23601
13 3 1.49457 7.7021 7.56481
14 3 5.45547 4.73684 2.15276
15 4 3.39122 0.506467 5.23396
16 4 14.7544 1.78287 0.0507113
17 5 3.04532 0.527447 4.20881
18 5 6.46407 1.07294 9.71739
19 4 4.64568 1.05362 5.55291
20 4 1.09037 1.23236 0.35206
21 4 5.10444 0.930045 6.85696
22 4 1.63404 1.49298 1.60429
23 5 13.4285 1.78378 7.26867
24 5 2.63565 1.14991 1.83803
25 4 1.35008 6.66187 5.4086
26 4 4.84129 5.50233 10.4574
27 5 1.82685 6.38061 4.47735
28 5 12.8807 6.15332 9.60368
29 4 2.11857 7.25468 6.42566
30 4 5.9347 4.91381 0.867495
31 4 2.53938 0.0252743 6.26795
32 4 13.9736 2.33994 1.07698
33 5 5.3626 2.09853 0.971802
34 4 4.32006 0.277307 7.81417
35 4 0.988151 2.40564 2.46174
36 5 4.7359 0.103569 8.78779
37 4 0.2003 7.31229 7.81782
38 4 4.26761 5.34144 2.50634
39 5 14.6887 7.49892 8.78472
40 5 3.85046 5.18198 3.48368
41 4 14.3431 6.67009 6.84564
42 4 3.56341 6.15969 1.62553
43 5 6.13948 5.92845 7.12128
44 5 2.71795 6.73041 1.98641
45 4 -0.00849918 6.36005 5.62127
46 4 3.93469 6.22037 0.296526
47 4 5.40192 1.87203 4.55347
48 4 1.56378 0.36242 9.92893
49 4 14.1863 5.5839 4.58844
50 4 3.01983 7.16986 9.93251
51 1 9.80569 8.87686 8.70411
52 1 13.6292 3.82835 3.51621
53 2 7.59043 4.58908 3.66002
54 2 11.0884 7.73329 8.85417
55 2 12.3188 2.67144 3.58157
56 2 8.50513 10.0425 8.74154
57 2 12.9921 4.94693 4.77594
58 2 9.20105 7.78012 9.99306
59 2 6.61413 2.42267 4.80268
60 2 10.3135 10.0138 9.98964
61 3 10.7527 9.93012 7.39893
62 3 7.05323 2.41465 2.22086
63 3 8.96586 7.7685 7.38654
64 3 12.8058 4.8939 2.15464
65 4 11.2336 0.35235 5.12761
66 4 7.18086 1.33976 0.0724973
67 5 11.029 0.214664 4.07346
68 5 14.1558 1.79245 9.601
69 4 12.303 1.16563 5.54356
70 4 8.57792 1.16985 0.212992
71 4 12.6036 1.18554 6.90287
72 4 9.18305 1.62262 1.37117
73 5 6.07634 1.31874 7.13607
74 5 10.2449 1.45999 1.52459
75 4 9.02837 6.35285 5.44804
76 4 12.4199 5.91345 10.5526
77 5 9.55173 6.04606 4.55769
78 5 5.11946 5.50061 9.41123
79 4 9.68751 7.14258 6.40525
80 4 13.4277 5.32696 1.00472
81 5 10.7504 7.32077 6.31177
82 4 10.3496 10.0309 6.09644
83 4 6.42463 1.9407 1.10484
84 5 9.37538 9.67883 5.79796
85 5 12.9331 2.56902 0.892365
86 4 12.0111 0.216412 7.73427
87 4 8.39185 2.09991 2.42557
88 4 7.63558 7.40391 7.57751
89 4 11.4903 5.22718 2.37548
90 5 11.0126 4.91776 3.28448
91 4 7.07576 6.36996 6.82534
92 4 10.7672 6.00442 1.46452
93 5 13.3159 6.40314 7.06152
94 5 9.79142 6.38536 1.7335
95 4 7.68631 5.98236 5.65302
96 4 11.3255 6.30215 0.234183
97 4 12.9902 2.07869 4.57182
98 4 9.13415 0.442403 9.7369
99 4 6.93586 5.2386 4.60801
100 4 10.3879 7.13699 9.79803
101 6 1.07163 0.0523684 6.07115
102 7 0.476928 9.78309 4.84965
103 5 0.45823 0.589675 6.77703
104 6 1.87349 3.30153 3.23157
105 7 2.01755 3.18134 4.65591
106 5 1.97406 3.20125 4.30709
107 6 3.57761 7.09699 6.38317
108 7 4.34117 7.63224 5.28915
109 5 4.02144 6.34658 7.01969
110 6 7.39368 4.79945 0.585165
111 7 7.65135 4.51872 9.82838
112 5 8.10233 4.89971 1.3865
113 6 12.9616 9.55499 8.46238
114 7 13.0077 9.50642 9.89968
115 5 12.9848 9.5277 9.54651
116 6 8.88684 1.85188 3.78167
117 7 9.56798 2.87328 4.52624
118 5 8.5835 0.941509 4.27871
119 6 6.70184 8.27461 8.31093
120 7 6.46191 8.09323 9.7149
121 5 6.52465 8.13005 9.37139
122 6 -0.0199258 5.43152 0.927725
123 7 0.459535 4.88248 10.3738
124 5 0.482828 6.14381 1.5685
