15
	Energy:      22.6215773
N         -0.41456       -0.16900       -0.02678
C         -1.62890        0.43221       -0.02729
C          0.73295        0.55209        0.02957
C         -1.72524        1.82170        0.03090
H         -2.52621       -0.17049       -0.07309
C         -0.56246        2.61928        0.09119
H         -2.71006        2.27179        0.02893
C          0.69536        1.95518        0.08968
H          1.68310        0.03369        0.02763
C         -0.73787        4.11774        0.15254
O          1.85642        2.63509        0.14386
H          2.71521        2.18826        0.14280
O          0.29159        4.99516        0.21858
H          1.22437        4.76971        0.23617
O         -1.87019        4.57655        0.14339
