14
	Energy:      22.1699733
N         -1.05502        0.39063       -0.01317
C          0.17121        0.96492        0.05568
C         -2.18751        1.13493       -0.02031
C          0.30205        2.35608        0.12231
C         -2.11683        2.52827        0.04407
C         -0.85800        3.17525        0.11787
C         -0.80815        4.68426        0.18685
F          1.55358        2.86457        0.18750
F          1.27713        0.18081        0.05933
F         -3.39348        0.51993       -0.09029
F         -3.27571        3.23591        0.03463
O          0.34437        5.38992        0.27169
H          1.22889        5.01833        0.30270
O         -1.85350        5.31485        0.16739
