5
	Energy:       0.4004594
N         -2.91286       -1.29982        0.00000
C         -1.80609       -0.65601        0.00000
C         -1.81690        0.83668        0.00000
F         -0.62958       -1.33606       -0.00000
F         -0.52424        1.32777        0.00000
