13
	Energy:      16.0169073
N         -1.04467        0.39476       -0.01305
C          0.17622        0.98517        0.05879
C         -2.18921        1.12561       -0.02208
C          0.28335        2.37740        0.12597
C         -2.13506        2.52084        0.04328
C         -0.88382        3.16903        0.11887
C         -0.79560        4.65655        0.18968
F          1.51605        2.94108        0.19704
F          1.29358        0.21786        0.06516
F         -3.38732        0.49591       -0.09487
F         -3.29416        3.22763        0.03263
O          0.40219        5.26934        0.26170
O         -1.80796        5.33905        0.18333
