5
	Energy:       0.5432018
C          0.46157        1.33824       -0.00000
C          0.28533       -0.14358        0.00000
C         -0.60693        2.12838       -0.00000
O          1.69628        1.88083       -0.00000
H          2.48735        1.32362       -0.00000
