Created on Wed Aug 12 10:48:42 2020 

         140 atoms
         160 bonds
         292 angles
         320 dihedrals
         216 impropers

           6 atom types
          10 bond types
          18 angle types
           4 dihedral types
           1 improper types
           0.000000  12.505600 xlo xhi
           0.000000  12.523400 ylo yhi
           0.000000  10.274279 zlo zhi
           0.000000  -0.227594   0.000000 xy xz yz

Masses

    1    58.693400000 # Ni4+2
    2    15.999400000 # O_R
    3    14.006700000 # N_R
    4    12.010700000 # C_R
    5     1.007940000 # H_
    6    12.010700000 # C_2

Bond Coeffs

    1      321.720028        1.793457  # Ni4+2 O_R
    2      328.673665        1.841585  # Ni4+2 N_R
    3      646.680887        1.311940  # O_R C_R
    4      663.718927        1.345073  # N_R C_R
    5      462.655054        1.379256  # C_R C_R
    6      357.440381        1.081418  # C_R H_
    7      389.261715        1.461000  # C_R C_2
    8      391.669513        1.458000  # C_R C_R
    9      517.346067        1.328833  # C_2 C_2
   10      354.483902        1.084416  # C_2 H_

Angle Coeffs

    1      322.980216               1               4 # O_R Ni4+2 O_R
    2      343.030950               1               4 # O_R Ni4+2 N_R
    3      364.965660               1               4 # N_R Ni4+2 N_R
    4      238.346347              -1               3 # C_R O_R Ni4+2
    5      177.809033              -1               3 # Ni4+2 N_R C_R
    6      240.001032              -1               3 # C_R N_R C_R
    7      114.578032              -1               3 # C_R C_R H_
    8      222.595017              -1               3 # C_R C_R C_R
    9      203.704287              -1               3 # C_R C_R C_2
   10      204.366560              -1               3 # C_R C_R C_R
   11      307.398705              -1               3 # N_R C_R C_R
   12      159.573934              -1               3 # N_R C_R H_
   13      263.511421              -1               3 # O_R C_R C_R
   14      374.272657              -1               3 # O_R C_R O_R
   15      214.555074              -1               3 # C_R C_2 C_2
   16      102.542651              -1               3 # C_R C_2 H_
   17      122.161963              -1               3 # C_2 C_2 H_
   18       63.510678              -1               3 # H_ C_2 H_

Dihedral Coeffs

    1        2.245703              -1               2 # Ni4+2 O_R C_R C_R
    2        1.497136              -1               2 # Ni4+2 N_R C_R C_R
    3        0.555556              -1               2 # C_R C_R C_2 C_2
    4        2.165197              -1               2 # C_R C_2 C_2 H_

Improper Coeffs

    1        2.000000        1.000000       -1.000000        0.000000               0 # Ni4+2 N_R C_R C_R

Pair Coeffs

    1        0.015000        2.524807 # Ni4+2 Ni4+2
    2        0.060000        3.118146 # O_R O_R
    3        0.069000        3.260689 # N_R N_R
    4        0.105000        3.430851 # C_R C_R
    5        0.044000        2.571134 # H_ H_
    6        0.105000        3.430851 # C_2 C_2

Atoms

       1      444        1     0.00000    2.89857    9.41116    8.59265
       2      444        1     0.00000    6.17525    3.10579    3.48481
       3      444        2     0.00000    1.44827    4.35425    3.93374
       4      444        2     0.00000    4.44160    8.15245    9.05464
       5      444        2     0.00000    4.63665    1.84729    3.87523
       6      444        2     0.00000    1.36499   10.67435    9.00295
       7      444        2     0.00000    5.80609    4.46033    4.96242
       8      444        2     0.00000    2.54244    8.03270   10.06753
       9      444        2     0.00000    0.25117    1.69264    4.94273
      10      444        2     0.00000    3.23722   10.80466   10.06262
      11      444        3     0.00000    3.69677   10.66058    7.24160
      12      444        3     0.00000    0.71256    1.86420    2.11704
      13      444        3     0.00000    2.17217    8.14409    7.25198
      14      444        3     0.00000    5.44023    4.39481    2.13747
      15      444        4     0.00000    3.48546   12.14832    5.36301
      16      444        4     0.00000    0.47488    0.38955    0.22920
      17      444        5     0.00000    2.86453   12.51808    4.55267
      18      444        4     0.00000    4.76073    0.14740    5.61481
      19      444        4     0.00000    1.74333   12.36991    0.47412
      20      444        4     0.00000    5.50345   12.15023    6.68209
      21      444        4     0.00000    2.49852    0.35508    1.54004
      22      444        5     0.00000    0.24768   12.50843    6.91993
      23      444        5     0.00000    3.49155   12.50668    1.77336
      24      444        4     0.00000    2.48363    6.63370    5.40822
      25      444        4     0.00000    5.72803    5.90364    0.28669
      26      444        5     0.00000    3.13294    6.27291    4.61605
      27      444        5     0.00000   -0.10828    6.26667    9.76620
      28      444        4     0.00000    2.92756    7.68099    6.23068
      29      444        4     0.00000    6.18830    4.86756    1.11596
      30      444        5     0.00000    3.89994    8.14655    6.08890
      31      444        5     0.00000    0.91589    4.41889    0.97634
      32      444        4     0.00000    2.98256   11.13588    6.19748
      33      444        4     0.00000   -0.01036    1.40553    1.07106
      34      444        5     0.00000    1.99392   10.70905    6.04703
      35      444        5     0.00000    5.26093    1.85011    0.92351
      36      444        4     0.00000    4.93641   11.13810    7.47507
      37      444        4     0.00000    1.94823    1.37190    2.34060
      38      444        5     0.00000    5.48559   10.70967    8.30944
      39      444        5     0.00000    2.50886    1.79214    3.17267
      40      444        4     0.00000    0.94573    7.62654    7.47302
      41      444        4     0.00000    4.21083    4.90458    2.35686
      42      444        5     0.00000    0.36328    8.05184    8.28732
      43      444        5     0.00000    3.63605    4.47744    3.17528
      44      444        4     0.00000    0.43859    6.57577    6.69176
      45      444        4     0.00000    3.68763    5.94500    1.56944
      46      444        5     0.00000    2.69824    6.32683    1.80071
      47      444        4     0.00000    1.22745    6.06471    5.65205
      48      444        4     0.00000    4.46338    6.45777    0.52027
      49      444        4     0.00000    5.31260    1.24381    4.79419
      50      444        4     0.00000    2.05020   11.26755    9.92158
      51      444        4     0.00000    0.73548    4.94016    4.83586
      52      444        4     0.00000    3.73174    7.56629    9.95688
      53      444        1     0.00000    9.15137    9.41116    8.59265
      54      444        1     0.00000   12.42805    3.10579    3.48481
      55      444        2     0.00000    7.70109    4.35425    3.93374
      56      444        2     0.00000   10.69440    8.15245    9.05464
      57      444        2     0.00000   10.88945    1.84729    3.87523
      58      444        2     0.00000    7.61779   10.67435    9.00295
      59      444        2     0.00000   12.05889    4.46033    4.96242
      60      444        2     0.00000    8.79524    8.03270   10.06753
      61      444        2     0.00000    6.50397    1.69264    4.94273
      62      444        2     0.00000    9.49002   10.80466   10.06262
      63      444        3     0.00000    9.94957   10.66058    7.24160
      64      444        3     0.00000    6.96536    1.86420    2.11704
      65      444        3     0.00000    8.42499    8.14409    7.25198
      66      444        3     0.00000   11.69303    4.39481    2.13747
      67      444        4     0.00000    9.73826   12.14832    5.36301
      68      444        4     0.00000    6.72768    0.38955    0.22920
      69      444        4     0.00000   11.01353    0.14740    5.61481
      70      444        4     0.00000    7.99613   12.36991    0.47412
      71      444        4     0.00000   11.75625   12.15023    6.68209
      72      444        4     0.00000    8.75132    0.35508    1.54004
      73      444        5     0.00000    9.74435   12.50668    1.77336
      74      444        4     0.00000    8.73644    6.63370    5.40822
      75      444        4     0.00000   11.98084    5.90364    0.28669
      76      444        5     0.00000    9.38574    6.27291    4.61605
      77      444        4     0.00000    9.18036    7.68099    6.23068
      78      444        4     0.00000   12.44110    4.86756    1.11596
      79      444        5     0.00000   10.15274    8.14655    6.08890
      80      444        5     0.00000    7.16869    4.41889    0.97634
      81      444        4     0.00000    9.23536   11.13588    6.19748
      82      444        4     0.00000    6.24244    1.40553    1.07106
      83      444        5     0.00000    8.24672   10.70905    6.04703
      84      444        5     0.00000   11.51373    1.85011    0.92351
      85      444        4     0.00000   11.18921   11.13810    7.47507
      86      444        4     0.00000    8.20102    1.37190    2.34060
      87      444        5     0.00000   11.73839   10.70967    8.30944
      88      444        5     0.00000    8.76167    1.79214    3.17267
      89      444        4     0.00000    7.19853    7.62654    7.47302
      90      444        4     0.00000   10.46363    4.90458    2.35686
      91      444        5     0.00000    6.61608    8.05184    8.28732
      92      444        5     0.00000    9.88885    4.47744    3.17528
      93      444        4     0.00000    6.69139    6.57577    6.69176
      94      444        4     0.00000    9.94043    5.94500    1.56944
      95      444        4     0.00000    7.48025    6.06471    5.65205
      96      444        4     0.00000   10.71618    6.45777    0.52027
      97      444        4     0.00000   11.56540    1.24381    4.79419
      98      444        4     0.00000    8.30300   11.26755    9.92158
      99      444        4     0.00000    6.98827    4.94016    4.83586
     100      444        4     0.00000    9.98454    7.56629    9.95688
     101      444        6     0.00000    6.91339    0.11071    7.02937
     102      444        6     0.00000    7.66807   12.16872    8.03949
     103      444        5     0.00000    7.38058    0.88026    6.45137
     104      444        5     0.00000    7.35298   11.39378    8.72039
     105      444        5     0.00000    8.65832    0.06268    8.19523
     106      444        6     0.00000   11.85932   12.44753    9.34906
     107      444        6     0.00000   10.63695    0.40759    9.06880
     108      444        5     0.00000   12.18965   11.67777    8.68355
     109      444        5     0.00000   10.15117    1.18534    9.63674
     110      444        5     0.00000   10.08966    0.00281    8.22284
     111      444        6     0.00000   11.54859    6.04041    7.01790
     112      444        6     0.00000   10.75338    6.49330    8.00229
     113      444        5     0.00000   11.12613    5.24142    6.44545
     114      444        5     0.00000   11.02148    7.29325    8.67432
     115      444        5     0.00000    9.77785    6.03837    8.14518
     116      444        6     0.00000    6.41845    6.37961    9.42882
     117      444        6     0.00000    7.63940    5.88662    9.15913
     118      444        5     0.00000    6.10795    7.16530    8.77244
     119      444        5     0.00000    8.10678    5.09285    9.72030
     120      444        5     0.00000    8.20495    6.30013    8.32956
     121      444        6     0.00000    8.85544    0.11023    4.20828
     122      444        6     0.00000    7.62779   12.16854    3.92014
     123      444        5     0.00000    9.19857    0.88007    3.54934
     124      444        5     0.00000    7.12955   11.39338    4.48079
     125      444        5     0.00000    7.08920    0.06299    3.07496
     126      444        6     0.00000    5.60635   12.44725    9.34932
     127      444        6     0.00000    4.38490    0.40885    9.06770
     128      444        5     0.00000    5.93571   11.67585    8.68520
     129      444        5     0.00000    3.90019    1.18842    9.63409
     130      444        5     0.00000    3.83735    0.00363    8.22212
     131      444        6     0.00000    5.29579    6.04041    7.01790
     132      444        6     0.00000    4.50058    6.49330    8.00229
     133      444        5     0.00000    4.87333    5.24142    6.44545
     134      444        5     0.00000    4.76868    7.29325    8.67432
     135      444        5     0.00000    3.52505    6.03837    8.14518
     136      444        6     0.00000    8.54070    6.46717    1.90120
     137      444        6     0.00000    7.75700    6.01292    2.89415
     138      444        5     0.00000    8.10565    7.25712    1.32563
     139      444        5     0.00000    8.03835    5.22104    3.57032
     140      444        5     0.00000    6.77743    6.45807    3.04010

Bonds

       1        1        1        4
       2        1        1        6
       3        1        1        8
       4        1        1       10
       5        2        1       11
       6        2        1       13
       7        1        2        5
       8        1        2        7
       9        2        2       14
      10        1        2       55
      11        1        2       61
      12        2        2       64
      13        3        3       51
      14        1        3       54
      15        3        4       52
      16        3        5       49
      17        3        6       50
      18        3        7       99
      19        3        8       52
      20        1        9       54
      21        3        9       97
      22        3       10       50
      23        4       11       32
      24        4       11       36
      25        4       12       33
      26        4       12       37
      27        2       12       54
      28        4       13       28
      29        4       13       40
      30        4       14       29
      31        4       14       41
      32        6       15       17
      33        5       15       18
      34        5       15       32
      35        5       16       19
      36        5       16       33
      37        7       16      106
      38        5       18       20
      39        8       18       49
      40        5       19       21
      41        8       19       50
      42        5       20       36
      43        7       20      101
      44        6       21       23
      45        5       21       37
      46        6       22       71
      47        6       24       26
      48        5       24       28
      49        5       24       47
      50        5       25       29
      51        5       25       48
      52        7       25      116
      53        6       27       75
      54        6       28       30
      55        6       29       80
      56        6       31       78
      57        6       32       34
      58        6       33       84
      59        6       35       82
      60        6       36       38
      61        6       37       39
      62        6       40       42
      63        5       40       44
      64        6       41       43
      65        5       41       45
      66        5       44       47
      67        7       44      111
      68        6       45       46
      69        5       45       48
      70        8       47       51
      71        8       48       52
      72        3       49       61
      73        3       51       59
      74        1       53       56
      75        1       53       58
      76        1       53       60
      77        1       53       62
      78        2       53       63
      79        2       53       65
      80        1       54       57
      81        1       54       59
      82        2       54       66
      83        3       55       99
      84        3       56      100
      85        3       57       97
      86        3       58       98
      87        3       60      100
      88        3       62       98
      89        4       63       81
      90        4       63       85
      91        4       64       82
      92        4       64       86
      93        4       65       77
      94        4       65       89
      95        4       66       78
      96        4       66       90
      97        5       67       69
      98        5       67       81
      99        7       67      121
     100        5       68       70
     101        5       68       82
     102        7       68      126
     103        5       69       71
     104        8       69       97
     105        5       70       72
     106        8       70       98
     107        5       71       85
     108        6       72       73
     109        5       72       86
     110        6       74       76
     111        5       74       77
     112        5       74       95
     113        5       75       78
     114        5       75       96
     115        6       77       79
     116        6       81       83
     117        6       85       87
     118        6       86       88
     119        6       89       91
     120        5       89       93
     121        6       90       92
     122        5       90       94
     123        5       93       95
     124        7       93      131
     125        5       94       96
     126        7       94      136
     127        8       95       99
     128        8       96      100
     129        9      101      102
     130       10      101      103
     131       10      102      104
     132       10      102      105
     133        9      106      107
     134       10      106      108
     135       10      107      109
     136       10      107      110
     137        9      111      112
     138       10      111      113
     139       10      112      114
     140       10      112      115
     141        9      116      117
     142       10      116      118
     143       10      117      119
     144       10      117      120
     145        9      121      122
     146       10      121      123
     147       10      122      124
     148       10      122      125
     149        9      126      127
     150       10      126      128
     151       10      127      129
     152       10      127      130
     153        9      131      132
     154       10      131      133
     155       10      132      134
     156       10      132      135
     157        9      136      137
     158       10      136      138
     159       10      137      139
     160       10      137      140

Angles

       1        1        4        1        6
       2        1        4        1        8
       3        1        4        1       10
       4        2        4        1       11
       5        2        4        1       13
       6        1        6        1        8
       7        1        6        1       10
       8        2        6        1       11
       9        2        6        1       13
      10        1        8        1       10
      11        2        8        1       11
      12        2        8        1       13
      13        2       10        1       11
      14        2       10        1       13
      15        3       11        1       13
      16        2       14        2        5
      17        2       14        2        7
      18        2       14        2       55
      19        2       14        2       61
      20        3       14        2       64
      21        1        5        2        7
      22        1        5        2       55
      23        1        5        2       61
      24        2        5        2       64
      25        1        7        2       55
      26        1        7        2       61
      27        2        7        2       64
      28        1       55        2       61
      29        2       55        2       64
      30        2       61        2       64
      31        4       51        3       54
      32        4        1        4       52
      33        4        2        5       49
      34        4        1        6       50
      35        4        2        7       99
      36        4        1        8       52
      37        4       54        9       97
      38        4        1       10       50
      39        5        1       11       32
      40        5        1       11       36
      41        6       32       11       36
      42        6       33       12       37
      43        5       33       12       54
      44        5       37       12       54
      45        5        1       13       28
      46        5        1       13       40
      47        6       28       13       40
      48        5        2       14       29
      49        5        2       14       41
      50        6       29       14       41
      51        7       18       15       17
      52        8       18       15       32
      53        7       17       15       32
      54        8       19       16       33
      55        9       19       16      106
      56        9       33       16      106
      57        8       15       18       20
      58       10       15       18       49
      59       10       20       18       49
      60        8       16       19       21
      61       10       16       19       50
      62       10       21       19       50
      63        8       18       20       36
      64        9       18       20      101
      65        9       36       20      101
      66        8       19       21       37
      67        7       19       21       23
      68        7       37       21       23
      69        8       28       24       47
      70        7       28       24       26
      71        7       47       24       26
      72        8       29       25       48
      73        9       29       25      116
      74        9       48       25      116
      75       11       13       28       24
      76       12       13       28       30
      77        7       24       28       30
      78       11       14       29       25
      79       12       14       29       80
      80        7       25       29       80
      81       11       11       32       15
      82       12       11       32       34
      83        7       15       32       34
      84       11       12       33       16
      85       12       12       33       84
      86        7       16       33       84
      87       11       20       36       11
      88        7       20       36       38
      89       12       11       36       38
      90       11       12       37       21
      91       12       12       37       39
      92        7       21       37       39
      93       11       13       40       44
      94       12       13       40       42
      95        7       44       40       42
      96       11       14       41       45
      97       12       14       41       43
      98        7       45       41       43
      99        8       40       44       47
     100        9       40       44      111
     101        9       47       44      111
     102        8       41       45       48
     103        7       41       45       46
     104        7       48       45       46
     105        8       24       47       44
     106       10       24       47       51
     107       10       44       47       51
     108        8       25       48       45
     109       10       25       48       52
     110       10       45       48       52
     111       13        5       49       18
     112       14        5       49       61
     113       13       18       49       61
     114       13       10       50       19
     115       14       10       50        6
     116       13       19       50        6
     117       13        3       51       47
     118       14        3       51       59
     119       13       47       51       59
     120       13        8       52       48
     121       14        8       52        4
     122       13       48       52        4
     123        1       56       53       58
     124        1       56       53       60
     125        1       56       53       62
     126        2       56       53       63
     127        2       56       53       65
     128        1       58       53       60
     129        1       58       53       62
     130        2       58       53       63
     131        2       58       53       65
     132        1       60       53       62
     133        2       60       53       63
     134        2       60       53       65
     135        2       62       53       63
     136        2       62       53       65
     137        3       63       53       65
     138        2        9       54       12
     139        1        9       54       57
     140        1        9       54        3
     141        1        9       54       59
     142        2        9       54       66
     143        2       12       54       57
     144        2       12       54        3
     145        2       12       54       59
     146        3       12       54       66
     147        1       57       54        3
     148        1       57       54       59
     149        2       57       54       66
     150        1        3       54       59
     151        2        3       54       66
     152        2       59       54       66
     153        4        2       55       99
     154        4       53       56      100
     155        4       54       57       97
     156        4       53       58       98
     157        4       51       59       54
     158        4       53       60      100
     159        4        2       61       49
     160        4       53       62       98
     161        5       53       63       81
     162        5       53       63       85
     163        6       81       63       85
     164        5        2       64       86
     165        5        2       64       82
     166        6       86       64       82
     167        5       53       65       77
     168        5       53       65       89
     169        6       77       65       89
     170        6       78       66       90
     171        5       78       66       54
     172        5       90       66       54
     173        9       69       67      121
     174        8       69       67       81
     175        9      121       67       81
     176        8       70       68       82
     177        9       70       68      126
     178        9       82       68      126
     179       10       67       69       97
     180        8       67       69       71
     181       10       97       69       71
     182        8       68       70       72
     183       10       68       70       98
     184       10       72       70       98
     185        7       85       71       22
     186        8       85       71       69
     187        7       22       71       69
     188        8       70       72       86
     189        7       70       72       73
     190        7       86       72       73
     191        8       77       74       95
     192        7       77       74       76
     193        7       95       74       76
     194        7       78       75       27
     195        8       78       75       96
     196        7       27       75       96
     197       11       65       77       74
     198       12       65       77       79
     199        7       74       77       79
     200       11       66       78       75
     201       12       66       78       31
     202        7       75       78       31
     203       11       63       81       67
     204       12       63       81       83
     205        7       67       81       83
     206        7       68       82       35
     207       11       68       82       64
     208       12       35       82       64
     209       11       71       85       63
     210        7       71       85       87
     211       12       63       85       87
     212       11       64       86       72
     213       12       64       86       88
     214        7       72       86       88
     215       11       65       89       93
     216       12       65       89       91
     217        7       93       89       91
     218       11       66       90       94
     219       12       66       90       92
     220        7       94       90       92
     221        8       89       93       95
     222        9       89       93      131
     223        9       95       93      131
     224        8       90       94       96
     225        9       90       94      136
     226        9       96       94      136
     227        8       74       95       93
     228       10       74       95       99
     229       10       93       95       99
     230        8       94       96       75
     231       10       94       96      100
     232       10       75       96      100
     233       13       69       97        9
     234       13       69       97       57
     235       14        9       97       57
     236       13       62       98       70
     237       14       62       98       58
     238       13       70       98       58
     239       13       55       99       95
     240       14       55       99        7
     241       13       95       99        7
     242       13       60      100       96
     243       14       60      100       56
     244       13       96      100       56
     245       15       20      101      102