units           real
atom_style      full
boundary        p p p

pair_style      lj/cut 5.000
bond_style      harmonic
angle_style     cosine/periodic
dihedral_style  harmonic
improper_style  fourier

dielectric      1.0
special_bonds   lj/coul 0.0 0.0 1.0
pair_modify     tail yes mix arithmetic
box tilt        large
read_data       data.NiPyC2_relax_sc211_meta_functionalized_CH-CH2
  triclinic box = (0 0 0) to (12.5056 12.5234 10.2743) with tilt (0 -0.227594 0)
  1 by 1 by 1 MPI processor grid
  reading atoms ...
  140 atoms
  scanning bonds ...
  6 = max bonds/atom
  scanning angles ...
  15 = max angles/atom
  scanning dihedrals ...
  12 = max dihedrals/atom
  scanning impropers ...
  3 = max impropers/atom
  reading bonds ...
  160 bonds
  reading angles ...
  292 angles
  reading dihedrals ...
  320 dihedrals
  reading impropers ...
  216 impropers
  6 = max # of 1-2 neighbors
  9 = max # of 1-3 neighbors
  12 = max # of special neighbors
  special bonds CPU = 0.000216798 secs
  read_data CPU = 0.00737542 secs

#### Atom Groupings ####
group           fram     id   1:140
140 atoms in group fram
#### END Atom Groupings ####

dump            NiPyC2_relax_sc211_meta_functionalized_CH-CH2_xyzmov all xyz 20000 NiPyC2_relax_sc211_meta_functionalized_CH-CH2_mov.xyz
dump_modify     NiPyC2_relax_sc211_meta_functionalized_CH-CH2_xyzmov element Ni O N C H C
min_style       cg
print           "MinStep,CellMinStep,AtomMinStep,FinalStep,Energy,EDiff" file NiPyC2_relax_sc211_meta_functionalized_CH-CH2.min.csv screen no
variable        min_eval   equal 1.00e-06
variable        prev_E     equal 50000.00
variable        iter       loop 100000
label           loop_min
min_style       cg
fix             1 all box/relax aniso 0.0 vmax 0.01
minimize        1.0e-15 1.0e-15 10000 100000
WARNING: Using 'neigh_modify every 1 delay 0 check yes' setting during minimization (src/min.cpp:190)
Neighbor list info ...
  update every 1 steps, delay 0 steps, check yes
  max neighbors/atom: 2000, page size: 100000
  master list distance cutoff = 7
  ghost atom cutoff = 7
  binsize = 3.5, bins = 4 4 3
  1 neighbor lists, perpetual/occasional/extra = 1 0 0
  (1) pair lj/cut, perpetual
      attributes: half, newton on
      pair build: half/bin/newton/tri
      stencil: half/bin/3d/newton/tri
      bin: standard
WARNING: Inconsistent image flags (src/domain.cpp:785)
WARNING: Bond/angle/dihedral extent > half of periodic box length (src/domain.cpp:906)
Per MPI rank memory allocation (min/avg/max) = 18.11 | 18.11 | 18.11 Mbytes
Step Temp E_pair E_mol TotEng Press Volume 
       0            0    854780.41    2249.8045    857030.21 1.457149e+08    1609.0819 
     284            0    102.02178    1528.7103    1630.7321   -1125.9846    1552.0572 
WARNING: Bond/angle/dihedral extent > half of periodic box length (src/domain.cpp:906)
Loop time of 0.0996055 on 1 procs for 284 steps with 140 atoms

94.9% CPU use with 1 MPI tasks x 1 OpenMP threads

Minimization stats:
  Stopping criterion = linesearch alpha is zero
  Energy initial, next-to-last, final = 
         857030.210945      1630.73212433      1630.73212433
  Force two-norm initial, final = 1.58448e+07 92.5156
  Force max component initial, final = 8.43391e+06 79.9333
  Final line search alpha, max atom move = 9.06093e-13 7.24269e-11
  Iterations, force evaluations = 284 505

MPI task timing breakdown:
Section |  min time  |  avg time  |  max time  |%varavg| %total
---------------------------------------------------------------
Pair    | 0.04628    | 0.04628    | 0.04628    |   0.0 | 46.46
Bond    | 0.032649   | 0.032649   | 0.032649   |   0.0 | 32.78
Neigh   | 0.0076895  | 0.0076895  | 0.0076895  |   0.0 |  7.72
Comm    | 0.0029545  | 0.0029545  | 0.0029545  |   0.0 |  2.97
Output  | 0          | 0          | 0          |   0.0 |  0.00
Modify  | 0          | 0          | 0          |   0.0 |  0.00
Other   |            | 0.01003    |            |       | 10.07

Nlocal:    140 ave 140 max 140 min
Histogram: 1 0 0 0 0 0 0 0 0 0
Nghost:    1392 ave 1392 max 1392 min
Histogram: 1 0 0 0 0 0 0 0 0 0
Neighs:    8617 ave 8617 max 8617 min
Histogram: 1 0 0 0 0 0 0 0 0 0

Total # of neighbors = 8617
Ave neighs/atom = 61.55
Ave special neighs/atom = 6.22857
Neighbor list builds = 13
Dangerous builds = 0
unfix           1
min_style       fire
variable        tempstp    equal $(step)
variable        tempstp    equal 284
variable        CellMinStep equal ${tempstp}
variable        CellMinStep equal 284
minimize        1.0e-15 1.0e-15 10000 100000
WARNING: Using 'neigh_modify every 1 delay 0 check yes' setting during minimization (src/min.cpp:190)
  Parameters for fire: 
    dmax delaystep dtgrow dtshrink alpha0 alphashrink tmax tmin    integrator halfstepback 
     0.1        20    1.1      0.5   0.25        0.99   10 0.02 eulerimplicit          yes 
WARNING: Inconsistent image flags (src/domain.cpp:785)
WARNING: Bond/angle/dihedral extent > half of periodic box length (src/domain.cpp:906)
Per MPI rank memory allocation (min/avg/max) = 16.99 | 16.99 | 16.99 Mbytes
Step Temp E_pair E_mol TotEng Press 
     284            0    102.02178    1528.7103    1630.7321   -1125.9846 
    4034 1.4299581e-10    92.476471    1524.1921    1616.6686   -3686.1502 
WARNING: Bond/angle/dihedral extent > half of periodic box length (src/domain.cpp:906)
Loop time of 0.598485 on 1 procs for 3750 steps with 140 atoms

99.9% CPU use with 1 MPI tasks x 1 OpenMP threads

Minimization stats:
  Stopping criterion = energy tolerance
  Energy initial, next-to-last, final = 
         1630.73212433      1616.66861997      1616.66861997
  Force two-norm initial, final = 43.9084 3.44898e-05
  Force max component initial, final = 9.74721 9.28627e-06
  Final line search alpha, max atom move = 0 0
  Iterations, force evaluations = 3750 3750

MPI task timing breakdown:
Section |  min time  |  avg time  |  max time  |%varavg| %total
---------------------------------------------------------------
Pair    | 0.33914    | 0.33914    | 0.33914    |   0.0 | 56.67
Bond    | 0.22337    | 0.22337    | 0.22337    |   0.0 | 37.32
Neigh   | 0.00067744 | 0.00067744 | 0.00067744 |   0.0 |  0.11
Comm    | 0.020129   | 0.020129   | 0.020129   |   0.0 |  3.36
Output  | 0          | 0          | 0          |   0.0 |  0.00
Modify  | 0          | 0          | 0          |   0.0 |  0.00
Other   |            | 0.01518    |            |       |  2.54

Nlocal:    140 ave 140 max 140 min
Histogram: 1 0 0 0 0 0 0 0 0 0
Nghost:    1396 ave 1396 max 1396 min
Histogram: 1 0 0 0 0 0 0 0 0 0
Neighs:    8522 ave 8522 max 8522 min
Histogram: 1 0 0 0 0 0 0 0 0 0

Total # of neighbors = 8522
Ave neighs/atom = 60.8714
Ave special neighs/atom = 6.22857
Neighbor list builds = 1
Dangerous builds = 0
variable        AtomMinStep equal ${tempstp}
variable        AtomMinStep equal 284
variable        temppe     equal $(pe)
variable        temppe     equal 1616.6686199679272704
variable        min_E      equal abs(${prev_E}-${temppe})
variable        min_E      equal abs(50000-${temppe})
variable        min_E      equal abs(50000-1616.66861996793)
print           "${iter},${CellMinStep},${AtomMinStep},${AtomMinStep},$(pe),${min_E}" append NiPyC2_relax_sc211_meta_functionalized_CH-CH2.min.csv screen no
if              "${min_E} < ${min_eval}" then "jump SELF break_min"
variable        prev_E     equal ${temppe}
variable        prev_E     equal 1616.66861996793
next            iter
jump            SELF loop_min
min_style       cg
fix             1 all box/relax aniso 0.0 vmax 0.01
minimize        1.0e-15 1.0e-15 10000 100000
WARNING: Using 'neigh_modify every 1 delay 0 check yes' setting during minimization (src/min.cpp:190)
WARNING: Inconsistent image flags (src/domain.cpp:785)
WARNING: Bond/angle/dihedral extent > half of periodic box length (src/domain.cpp:906)
Per MPI rank memory allocation (min/avg/max) = 18.11 | 18.11 | 18.11 Mbytes
Step Temp E_pair E_mol TotEng Press Volume 
    4034 1.4299581e-10    92.476471    1524.1921    1616.6686   -3686.1502    1552.0572 
    4043 1.4299581e-10    96.871654     1519.272    1616.1437   -60.109571    1548.4078 
WARNING: Bond/angle/dihedral extent > half of periodic box length (src/domain.cpp:906)
Loop time of 0.0129329 on 1 procs for 9 steps with 140 atoms

100.0% CPU use with 1 MPI tasks x 1 OpenMP threads

Minimization stats:
  Stopping criterion = linesearch alpha is zero
  Energy initial, next-to-last, final = 
         1616.66861997      1616.14367452      1616.14367452
  Force two-norm initial, final = 245.381 24.3329
  Force max component initial, final = 245.266 14.8973
  Final line search alpha, max atom move = 1.66575e-11 2.48152e-10
  Iterations, force evaluations = 9 69

MPI task timing breakdown:
Section |  min time  |  avg time  |  max time  |%varavg| %total
---------------------------------------------------------------
Pair    | 0.0066731  | 0.0066731  | 0.0066731  |   0.0 | 51.60
Bond    | 0.0044667  | 0.0044667  | 0.0044667  |   0.0 | 34.54
Neigh   | 0          | 0          | 0          |   0.0 |  0.00
Comm    | 0.00037251 | 0.00037251 | 0.00037251 |   0.0 |  2.88
Output  | 0          | 0          | 0          |   0.0 |  0.00
Modify  | 0          | 0          | 0          |   0.0 |  0.00
Other   |            | 0.001421   |            |       | 10.98

Nlocal:    140 ave 140 max 140 min
Histogram: 1 0 0 0 0 0 0 0 0 0
Nghost:    1396 ave 1396 max 1396 min
Histogram: 1 0 0 0 0 0 0 0 0 0
Neighs:    8532 ave 8532 max 8532 min
Histogram: 1 0 0 0 0 0 0 0 0 0

Total # of neighbors = 8532
Ave neighs/atom = 60.9429
Ave special neighs/atom = 6.22857
Neighbor list builds = 0
Dangerous builds = 0
unfix           1
min_style       fire
variable        tempstp    equal $(step)
variable        tempstp    equal 4043
variable        CellMinStep equal ${tempstp}
variable        CellMinStep equal 4043
minimize        1.0e-15 1.0e-15 10000 100000
WARNING: Using 'neigh_modify every 1 delay 0 check yes' setting during minimization (src/min.cpp:190)
  Parameters for fire: 
    dmax delaystep dtgrow dtshrink alpha0 alphashrink tmax tmin    integrator halfstepback 
     0.1        20    1.1      0.5   0.25        0.99   10 0.02 eulerimplicit          yes 
WARNING: Inconsistent image flags (src/domain.cpp:785)
WARNING: Bond/angle/dihedral extent > half of periodic box length (src/domain.cpp:906)
Per MPI rank memory allocation (min/avg/max) = 16.99 | 16.99 | 16.99 Mbytes
Step Temp E_pair E_mol TotEng Press 
    4043            0    96.871654     1519.272    1616.1437   -60.109571 
    7679 9.7460899e-11    94.771391    1521.0164    1615.7878   -1231.7819 
WARNING: Bond/angle/dihedral extent > half of periodic box length (src/domain.cpp:906)
Loop time of 0.576609 on 1 procs for 3636 steps with 140 atoms

100.0% CPU use with 1 MPI tasks x 1 OpenMP threads

Minimization stats:
  Stopping criterion = energy tolerance
  Energy initial, next-to-last, final = 
         1616.14367452      1615.78782311      1615.78782311
  Force two-norm initial, final = 17.639 3.62396e-05
  Force max component initial, final = 2.89003 1.06362e-05
  Final line search alpha, max atom move = 0 0
  Iterations, force evaluations = 3636 3636

MPI task timing breakdown:
Section |  min time  |  avg time  |  max time  |%varavg| %total
---------------------------------------------------------------
Pair    | 0.32658    | 0.32658    | 0.32658    |   0.0 | 56.64
Bond    | 0.21606    | 0.21606    | 0.21606    |   0.0 | 37.47
Neigh   | 0          | 0          | 0          |   0.0 |  0.00
Comm    | 0.019369   | 0.019369   | 0.019369   |   0.0 |  3.36
Output  | 0          | 0          | 0          |   0.0 |  0.00
Modify  | 0          | 0          | 0          |   0.0 |  0.00
Other   |            | 0.0146     |            |       |  2.53

Nlocal:    140 ave 140 max 140 min
Histogram: 1 0 0 0 0 0 0 0 0 0
Nghost:    1396 ave 1396 max 1396 min
Histogram: 1 0 0 0 0 0 0 0 0 0
Neighs:    8550 ave 8550 max 8550 min
Histogram: 1 0 0 0 0 0 0 0 0 0

Total # of neighbors = 8550
Ave neighs/atom = 61.0714
Ave special neighs/atom = 6.22857
Neighbor list builds = 0
Dangerous builds = 0
variable        AtomMinStep equal ${tempstp}
variable        AtomMinStep equal 4043
variable        temppe     equal $(pe)
variable        temppe     equal 1615.7878231108538785
variable        min_E      equal abs(${prev_E}-${temppe})
variable        min_E      equal abs(1616.66861996793-${temppe})
variable        min_E      equal abs(1616.66861996793-1615.78782311085)
print           "${iter},${CellMinStep},${AtomMinStep},${AtomMinStep},$(pe),${min_E}" append NiPyC2_relax_sc211_meta_functionalized_CH-CH2.min.csv screen no
if              "${min_E} < ${min_eval}" then "jump SELF break_min"
variable        prev_E     equal ${temppe}
variable        prev_E     equal 1615.78782311085
next            iter
jump            SELF loop_min
min_style       cg
fix             1 all box/relax aniso 0.0 vmax 0.01
minimize        1.0e-15 1.0e-15 10000 100000
WARNING: Using 'neigh_modify every 1 delay 0 check yes' setting during minimization (src/min.cpp:190)
WARNING: Inconsistent image flags (src/domain.cpp:785)
WARNING: Bond/angle/dihedral extent > half of periodic box length (src/domain.cpp:906)
Per MPI rank memory allocation (min/avg/max) = 18.11 | 18.11 | 18.11 Mbytes
Step Temp E_pair E_mol TotEng Press Volume 
    7679 9.7460899e-11    94.771391    1521.0164    1615.7878   -1231.7819    1548.4078 
    7687 9.7460899e-11    96.302884    1518.9595    1615.2624    413.69125    1547.8034 
WARNING: Bond/angle/dihedral extent > half of periodic box length (src/domain.cpp:906)
Loop time of 0.0130461 on 1 procs for 8 steps with 140 atoms

94.5% CPU use with 1 MPI tasks x 1 OpenMP threads

Minimization stats:
  Stopping criterion = linesearch alpha is zero
  Energy initial, next-to-last, final = 
         1615.78782311      1615.26238007      1615.26238007
  Force two-norm initial, final = 151.478 25.738
  Force max component initial, final = 143.863 20.0004
  Final line search alpha, max atom move = 1.21369e-11 2.42742e-10
  Iterations, force evaluations = 8 65

MPI task timing breakdown:
Section |  min time  |  avg time  |  max time  |%varavg| %total
---------------------------------------------------------------
Pair    | 0.0066663  | 0.0066663  | 0.0066663  |   0.0 | 51.10
Bond    | 0.0045733  | 0.0045733  | 0.0045733  |   0.0 | 35.06
Neigh   | 0          | 0          | 0          |   0.0 |  0.00
Comm    | 0.00037605 | 0.00037605 | 0.00037605 |   0.0 |  2.88
Output  | 0          | 0          | 0          |   0.0 |  0.00
Modify  | 0          | 0          | 0          |   0.0 |  0.00
Other   |            | 0.00143    |            |       | 10.96

Nlocal:    140 ave 140 max 140 min
Histogram: 1 0 0 0 0 0 0 0 0 0
Nghost:    1396 ave 1396 max 1396 min
Histogram: 1 0 0 0 0 0 0 0 0 0
Neighs:    8548 ave 8548 max 8548 min
Histogram: 1 0 0 0 0 0 0 0 0 0

Total # of neighbors = 8548
Ave neighs/atom = 61.0571
Ave special neighs/atom = 6.22857
Neighbor list builds = 0
Dangerous builds = 0
unfix           1
min_style       fire
variable        tempstp    equal $(step)
variable        tempstp    equal 7687
variable        CellMinStep equal ${tempstp}
variable        CellMinStep equal 7687
minimize        1.0e-15 1.0e-15 10000 100000
WARNING: Using 'neigh_modify every 1 delay 0 check yes' setting during minimization (src/min.cpp:190)
  Parameters for fire: 
    dmax delaystep dtgrow dtshrink alpha0 alphashrink tmax tmin    integrator halfstepback 
     0.1        20    1.1      0.5   0.25        0.99   10 0.02 eulerimplicit          yes 
WARNING: Inconsistent image flags (src/domain.cpp:785)
WARNING: Bond/angle/dihedral extent > half of periodic box length (src/domain.cpp:906)
Per MPI rank memory allocation (min/avg/max) = 16.99 | 16.99 | 16.99 Mbytes
Step Temp E_pair E_mol TotEng Press 
    7687            0    96.302884    1518.9595    1615.2624    413.69125 
   12295 1.0799313e-10    95.108567     1519.964    1615.0726   -461.52767 
WARNING: Bond/angle/dihedral extent > half of periodic box length (src/domain.cpp:906)
Loop time of 0.729235 on 1 procs for 4608 steps with 140 atoms

99.9% CPU use with 1 MPI tasks x 1 OpenMP threads

Minimization stats:
  Stopping criterion = energy tolerance
  Energy initial, next-to-last, final = 
         1615.26238007       1615.0725985       1615.0725985
  Force two-norm initial, final = 15.0702 3.38413e-05
  Force max component initial, final = 2.60122 1.00887e-05
  Final line search alpha, max atom move = 0 0
  Iterations, force evaluations = 4608 4608

MPI task timing breakdown:
Section |  min time  |  avg time  |  max time  |%varavg| %total
---------------------------------------------------------------
Pair    | 0.4131     | 0.4131     | 0.4131     |   0.0 | 56.65
Bond    | 0.27294    | 0.27294    | 0.27294    |   0.0 | 37.43
Neigh   | 0          | 0          | 0          |   0.0 |  0.00
Comm    | 0.024749   | 0.024749   | 0.024749   |   0.0 |  3.39
Output  | 0          | 0          | 0          |   0.0 |  0.00
Modify  | 0          | 0          | 0          |   0.0 |  0.00
Other   |            | 0.01845    |            |       |  2.53

Nlocal:    140 ave 140 max 140 min
Histogram: 1 0 0 0 0 0 0 0 0 0
Nghost:    1396 ave 1396 max 1396 min
Histogram: 1 0 0 0 0 0 0 0 0 0
Neighs:    8548 ave 8548 max 8548 min
Histogram: 1 0 0 0 0 0 0 0 0 0

Total # of neighbors = 8548
Ave neighs/atom = 61.0571
Ave special neighs/atom = 6.22857
Neighbor list builds = 0
Dangerous builds = 0
variable        AtomMinStep equal ${tempstp}
variable        AtomMinStep equal 7687
variable        temppe     equal $(pe)
variable        temppe     equal 1615.0725985042317916
variable        min_E      equal abs(${prev_E}-${temppe})
variable        min_E      equal abs(1615.78782311085-${temppe})
variable        min_E      equal abs(1615.78782311085-1615.07259850423)
print           "${iter},${CellMinStep},${AtomMinStep},${AtomMinStep},$(pe),${min_E}" append NiPyC2_relax_sc211_meta_functionalized_CH-CH2.min.csv screen no
if              "${min_E} < ${min_eval}" then "jump SELF break_min"
variable        prev_E     equal ${temppe}
variable        prev_E     equal 1615.07259850423
next            iter
jump            SELF loop_min
min_style       cg
fix             1 all box/relax aniso 0.0 vmax 0.01
minimize        1.0e-15 1.0e-15 10000 100000
WARNING: Using 'neigh_modify every 1 delay 0 check yes' setting during minimization (src/min.cpp:190)
WARNING: Inconsistent image flags (src/domain.cpp:785)
WARNING: Bond/angle/dihedral extent > half of periodic box length (src/domain.cpp:906)
Per MPI rank memory allocation (min/avg/max) = 18.11 | 18.11 | 18.11 Mbytes
Step Temp E_pair E_mol TotEng Press Volume 
   12295 1.0799313e-10    95.108567     1519.964    1615.0726   -461.52767    1547.8034 
   12300 1.0799313e-10     95.10141    1519.7503    1614.8517   -339.63656    1548.6846 
WARNING: Bond/angle/dihedral extent > half of periodic box length (src/domain.cpp:906)
Loop time of 0.0117381 on 1 procs for 5 steps with 140 atoms

100.0% CPU use with 1 MPI tasks x 1 OpenMP threads

Minimization stats:
  Stopping criterion = linesearch alpha is zero
  Energy initial, next-to-last, final = 
          1615.0725985      1614.85166135      1614.85166135
  Force two-norm initial, final = 114.619 21.5959
  Force max component initial, final = 101.259 11.0345
  Final line search alpha, max atom move = 2.10878e-11 2.32693e-10
  Iterations, force evaluations = 5 61

MPI task timing breakdown:
Section |  min time  |  avg time  |  max time  |%varavg| %total
---------------------------------------------------------------
Pair    | 0.0060606  | 0.0060606  | 0.0060606  |   0.0 | 51.63
Bond    | 0.0040517  | 0.0040517  | 0.0040517  |   0.0 | 34.52
Neigh   | 0          | 0          | 0          |   0.0 |  0.00
Comm    | 0.00034334 | 0.00034334 | 0.00034334 |   0.0 |  2.92
Output  | 0          | 0          | 0          |   0.0 |  0.00
Modify  | 0          | 0          | 0          |   0.0 |  0.00
Other   |            | 0.001282   |            |       | 10.93

Nlocal:    140 ave 140 max 140 min
Histogram: 1 0 0 0 0 0 0 0 0 0
Nghost:    1396 ave 1396 max 1396 min
Histogram: 1 0 0 0 0 0 0 0 0 0
Neighs:    8547 ave 8547 max 8547 min
Histogram: 1 0 0 0 0 0 0 0 0 0

Total # of neighbors = 8547
Ave neighs/atom = 61.05
Ave special neighs/atom = 6.22857
Neighbor list builds = 0
Dangerous builds = 0
unfix           1
min_style       fire
variable        tempstp    equal $(step)
variable        tempstp    equal 12300
variable        CellMinStep equal ${tempstp}
variable        CellMinStep equal 12300
minimize        1.0e-15 1.0e-15 10000 100000
WARNING: Using 'neigh_modify every 1 delay 0 check yes' setting during minimization (src/min.cpp:190)
  Parameters for fire: 
    dmax delaystep dtgrow dtshrink alpha0 alphashrink tmax tmin    integrator halfstepback 
     0.1        20    1.1      0.5   0.25        0.99   10 0.02 eulerimplicit          yes 
WARNING: Inconsistent image flags (src/domain.cpp:785)
WARNING: Bond/angle/dihedral extent > half of periodic box length (src/domain.cpp:906)
Per MPI rank memory allocation (min/avg/max) = 16.99 | 16.99 | 16.99 Mbytes
Step Temp E_pair E_mol TotEng Press 
   12300            0     95.10141    1519.7503    1614.8517   -339.63656 
   16594 1.4069822e-10    94.826701    1519.9414    1614.7681   -530.15535 
WARNING: Bond/angle/dihedral extent > half of periodic box length (src/domain.cpp:906)
Loop time of 0.678859 on 1 procs for 4294 steps with 140 atoms

99.9% CPU use with 1 MPI tasks x 1 OpenMP threads

Minimization stats:
  Stopping criterion = energy tolerance
  Energy initial, next-to-last, final = 
         1614.85166135      1614.76807993      1614.76807993
  Force two-norm initial, final = 15.8445 4.25292e-05
  Force max component initial, final = 3.30407 1.31547e-05
  Final line search alpha, max atom move = 0 0
  Iterations, force evaluations = 4294 4294

MPI task timing breakdown:
Section |  min time  |  avg time  |  max time  |%varavg| %total
---------------------------------------------------------------
Pair    | 0.38526    | 0.38526    | 0.38526    |   0.0 | 56.75
Bond    | 0.25385    | 0.25385    | 0.25385    |   0.0 | 37.39
Neigh   | 0          | 0          | 0          |   0.0 |  0.00
Comm    | 0.022651   | 0.022651   | 0.022651   |   0.0 |  3.34
Output  | 0          | 0          | 0          |   0.0 |  0.00
Modify  | 0          | 0          | 0          |   0.0 |  0.00
Other   |            | 0.0171     |            |       |  2.52

Nlocal:    140 ave 140 max 140 min
Histogram: 1 0 0 0 0 0 0 0 0 0
Nghost:    1392 ave 1392 max 1392 min
Histogram: 1 0 0 0 0 0 0 0 0 0
Neighs:    8544 ave 8544 max 8544 min
Histogram: 1 0 0 0 0 0 0 0 0 0

Total # of neighbors = 8544
Ave neighs/atom = 61.0286
Ave special neighs/atom = 6.22857
Neighbor list builds = 0
Dangerous builds = 0
variable        AtomMinStep equal ${tempstp}
variable        AtomMinStep equal 12300
variable        temppe     equal $(pe)
variable        temppe     equal 1614.7680799250688324
variable        min_E      equal abs(${prev_E}-${temppe})
variable        min_E      equal abs(1615.07259850423-${temppe})
variable        min_E      equal abs(1615.07259850423-1614.76807992507)
print           "${iter},${CellMinStep},${AtomMinStep},${AtomMinStep},$(pe),${min_E}" append NiPyC2_relax_sc211_meta_functionalized_CH-CH2.min.csv screen no
if              "${min_E} < ${min_eval}" then "jump SELF break_min"
variable        prev_E     equal ${temppe}
variable        prev_E     equal 1614.76807992507
next            iter
jump            SELF loop_min
min_style       cg
fix             1 all box/relax aniso 0.0 vmax 0.01
minimize        1.0e-15 1.0e-15 10000 100000
WARNING: Using 'neigh_modify every 1 delay 0 check yes' setting during minimization (src/min.cpp:190)
WARNING: Inconsistent image flags (src/domain.cpp:785)
WARNING: Bond/angle/dihedral extent > half of periodic box length (src/domain.cpp:906)
Per MPI rank memory allocation (min/avg/max) = 18.11 | 18.11 | 18.11 Mbytes
Step Temp E_pair E_mol TotEng Press Volume 
   16594 1.4069822e-10    94.826701    1519.9414    1614.7681   -530.15535    1548.6846 
   16597 1.4069822e-10    95.155688    1519.5675    1614.7232    -73.29583    1548.7781 
WARNING: Bond/angle/dihedral extent > half of periodic box length (src/domain.cpp:906)
Loop time of 0.0105091 on 1 procs for 3 steps with 140 atoms

100.0% CPU use with 1 MPI tasks x 1 OpenMP threads

Minimization stats:
  Stopping criterion = linesearch alpha is zero
  Energy initial, next-to-last, final = 
         1614.76807993      1614.72319345      1614.72319345
  Force two-norm initial, final = 99.9347 9.49865
  Force max component initial, final = 90.646 2.44064
  Final line search alpha, max atom move = 1.01884e-10 2.48661e-10
  Iterations, force evaluations = 3 57

MPI task timing breakdown:
Section |  min time  |  avg time  |  max time  |%varavg| %total
---------------------------------------------------------------
Pair    | 0.0054639  | 0.0054639  | 0.0054639  |   0.0 | 51.99
Bond    | 0.0036323  | 0.0036323  | 0.0036323  |   0.0 | 34.56
Neigh   | 0          | 0          | 0          |   0.0 |  0.00
Comm    | 0.00030146 | 0.00030146 | 0.00030146 |   0.0 |  2.87
Output  | 0          | 0          | 0          |   0.0 |  0.00
Modify  | 0          | 0          | 0          |   0.0 |  0.00
Other   |            | 0.001111   |            |       | 10.58

Nlocal:    140 ave 140 max 140 min
Histogram: 1 0 0 0 0 0 0 0 0 0
Nghost:    1392 ave 1392 max 1392 min
Histogram: 1 0 0 0 0 0 0 0 0 0
Neighs:    8536 ave 8536 max 8536 min
Histogram: 1 0 0 0 0 0 0 0 0 0

Total # of neighbors = 8536
Ave neighs/atom = 60.9714
Ave special neighs/atom = 6.22857
Neighbor list builds = 0
Dangerous builds = 0
unfix           1
min_style       fire
variable        tempstp    equal $(step)
variable        tempstp    equal 16597
variable        CellMinStep equal ${tempstp}
variable        CellMinStep equal 16597
minimize        1.0e-15 1.0e-15 10000 100000
WARNING: Using 'neigh_modify every 1 delay 0 check yes' setting during minimization (src/min.cpp:190)
  Parameters for fire: 
    dmax delaystep dtgrow dtshrink alpha0 alphashrink tmax tmin    integrator halfstepback 
     0.1        20    1.1      0.5   0.25        0.99   10 0.02 eulerimplicit          yes 
WARNING: Inconsistent image flags (src/domain.cpp:785)
WARNING: Bond/angle/dihedral extent > half of periodic box length (src/domain.cpp:906)
Per MPI rank memory allocation (min/avg/max) = 16.99 | 16.99 | 16.99 Mbytes
Step Temp E_pair E_mol TotEng Press 
   16597            0    95.155688    1519.5675    1614.7232    -73.29583 
   21038 1.426749e-10    94.838769    1519.7645    1614.6033   -393.01806 
WARNING: Bond/angle/dihedral extent > half of periodic box length (src/domain.cpp:906)
Loop time of 0.697665 on 1 procs for 4441 steps with 140 atoms

100.0% CPU use with 1 MPI tasks x 1 OpenMP threads

Minimization stats:
  Stopping criterion = energy tolerance
  Energy initial, next-to-last, final = 
         1614.72319345        1614.603255        1614.603255
  Force two-norm initial, final = 8.98906 4.1041e-05
  Force max component initial, final = 1.60708 1.28186e-05
  Final line search alpha, max atom move = 0 0
  Iterations, force evaluations = 4441 4441

MPI task timing breakdown:
Section |  min time  |  avg time  |  max time  |%varavg| %total
---------------------------------------------------------------
Pair    | 0.39562    | 0.39562    | 0.39562    |   0.0 | 56.71
Bond    | 0.26118    | 0.26118    | 0.26118    |   0.0 | 37.44
Neigh   | 0          | 0          | 0          |   0.0 |  0.00
Comm    | 0.02329    | 0.02329    | 0.02329    |   0.0 |  3.34
Output  | 0.00012856 | 0.00012856 | 0.00012856 |   0.0 |  0.02
Modify  | 0          | 0          | 0          |   0.0 |  0.00
Other   |            | 0.01745    |            |       |  2.50

Nlocal:    140 ave 140 max 140 min
Histogram: 1 0 0 0 0 0 0 0 0 0
Nghost:    1392 ave 1392 max 1392 min
Histogram: 1 0 0 0 0 0 0 0 0 0
Neighs:    8534 ave 8534 max 8534 min
Histogram: 1 0 0 0 0 0 0 0 0 0

Total # of neighbors = 8534
Ave neighs/atom = 60.9571
Ave special neighs/atom = 6.22857
Neighbor list builds = 0
Dangerous builds = 0
variable        AtomMinStep equal ${tempstp}
variable        AtomMinStep equal 16597
variable        temppe     equal $(pe)
variable        temppe     equal 1614.6032549977333019
variable        min_E      equal abs(${prev_E}-${temppe})
variable        min_E      equal abs(1614.76807992507-${temppe})
variable        min_E      equal abs(1614.76807992507-1614.60325499773)
print           "${iter},${CellMinStep},${AtomMinStep},${AtomMinStep},$(pe),${min_E}" append NiPyC2_relax_sc211_meta_functionalized_CH-CH2.min.csv screen no
if              "${min_E} < ${min_eval}" then "jump SELF break_min"
variable        prev_E     equal ${temppe}
variable        prev_E     equal 1614.60325499773
next            iter
jump            SELF loop_min
min_style       cg
fix             1 all box/relax aniso 0.0 vmax 0.01
minimize        1.0e-15 1.0e-15 10000 100000
WARNING: Using 'neigh_modify every 1 delay 0 check yes' setting during minimization (src/min.cpp:190)
WARNING: Inconsistent image flags (src/domain.cpp:785)
WARNING: Bond/angle/dihedral extent > half of periodic box length (src/domain.cpp:906)
Per MPI rank memory allocation (min/avg/max) = 18.11 | 18.11 | 18.11 Mbytes
Step Temp E_pair E_mol TotEng Press Volume 
   21038 1.426749e-10    94.838769    1519.7645    1614.6033   -393.01806    1548.7781 
   21040 1.426749e-10    95.599033    1518.9748    1614.5738    411.21126    1548.2502 
WARNING: Bond/angle/dihedral extent > half of periodic box length (src/domain.cpp:906)
Loop time of 0.00985976 on 1 procs for 2 steps with 140 atoms

100.0% CPU use with 1 MPI tasks x 1 OpenMP threads

Minimization stats:
  Stopping criterion = linesearch alpha is zero
  Energy initial, next-to-last, final = 
           1614.603255      1614.57383264      1614.57383264
  Force two-norm initial, final = 90.2323 29.5818
  Force max component initial, final = 80.3429 25.5931
  Final line search alpha, max atom move = 1.00752e-11 2.57856e-10
  Iterations, force evaluations = 2 53

MPI task timing breakdown:
Section |  min time  |  avg time  |  max time  |%varavg| %total
---------------------------------------------------------------
Pair    | 0.0051544  | 0.0051544  | 0.0051544  |   0.0 | 52.28
Bond    | 0.0033832  | 0.0033832  | 0.0033832  |   0.0 | 34.31
Neigh   | 0          | 0          | 0          |   0.0 |  0.00
Comm    | 0.00028079 | 0.00028079 | 0.00028079 |   0.0 |  2.85
Output  | 0          | 0          | 0          |   0.0 |  0.00
Modify  | 0          | 0          | 0          |   0.0 |  0.00
Other   |            | 0.001041   |            |       | 10.56

Nlocal:    140 ave 140 max 140 min
Histogram: 1 0 0 0 0 0 0 0 0 0
Nghost:    1392 ave 1392 max 1392 min
Histogram: 1 0 0 0 0 0 0 0 0 0
Neighs:    8536 ave 8536 max 8536 min
Histogram: 1 0 0 0 0 0 0 0 0 0

Total # of neighbors = 8536
Ave neighs/atom = 60.9714
Ave special neighs/atom = 6.22857
Neighbor list builds = 0
Dangerous builds = 0
unfix           1
min_style       fire
variable        tempstp    equal $(step)
variable        tempstp    equal 21040
variable        CellMinStep equal ${tempstp}
variable        CellMinStep equal 21040
minimize        1.0e-15 1.0e-15 10000 100000
WARNING: Using 'neigh_modify every 1 delay 0 check yes' setting during minimization (src/min.cpp:190)
  Parameters for fire: 
    dmax delaystep dtgrow dtshrink alpha0 alphashrink tmax tmin    integrator halfstepback 
     0.1        20    1.1      0.5   0.25        0.99   10 0.02 eulerimplicit          yes 
WARNING: Inconsistent image flags (src/domain.cpp:785)
WARNING: Bond/angle/dihedral extent > half of periodic box length (src/domain.cpp:906)
Per MPI rank memory allocation (min/avg/max) = 16.99 | 16.99 | 16.99 Mbytes
Step Temp E_pair E_mol TotEng Press 
   21040            0    95.599033    1518.9748    1614.5738    411.21126 
   25773 1.2885505e-10    95.144057    1519.2984    1614.4425    44.629254 
WARNING: Bond/angle/dihedral extent > half of periodic box length (src/domain.cpp:906)
Loop time of 0.746409 on 1 procs for 4733 steps with 140 atoms

99.9% CPU use with 1 MPI tasks x 1 OpenMP threads

Minimization stats:
  Stopping criterion = energy tolerance
  Energy initial, next-to-last, final = 
         1614.57383264      1614.44245084      1614.44245084
  Force two-norm initial, final = 7.11117 3.931e-05
  Force max component initial, final = 1.3135 1.2484e-05
  Final line search alpha, max atom move = 0 0
  Iterations, force evaluations = 4733 4733

MPI task timing breakdown:
Section |  min time  |  avg time  |  max time  |%varavg| %total
---------------------------------------------------------------
Pair    | 0.42382    | 0.42382    | 0.42382    |   0.0 | 56.78
Bond    | 0.279      | 0.279      | 0.279      |   0.0 | 37.38
Neigh   | 0          | 0          | 0          |   0.0 |  0.00
Comm    | 0.024859   | 0.024859   | 0.024859   |   0.0 |  3.33
Output  | 0          | 0          | 0          |   0.0 |  0.00
Modify  | 0          | 0          | 0          |   0.0 |  0.00
Other   |            | 0.01873    |            |       |  2.51

Nlocal:    140 ave 140 max 140 min
Histogram: 1 0 0 0 0 0 0 0 0 0
Nghost:    1392 ave 1392 max 1392 min
Histogram: 1 0 0 0 0 0 0 0 0 0
Neighs:    8539 ave 8539 max 8539 min
Histogram: 1 0 0 0 0 0 0 0 0 0

Total # of neighbors = 8539
Ave neighs/atom = 60.9929
Ave special neighs/atom = 6.22857
Neighbor list builds = 0
Dangerous builds = 0
variable        AtomMinStep equal ${tempstp}
variable        AtomMinStep equal 21040
variable        temppe     equal $(pe)
variable        temppe     equal 1614.4424508446304571
variable        min_E      equal abs(${prev_E}-${temppe})
variable        min_E      equal abs(1614.60325499773-${temppe})
variable        min_E      equal abs(1614.60325499773-1614.44245084463)
print           "${iter},${CellMinStep},${AtomMinStep},${AtomMinStep},$(pe),${min_E}" append NiPyC2_relax_sc211_meta_functionalized_CH-CH2.min.csv screen no
if              "${min_E} < ${min_eval}" then "jump SELF break_min"
variable        prev_E     equal ${temppe}
variable        prev_E     equal 1614.44245084463
next            iter
jump            SELF loop_min
min_style       cg
fix             1 all box/relax aniso 0.0 vmax 0.01
minimize        1.0e-15 1.0e-15 10000 100000
WARNING: Using 'neigh_modify every 1 delay 0 check yes' setting during minimization (src/min.cpp:190)
WARNING: Inconsistent image flags (src/domain.cpp:785)
WARNING: Bond/angle/dihedral extent > half of periodic box length (src/domain.cpp:906)
Per MPI rank memory allocation (min/avg/max) = 18.11 | 18.11 | 18.11 Mbytes
Step Temp E_pair E_mol TotEng Press Volume 
   25773 1.2885505e-10    95.144057    1519.2984    1614.4425    44.629254    1548.2502 
   25774 1.2885505e-10    95.144057    1519.2984    1614.4425    44.629254    1548.2502 
WARNING: Bond/angle/dihedral extent > half of periodic box length (src/domain.cpp:906)
Loop time of 0.0104175 on 1 procs for 1 steps with 140 atoms

100.0% CPU use with 1 MPI tasks x 1 OpenMP threads

Minimization stats:
  Stopping criterion = linesearch alpha is zero
  Energy initial, next-to-last, final = 
         1614.44245084      1614.44245084      1614.44245084
  Force two-norm initial, final = 80.2032 80.2032
  Force max component initial, final = 62.7486 62.7486
  Final line search alpha, max atom move = 1.18737e-12 7.45058e-11
  Iterations, force evaluations = 1 55

MPI task timing breakdown:
Section |  min time  |  avg time  |  max time  |%varavg| %total
---------------------------------------------------------------
Pair    | 0.0053647  | 0.0053647  | 0.0053647  |   0.0 | 51.50
Bond    | 0.0036366  | 0.0036366  | 0.0036366  |   0.0 | 34.91
Neigh   | 0          | 0          | 0          |   0.0 |  0.00
Comm    | 0.0002961  | 0.0002961  | 0.0002961  |   0.0 |  2.84
Output  | 0          | 0          | 0          |   0.0 |  0.00
Modify  | 0          | 0          | 0          |   0.0 |  0.00
Other   |            | 0.00112    |            |       | 10.75

Nlocal:    140 ave 140 max 140 min
Histogram: 1 0 0 0 0 0 0 0 0 0
Nghost:    1392 ave 1392 max 1392 min
Histogram: 1 0 0 0 0 0 0 0 0 0
Neighs:    8533 ave 8533 max 8533 min
Histogram: 1 0 0 0 0 0 0 0 0 0

Total # of neighbors = 8533
Ave neighs/atom = 60.95
Ave special neighs/atom = 6.22857
Neighbor list builds = 0
Dangerous builds = 0
unfix           1
min_style       fire
variable        tempstp    equal $(step)
variable        tempstp    equal 25774
variable        CellMinStep equal ${tempstp}
variable        CellMinStep equal 25774
minimize        1.0e-15 1.0e-15 10000 100000
WARNING: Using 'neigh_modify every 1 delay 0 check yes' setting during minimization (src/min.cpp:190)
  Parameters for fire: 
    dmax delaystep dtgrow dtshrink alpha0 alphashrink tmax tmin    integrator halfstepback 
     0.1        20    1.1      0.5   0.25        0.99   10 0.02 eulerimplicit          yes 
WARNING: Inconsistent image flags (src/domain.cpp:785)
WARNING: Bond/angle/dihedral extent > half of periodic box length (src/domain.cpp:906)
Per MPI rank memory allocation (min/avg/max) = 16.99 | 16.99 | 16.99 Mbytes
Step Temp E_pair E_mol TotEng Press 
   25774            0    95.144057    1519.2984    1614.4425    44.629254 
   25866 1.0095688e-10    95.144053    1519.2984    1614.4425    44.628918 
WARNING: Bond/angle/dihedral extent > half of periodic box length (src/domain.cpp:906)
Loop time of 0.0150095 on 1 procs for 92 steps with 140 atoms

100.0% CPU use with 1 MPI tasks x 1 OpenMP threads

Minimization stats:
  Stopping criterion = energy tolerance
  Energy initial, next-to-last, final = 
         1614.44245084      1614.44245084      1614.44245084
  Force two-norm initial, final = 3.931e-05 3.45856e-05
  Force max component initial, final = 1.2484e-05 1.09866e-05
  Final line search alpha, max atom move = 0 0
  Iterations, force evaluations = 92 92

MPI task timing breakdown:
Section |  min time  |  avg time  |  max time  |%varavg| %total
---------------------------------------------------------------
Pair    | 0.0084563  | 0.0084563  | 0.0084563  |   0.0 | 56.34
Bond    | 0.0055076  | 0.0055076  | 0.0055076  |   0.0 | 36.69
Neigh   | 0          | 0          | 0          |   0.0 |  0.00
Comm    | 0.00048577 | 0.00048577 | 0.00048577 |   0.0 |  3.24
Output  | 0          | 0          | 0          |   0.0 |  0.00
Modify  | 0          | 0          | 0          |   0.0 |  0.00
Other   |            | 0.0005598  |            |       |  3.73

Nlocal:    140 ave 140 max 140 min
Histogram: 1 0 0 0 0 0 0 0 0 0
Nghost:    1392 ave 1392 max 1392 min
Histogram: 1 0 0 0 0 0 0 0 0 0
Neighs:    8533 ave 8533 max 8533 min
Histogram: 1 0 0 0 0 0 0 0 0 0

Total # of neighbors = 8533
Ave neighs/atom = 60.95
Ave special neighs/atom = 6.22857
Neighbor list builds = 0
Dangerous builds = 0
variable        AtomMinStep equal ${tempstp}
variable        AtomMinStep equal 25774
variable        temppe     equal $(pe)
variable        temppe     equal 1614.4424508443767081
variable        min_E      equal abs(${prev_E}-${temppe})
variable        min_E      equal abs(1614.44245084463-${temppe})
variable        min_E      equal abs(1614.44245084463-1614.44245084438)
print           "${iter},${CellMinStep},${AtomMinStep},${AtomMinStep},$(pe),${min_E}" append NiPyC2_relax_sc211_meta_functionalized_CH-CH2.min.csv screen no
if              "${min_E} < ${min_eval}" then "jump SELF break_min"
jump SELF break_min
undump          NiPyC2_relax_sc211_meta_functionalized_CH-CH2_xyzmov

# Dump last snapshot for restart
variable curr_lx equal lx
variable curr_ly equal ly
variable curr_lz equal lz
change_box all x final 0 ${curr_lx} y final 0 ${curr_ly} z final 0 ${curr_lz}
change_box all x final 0 13.4667480994546 y final 0 ${curr_ly} z final 0 ${curr_lz}
change_box all x final 0 13.4667480994546 y final 0 10.3038759073322 z final 0 ${curr_lz}
change_box all x final 0 13.4667480994546 y final 0 10.3038759073322 z final 0 11.1577799030662
  triclinic box = (0 1.10976 -0.44175) to (13.4667 11.4136 10.716) with tilt (0 -0.247165 0)
  triclinic box = (0 0 -0.44175) to (13.4667 10.3039 10.716) with tilt (0 -0.247165 0)
  triclinic box = (0 0 0) to (13.4667 10.3039 11.1578) with tilt (0 -0.247165 0)

reset_timestep 0
dump            NiPyC2_relax_sc211_meta_functionalized_CH-CH2_restart all atom 1 NiPyC2_relax_sc211_meta_functionalized_CH-CH2_restart.lammpstrj
dump_modify     NiPyC2_relax_sc211_meta_functionalized_CH-CH2_restart scale no sort id
run 0
WARNING: No fixes defined, atoms won't move (src/verlet.cpp:52)
WARNING: Inconsistent image flags (src/domain.cpp:785)
WARNING: Bond/angle/dihedral extent > half of periodic box length (src/domain.cpp:906)
Per MPI rank memory allocation (min/avg/max) = 16.99 | 16.99 | 16.99 Mbytes
Step Temp E_pair E_mol TotEng Press 
       0 1.0095688e-10    95.144053    1519.2984    1614.4425    44.628918 
WARNING: Bond/angle/dihedral extent > half of periodic box length (src/domain.cpp:906)
Loop time of 7.89005e-07 on 1 procs for 0 steps with 140 atoms

126.7% CPU use with 1 MPI tasks x 1 OpenMP threads

MPI task timing breakdown:
Section |  min time  |  avg time  |  max time  |%varavg| %total
---------------------------------------------------------------
Pair    | 0          | 0          | 0          |   0.0 |  0.00
Bond    | 0          | 0          | 0          |   0.0 |  0.00
Neigh   | 0          | 0          | 0          |   0.0 |  0.00
Comm    | 0          | 0          | 0          |   0.0 |  0.00
Output  | 0          | 0          | 0          |   0.0 |  0.00
Modify  | 0          | 0          | 0          |   0.0 |  0.00
Other   |            | 7.89e-07   |            |       |100.00

Nlocal:    140 ave 140 max 140 min
Histogram: 1 0 0 0 0 0 0 0 0 0
Nghost:    1402 ave 1402 max 1402 min
Histogram: 1 0 0 0 0 0 0 0 0 0
Neighs:    8533 ave 8533 max 8533 min
Histogram: 1 0 0 0 0 0 0 0 0 0

Total # of neighbors = 8533
Ave neighs/atom = 60.95
Ave special neighs/atom = 6.22857
Neighbor list builds = 0
Dangerous builds = 0
undump          NiPyC2_relax_sc211_meta_functionalized_CH-CH2_restart
Total wall time: 0:00:04
