140
Atoms. Timestep: 0
Ni 2.89857 9.41116 8.59265
Ni 6.17525 3.10579 3.48481
O 1.44827 4.35425 3.93374
O 4.4416 8.15245 9.05464
O 4.63665 1.84729 3.87523
O 1.36499 10.6744 9.00295
O 5.80609 4.46033 4.96242
O 2.54244 8.0327 10.0675
O 0.25117 1.69264 4.94273
O 3.23722 10.8047 10.0626
N 3.69677 10.6606 7.2416
N 0.71256 1.8642 2.11704
N 2.17217 8.14409 7.25198
N 5.44023 4.39481 2.13747
C 3.48546 12.1483 5.36301
C 0.47488 0.38955 0.2292
H 2.86453 12.5181 4.55267
C 4.76073 0.1474 5.61481
C 1.74333 12.3699 0.47412
C 5.50345 12.1502 6.68209
C 2.49852 0.35508 1.54004
H 0.24768 12.5084 6.91993
H 3.49155 12.5067 1.77336
C 2.48363 6.6337 5.40822
C 5.72803 5.90364 0.28669
H 3.13294 6.27291 4.61605
H -0.10828 6.26667 9.7662
C 2.92756 7.68099 6.23068
C 6.1883 4.86756 1.11596
H 3.89994 8.14655 6.0889
H 0.91589 4.41889 0.97634
C 2.98256 11.1359 6.19748
C -0.01036 1.40553 1.07106
H 1.99392 10.709 6.04703
H 5.26093 1.85011 0.92351
C 4.93641 11.1381 7.47507
C 1.94823 1.3719 2.3406
H 5.48559 10.7097 8.30944
H 2.50886 1.79214 3.17267
C 0.94573 7.62654 7.47302
C 4.21083 4.90458 2.35686
H 0.36328 8.05184 8.28732
H 3.63605 4.47744 3.17528
C 0.43859 6.57577 6.69176
C 3.68763 5.945 1.56944
H 2.69824 6.32683 1.80071
C 1.22745 6.06471 5.65205
C 4.46338 6.45777 0.52027
C 5.3126 1.24381 4.79419
C 2.0502 11.2675 9.92158
C 0.73548 4.94016 4.83586
C 3.73174 7.56629 9.95688
Ni 9.15137 9.41116 8.59265
Ni 12.4281 3.10579 3.48481
O 7.70109 4.35425 3.93374
O 10.6944 8.15245 9.05464
O 10.8895 1.84729 3.87523
O 7.61779 10.6744 9.00295
O 12.0589 4.46033 4.96242
O 8.79524 8.0327 10.0675
O 6.50397 1.69264 4.94273
O 9.49002 10.8047 10.0626
N 9.94957 10.6606 7.2416
N 6.96536 1.8642 2.11704
N 8.42499 8.14409 7.25198
N 11.693 4.39481 2.13747
C 9.73826 12.1483 5.36301
C 6.72768 0.38955 0.2292
C 11.0135 0.1474 5.61481
C 7.99613 12.3699 0.47412
C 11.7562 12.1502 6.68209
C 8.75132 0.35508 1.54004
H 9.74435 12.5067 1.77336
C 8.73644 6.6337 5.40822
C 11.9808 5.90364 0.28669
H 9.38574 6.27291 4.61605
C 9.18036 7.68099 6.23068
C 12.4411 4.86756 1.11596
H 10.1527 8.14655 6.0889
H 7.16869 4.41889 0.97634
C 9.23536 11.1359 6.19748
C 6.24244 1.40553 1.07106
H 8.24672 10.709 6.04703
H 11.5137 1.85011 0.92351
C 11.1892 11.1381 7.47507
C 8.20102 1.3719 2.3406
H 11.7384 10.7097 8.30944
H 8.76167 1.79214 3.17267
C 7.19853 7.62654 7.47302
C 10.4636 4.90458 2.35686
H 6.61608 8.05184 8.28732
H 9.88885 4.47744 3.17528
C 6.69139 6.57577 6.69176
C 9.94043 5.945 1.56944
C 7.48025 6.06471 5.65205
C 10.7162 6.45777 0.52027
C 11.5654 1.24381 4.79419
C 8.303 11.2675 9.92158
C 6.98827 4.94016 4.83586
C 9.98454 7.56629 9.95688
C 6.91339 0.11071 7.02937
C 7.66807 12.1687 8.03949
H 7.38058 0.88026 6.45137
H 7.35298 11.3938 8.72039
H 8.65832 0.06268 8.19523
C 11.8593 12.4475 9.34906
C 10.6369 0.40759 9.0688
H 12.1897 11.6778 8.68355
H 10.1512 1.18534 9.63674
H 10.0897 0.00281 8.22284
C 11.5486 6.04041 7.0179
C 10.7534 6.4933 8.00229
H 11.1261 5.24142 6.44545
H 11.0215 7.29325 8.67432
H 9.77785 6.03837 8.14518
C 6.41845 6.37961 9.42882
C 7.6394 5.88662 9.15913
H 6.10795 7.1653 8.77244
H 8.10678 5.09285 9.7203
H 8.20495 6.30013 8.32956
C 8.85544 0.11023 4.20828
C 7.62779 12.1685 3.92014
H 9.19857 0.88007 3.54934
H 7.12955 11.3934 4.48079
H 7.0892 0.06299 3.07496
C 5.60635 12.4473 9.34932
C 4.3849 0.40885 9.0677
H 5.93571 11.6759 8.6852
H 3.90019 1.18842 9.63409
H 3.83735 0.00363 8.22212
C 5.29579 6.04041 7.0179
C 4.50058 6.4933 8.00229
H 4.87333 5.24142 6.44545
H 4.76868 7.29325 8.67432
H 3.52505 6.03837 8.14518
C 8.5407 6.46717 1.9012
C 7.757 6.01292 2.89415
H 8.10565 7.25712 1.32563
H 8.03835 5.22104 3.57032
H 6.77743 6.45807 3.0401
140
Atoms. Timestep: 284
Ni 2.52238 8.81394 9.00963
Ni 6.05298 3.66931 3.45802
O 0.81071 4.61139 3.57285
O 3.99378 7.80939 9.20715
O 4.60762 2.64944 3.52845
O 1.04403 9.79529 9.13102
O 5.53416 4.7544 4.72389
O 2.05495 7.63818 10.2628
O -0.174568 2.39755 4.58362
O 2.94304 9.95336 10.2695
N 3.24665 10.0144 7.67228
N 0.101433 2.50171 1.99876
N 1.85651 7.6535 7.6383
N 5.34142 4.84158 2.14885
C 3.11001 11.2984 5.61414
C -0.0017617 1.65707 -0.262389
H 2.53121 11.6057 4.77369
C 4.49988 1.353 5.65806
C 1.27514 11.2539 -0.107624
C 5.19146 11.1194 6.79225
C 1.94854 1.25274 1.10578
H -0.481496 11.4216 6.83705
H 2.93741 11.0459 1.25433
C 1.84604 6.79936 5.37316
C 5.57051 5.87206 -0.00464864
H 2.32572 6.76311 4.39789
H -0.722727 6.624 10.6465
C 2.40061 7.60967 6.37781
C 6.10332 5.18524 1.10003
H 3.2606 8.21055 6.129
H 0.470324 5.00166 0.954371
C 2.48127 10.6038 6.68873
C 12.8476 2.23463 0.877032
H 1.43636 10.3685 6.61739
H 5.03625 1.88444 1.33975
C 4.59871 10.1556 7.60874
C 1.38265 2.05592 2.10546
H 5.21438 9.52048 8.17987
H 1.99259 2.38597 2.92557
C 0.673435 7.02786 7.86876
C 4.03278 5.24055 2.2017
H 0.128263 7.26597 8.76815
H 3.41896 4.94102 3.0406
C 0.0980613 6.16642 6.91329
C 3.47041 6.0304 1.16959
H 2.45764 6.38413 1.26703
C 0.68629 6.06205 5.62617
C 4.22633 6.35583 0.0268005
C 5.24756 1.99359 4.50839
C 1.70768 10.4673 10.1004
C 0.0794854 5.22472 4.53357
C 3.3115 7.13631 10.1685
Ni 9.33915 8.88197 9.04765
Ni 12.8326 3.59412 3.36423
O 7.48495 4.68694 3.67367
O 10.7789 7.8659 9.29109
O 11.3905 2.56825 3.44563
O 7.89123 9.93885 9.12083
O 12.323 4.67442 4.62903
O 8.84687 7.8568 10.3916
O 6.49695 2.50335 4.67118
O 9.80173 10.1338 10.2211
N 10.0965 9.89649 7.59513
N 6.86395 2.57129 2.10163
N 8.61506 7.61783 7.78781
N 12.1313 4.80798 2.05791
C 10.0805 10.6567 5.26996
C 6.6732 1.37719 0.0330015
C 11.364 11.2354 5.45403
C 8.09123 11.4424 -0.0979788
C 12.0302 10.9698 6.65166
C 8.85826 1.81799 0.922692
H 9.91545 1.62962 0.967171
C 8.83593 6.18049 5.85642
C 12.3488 6.19106 0.0902658
H 9.4766 5.73973 5.10704
C 9.40669 7.00829 6.85535
C -0.563232 5.31152 1.04528
H 10.4257 7.33509 6.74273
H 7.13475 4.86991 1.09378
C 9.46011 9.99843 6.37731
C 6.10903 1.88146 1.22351
H 8.57031 9.4284 6.20516
H 11.8577 2.63946 0.810296
C 11.4267 10.1831 7.64664
C 8.23369 2.53597 1.97407
H 12.0027 9.88936 8.5132
H 8.84578 2.93269 2.76446
C 7.26189 7.50455 7.67108
C 10.8314 5.2 2.17726
H 6.64054 8.13222 8.24984
H 10.2513 4.84019 3.01866
C 6.6769 6.53658 6.84272
C 10.2658 6.14051 1.28778
C 7.44468 5.97395 5.81711
C 10.9876 6.5412 0.144586
C 12.0551 1.87396 4.3944
C 8.54717 10.6448 10.0721
C 6.77949 5.28825 4.64422
C 10.08 7.3059 10.3044
C 6.61278 1.2569 6.98459
C 6.99804 2.34466 7.64986
H 7.28663 0.856466 6.29429
H 6.28966 2.95122 8.17957
H 8.01832 2.69257 7.55885
C 12.6958 1.99865 9.68667
C 11.3997 2.29494 9.46532
H -0.0780901 2.06058 8.86282
H 10.6784 2.35954 10.2634
H 11.0433 2.46973 8.45314
C 12.2891 5.49556 7.23877
C 12.0336 5.06848 8.46832
H 11.4869 5.50533 6.53655
H 12.8466 4.88492 9.16248
H 11.0045 4.9162 8.78102
C 6.25281 6.20459 10.2371
C 7.14451 5.27828 9.81973
H 6.45213 7.2483 10.0997
H 7.02875 4.23843 10.0994
H 8.02487 5.55854 9.26413
C 9.53468 10.4752 3.89259
C 8.23591 10.2435 3.65154
H 10.2147 10.4947 3.0479
H 7.52043 10.1172 4.4373
H 7.88294 10.1384 2.63415
C 5.51742 11.3671 10.2375
C 4.65317 2.14489 9.89511
H 5.28626 10.3493 10.0337
H 4.78611 3.152 10.2703
H 3.83512 1.95628 9.2133
C 5.21594 6.38493 6.81885
C 4.6009 5.41249 7.50673
H 4.73458 6.75979 5.93865
H 5.09697 4.90615 8.30933
H 3.60625 5.0803 7.22374
C 9.02149 6.82482 1.67835
C 8.88653 7.3398 2.89704
H 8.18353 6.83529 1.01105
H 9.75901 7.50704 3.52695
H 7.90016 7.55433 3.28202
140
Atoms. Timestep: 4034
Ni 2.51608 8.85181 9.00255
Ni 6.06316 3.64675 3.40764
O 0.750172 4.60109 3.66872
O 3.94737 7.79469 9.17253
O 4.61015 2.63589 3.48427
O 1.08448 9.88562 9.1476
O 5.55553 4.73518 4.68219
O 2.02842 7.69283 10.2739
O -0.166338 2.34566 4.61436
O 3.00041 9.97874 10.2668
N 3.26826 10.0224 7.6459
N 0.135337 2.51708 2.03424
N 1.77463 7.71724 7.63665
N 5.34977 4.83581 2.09535
C 3.1124 1.23201 5.67384
C 0.06831 1.69288 -0.233784
H 2.49954 1.69035 4.9218
C 4.51877 1.35667 5.63017
C 1.35672 11.3205 -0.0814273
C 5.23445 11.0145 6.68894
C 2.02923 1.33463 1.12978
H -0.473846 1.21486 6.89634
H 3.0178 11.126 1.28662
C 1.65246 6.89149 5.36594
C 5.51556 5.82413 -0.092622
H 2.05441 6.89175 4.35983
H -0.448196 6.81095 -0.415293
C 2.24557 7.70235 6.34581
C 6.0643 5.10193 0.985054
H 3.08899 8.29144 6.06189
H 0.488587 5.14975 1.16257
C 2.49788 10.7069 6.73648
C 12.8958 2.24661 0.903031
H 1.44168 10.5383 6.71073
H 5.03252 2.06393 1.13721
C 4.62018 10.052 7.49257
C 1.43888 2.1218 2.1318
H 5.21599 9.41743 8.07204
H 2.03408 2.45333 2.96083
C 0.602651 7.08373 7.9097
C 4.06629 5.31106 2.20785
H 0.0765144 7.32481 8.81855
H 3.48595 5.08093 3.09058
C 0.0481665 6.15032 7.00661
C 3.48103 6.08956 1.17745
H 2.48195 6.48236 1.31125
C 0.566059 6.07591 5.68927
C 4.19393 6.35848 -0.00638601
C 5.25361 1.98175 4.46808
C 1.77361 10.5258 10.1184
C -0.000115457 5.16441 4.64102
C 3.26626 7.14898 10.1507
Ni 9.36581 8.80026 9.06874
Ni 12.814 3.55389 3.42255
O 7.50264 4.65639 3.62045
O 10.7939 7.77357 9.32888
O 11.401 2.47905 3.46612
O 7.93207 9.85972 9.13974
O 12.2511 4.59106 4.71992
O 8.85125 7.7783 10.4
O 6.50887 2.47519 4.61342
O 9.82965 10.0469 10.2567
N 10.1375 9.81845 7.62233
N 6.85919 2.54475 2.05342
N 8.64204 7.54761 7.78698
N 12.0988 4.78005 2.13309
C 10.1343 10.5615 5.29939
C 6.70713 1.39934 -0.0521914
C 11.4076 11.149 5.47763
C 8.11843 1.18067 -0.101821
C 12.0636 10.9176 6.68934
C 8.86575 1.71988 0.951568
H 9.92439 1.52738 1.01597
C 8.86481 6.04937 5.89393
C 12.36 6.29399 0.2652
H 9.50868 5.51376 5.21048
C 9.43792 6.88221 6.89226
C 12.9014 5.38684 1.20174
H 10.4884 7.11581 6.84727
H 7.08472 4.75589 0.929276
C 9.50727 9.92475 6.40699
C 6.10607 1.95606 1.09881
H 8.57848 9.4128 6.24917
H 11.8891 2.61164 0.831799
C 11.4603 10.1346 7.68988
C 8.22916 2.44312 1.98749
H 12.03 9.85551 8.56215
H 8.82998 2.82072 2.79782
C 7.29016 7.51772 7.61359
C 10.7774 5.11776 2.20793
H 6.68545 8.09322 8.24926
H 10.1796 4.7271 3.01709
C 6.68117 6.67445 6.6738
C 10.2132 6.0631 1.32097
C 7.46385 5.98067 5.75221
C 10.9774 6.53486 0.233423
C 12.0847 1.7871 4.41082
C 8.58399 10.5676 10.089
C 6.80609 5.25369 4.60015
C 10.0826 7.23075 10.3449
C 6.5486 1.35554 7.07816
C 6.72292 2.6472 7.36517
H 7.36467 10.8968 7.16906
H 5.90582 3.34313 7.2582
H 7.70144 3.01012 7.66244
C -0.689843 2.02913 9.71739
C 11.4716 2.2424 9.48347
H 0.0205521 2.18253 8.91209
H 10.7342 2.16681 10.2632
H 11.137 2.52543 8.4922
C 12.375 5.31617 7.45328
C 12.2379 4.99997 8.73456
H 11.5306 5.16114 6.80632
H -0.364092 4.97061 9.39112
H 11.2508 4.79981 9.13399
C 6.18656 6.19555 10.153
C 7.03098 5.26968 9.65613
H 6.45174 7.23556 10.1097
H 6.85369 4.21451 9.8227
H 7.96598 5.55639 9.20386
C 9.58177 10.3648 3.93671
C 8.26517 10.2241 3.72812
H 10.2618 10.258 3.09678
H 7.55128 10.3355 4.53288
H 7.89638 9.98926 2.7362
C 5.60167 1.16714 10.1126
C 4.76573 2.13802 9.69512
H 5.39217 10.344 9.89185
H 4.85021 3.14694 10.0806
H 3.95677 1.92176 9.01539
C 5.2191 6.64009 6.56133
C 4.50985 5.71789 7.22552
H 4.79285 7.08264 5.67202
H 4.93387 5.18201 8.05654
H 3.5185 5.44323 6.89095
C 8.95458 6.72981 1.69853
C 8.81454 7.29189 2.89494
H 8.12835 6.75454 1.01144
H 9.66374 7.38837 3.56464
H 7.83664 7.6311 3.21558
140
Atoms. Timestep: 4043
Ni 2.51782 8.85886 8.98466
Ni 6.0634 3.63932 3.41707
O 0.754203 4.59225 3.67417
O 3.95021 7.803 9.15004
O 4.60967 2.62958 3.49
O 1.08511 9.89198 9.12564
O 5.55693 4.72807 4.69071
O 2.03149 7.69903 10.2552
O -0.165065 2.33628 4.62337
O 3.00162 9.98753 10.2476
N 3.26991 10.0283 7.63083
N 0.138827 2.5106 2.04929
N 1.77486 7.72415 7.62454
N 5.34843 4.8273 2.10963
C 3.1139 1.21854 5.66972
C 0.0687141 1.67704 -0.208879
H 2.50081 1.67847 4.92102
C 4.51972 1.3431 5.62713
C 1.35785 11.3351 -0.056693
C 5.23542 11.0284 6.68212
C 2.03049 1.32071 1.15156
H -0.471449 1.19933 6.88867
H 3.01872 11.1407 1.30685
C 1.65497 6.89226 5.36022
C 5.51578 5.82456 -0.0694499
H 2.05709 6.89263 4.35827
H -0.445844 6.81398 -0.388983
C 2.24757 7.70579 6.33653
C 6.06446 5.09925 1.00432
H 3.0902 8.29634 6.05533
H 0.490325 5.14691 1.18165
C 2.49951 10.7195 6.7283
C 12.8938 2.23346 0.923998
H 1.44377 10.5509 6.70236
H 5.03322 2.05181 1.15738
C 4.62206 10.0621 7.48112
C 1.44078 2.11113 2.14993
H 5.21755 9.42515 8.05725
H 2.0365 2.44423 2.97432
C 0.60441 7.08704 7.89979
C 4.0667 5.30671 2.22542
H 0.0772764 7.32921 8.80398
H 3.48587 5.07591 3.1046
C 0.0508859 6.151 6.99831
C 3.48201 6.08843 1.19864
H 2.48329 6.48245 1.33124
C 0.568721 6.07599 5.68487
C 4.19473 6.35925 0.017841
C 5.25459 1.97034 4.4696
C 1.77606 10.5375 10.0921
C 0.00226834 5.1612 4.64203
C 3.26798 7.15229 10.1244
Ni 9.36629 8.80793 9.05047
Ni 12.8128 3.54593 3.43184
O 7.50398 4.64788 3.62556
O 10.7953 7.78215 9.30535
O 11.3984 2.47181 3.47218
O 7.93177 9.86604 9.11813
O 12.2512 4.58408 4.72723
O 8.8525 7.78517 10.3796
O 6.50857 2.46668 4.6208
O 9.82932 10.0559 10.2376
N 10.1386 9.82503 7.6106
N 6.85957 2.53935 2.06705
N 8.64244 7.55629 7.77121
N 12.0964 4.77124 2.14443
C 10.1327 10.576 5.29672
C 6.70746 1.38342 -0.0274681
C 11.4065 11.1633 5.47456
C 8.11828 1.16512 -0.0772059
C 12.0629 10.9305 6.68276
C 8.86548 1.70707 0.972541
H 9.92355 1.51394 1.03702
C 8.8647 6.04771 5.88941
C 12.3589 6.29549 0.288348
H 9.50869 5.51021 5.20854
C 9.43815 6.88429 6.88313
C 12.9002 5.38479 1.21989
H 10.4881 7.11773 6.83803
H 7.08447 4.75175 0.950314
C 9.50694 9.93588 6.39989
C 6.10672 1.94281 1.11985
H 8.57919 9.42232 6.24322
H 11.8883 2.60095 0.853626
C 11.4604 10.1444 7.6801
C 8.22913 2.43342 2.00464
H 12.0303 9.86439 8.54872
H 8.83002 2.81236 2.81242
C 7.29068 7.52308 7.60147
C 10.7759 5.11357 2.22386
H 6.68618 8.10045 8.23419
H 10.1777 4.72096 3.03016
C 6.68163 6.67596 6.66713
C 10.2123 6.06185 1.34006
C 7.46367 5.97893 5.74928
C 10.9766 6.53612 0.25742
C 12.0837 1.77502 4.41269
C 8.58492 10.5788 10.063
C 6.80599 5.24963 4.60203
C 10.0826 7.23434 10.3179
C 6.5492 1.34119 7.07096
C 6.72403 2.63555 7.35466
H 7.36512 10.9117 7.15849
H 5.90682 3.33356 7.24755
H 7.70226 3.0004 7.6499
C -0.68688 2.01609 9.69167
C 11.4715 2.23118 9.46058
H 0.0237802 2.17175 8.88979
H 10.7331 2.15404 10.2399
H 11.1362 2.51578 8.47154
C 12.3745 5.31526 7.44102
C 12.2374 4.99528 8.71961
H 11.529 5.15926 6.79622
H -0.360609 4.96604 9.37285
H 11.25 4.79485 9.11583
C 6.18822 6.1958 10.1253
C 7.03295 5.26757 9.632
H 6.4528 7.23639 10.0861
H 6.8544 4.21032 9.7993
H 7.96778 5.55384 9.18314
C 9.58122 10.3779 3.93963
C 8.2653 10.2355 3.7339
H 10.2616 10.2689 3.10289
H 7.55067 10.3482 4.53857
H 7.89574 9.9991 2.74409
C 5.60318 1.15225 10.085
C 4.76643 2.12512 9.67143
H 5.39303 10.3578 9.86939
H 4.8525 3.13664 10.0562
H 3.95661 1.90926 8.99492
C 5.21962 6.64133 6.5552
C 4.5111 5.71593 7.21572
H 4.79326 7.08655 5.66691
H 4.93569 5.17728 8.0437
H 3.51968 5.44157 6.8813
C 8.95372 6.72867 1.71554
C 8.81447 7.29603 2.90842
H 8.12723 6.75453 1.02963
H 9.66401 7.39284 3.57511
H 7.83646 7.63578 3.22623
140
Atoms. Timestep: 7679
Ni 2.51309 8.85812 8.98497
Ni 6.06272 3.63738 3.42054
O 0.745997 4.59563 3.68227
O 3.94257 7.80007 9.15342
O 4.61076 2.62714 3.48988
O 1.08383 9.8929 9.12723
O 5.55395 4.71895 4.6999
O 2.02615 7.70288 10.2599
O -0.162852 2.3347 4.61504
O 3.00124 9.9875 10.2448
N 3.26414 10.023 7.62635
N 0.138451 2.52341 2.04045
N 1.76828 7.72291 7.62611
N 5.349 4.8309 2.1163
C 3.11132 1.21327 5.6636
C 0.0760811 1.69114 -0.222861
H 2.50036 1.67356 4.91168
C 4.51761 1.33908 5.62503
C 1.36118 11.3438 -0.0618703
C 5.2313 11.0176 6.679
C 2.0319 1.33435 1.14812
H -0.466352 1.18733 6.88247
H 3.01846 11.1527 1.31041
C 1.63786 6.89059 5.36062
C 5.50992 5.82375 -0.0678757
H 2.03515 6.88746 4.35265
H -0.449869 6.85312 -0.35986
C 2.23553 7.70317 6.33448
C 6.06031 5.09822 1.00525
H 3.07695 8.29215 6.0449
H 0.486501 5.16624 1.19
C 2.495 10.7098 6.7184
C 12.8987 2.25445 0.907245
H 1.44034 10.5347 6.68539
H 5.03432 2.04982 1.15516
C 4.6154 10.0511 7.47437
C 1.44196 2.1298 2.14179
H 5.20875 9.41521 8.0533
H 2.03686 2.46905 2.96777
C 0.595217 7.09451 7.90459
C 4.06688 5.30802 2.23498
H 0.0702963 7.34263 8.81215
H 3.48888 5.0756 3.11864
C 0.0412168 6.1541 7.01091
C 3.48031 6.09108 1.21005
H 2.48301 6.48664 1.34881
C 0.554396 6.07487 5.69301
C 4.18994 6.36133 0.0252014
C 5.25368 1.96792 4.46911
C 1.77547 10.5362 10.0926
C -0.00520164 5.15155 4.65635
C 3.26264 7.15652 10.1324
Ni 9.36716 8.81336 9.04948
Ni 12.8101 3.54814 3.43182
O 7.50074 4.64541 3.63668
O 10.7919 7.78667 9.31544
O 11.4006 2.46983 3.46685
O 7.93636 9.87567 9.11115
O 12.2434 4.57572 4.73543
O 8.84897 7.8012 10.3872
O 6.50869 2.46081 4.61916
O 9.83284 10.0668 10.229
N 10.1422 9.81919 7.59858
N 6.86035 2.54344 2.06392
N 8.64238 7.5549 7.7778
N 12.0922 4.77937 2.15159
C 10.145 10.5612 5.27678
C 6.7086 1.38797 -0.0336839
C 11.4148 11.1526 5.46156
C 8.12136 1.17923 -0.0870829
C 12.07 10.9173 6.67215
C 8.86896 1.7296 0.959525
H 9.92924 1.54534 1.02046
C 8.86214 6.02884 5.90906
C 12.3547 6.32351 0.310986
H 9.50442 5.48191 5.23311
C 9.4372 6.87352 6.89484
C 12.8955 5.40152 1.23161
H 10.4885 7.10256 6.84774
H 7.0812 4.754 0.947271
C 9.51951 9.91498 6.37843
C 6.10811 1.9466 1.11504
H 8.5983 9.39174 6.21302
H 11.8947 2.62609 0.82916
C 11.4639 10.1367 7.6713
C 8.23058 2.44686 1.99725
H 12.0291 9.86325 8.5482
H 8.83021 2.82131 2.80965
C 7.29125 7.53008 7.60212
C 10.7702 5.11438 2.23028
H 6.6889 8.11024 8.2348
H 10.1738 4.71683 3.03689
C 6.68014 6.67531 6.67546
C 10.2048 6.06707 1.35289
C 7.46123 5.96633 5.76563
C 10.9712 6.55492 0.275435
C 12.0873 1.77311 4.40508
C 8.58839 10.5887 10.0553
C 6.80416 5.23813 4.61757
C 10.0793 7.25075 10.3329
C 6.556 1.3074 7.0589
C 6.75039 2.59241 7.36557
H 7.36672 10.8683 7.1136
H 5.94016 3.30086 7.28398
H 7.73769 2.93833 7.65419
C -0.672373 2.02511 9.66909
C 11.4863 2.23507 9.42762
H 0.0435112 2.18569 8.87001
H 10.7445 2.15136 10.2026
H 11.1579 2.52776 8.43694
C 12.3744 5.31307 7.46967
C 12.2471 5.00581 8.7543
H 11.5287 5.1435 6.82766
H -0.346968 4.98703 9.40561
H 11.2644 4.79812 9.16089
C 6.18221 6.20011 10.1237
C 7.02835 5.27613 9.62586
H 6.45102 7.23965 10.0902
H 6.84456 4.21995 9.77895
H 7.9715 5.56391 9.19145
C 9.59524 10.3715 3.91223
C 8.27875 10.2347 3.70111
H 10.2769 10.265 3.07348
H 7.56401 10.3482 4.50511
H 7.91142 9.99735 2.70915
C 5.60176 1.14919 10.0792
C 4.76166 2.11708 9.66216
H 5.39098 10.3542 9.86687
H 4.85031 3.12918 10.0388
H 3.94764 1.89647 8.99002
C 5.21795 6.64294 6.56328
C 4.50843 5.71142 7.21494
H 4.79196 7.0984 5.68087
H 4.93775 5.15245 8.0279
H 3.51307 5.44897 6.88285
C 8.9451 6.72831 1.73564
C 8.80801 7.28956 2.93276
H 8.11895 6.75754 1.04831
H 9.65891 7.38509 3.60047
H 7.83179 7.63276 3.25465
140
Atoms. Timestep: 7687
Ni 2.51398 8.86639 8.97191
Ni 6.06281 3.62885 3.4271
O 0.748509 4.58621 3.6866
O 3.94449 7.80886 9.13774
O 4.61045 2.61902 3.49456
O 1.08396 9.9012 9.11208
O 5.55557 4.71081 4.70663
O 2.02882 7.7103 10.247
O -0.163144 2.32422 4.62206
O 3.00121 9.99739 10.2315
N 3.26519 10.0307 7.61446
N 0.140908 2.51534 2.05054
N 1.76745 7.73074 7.61688
N 5.34751 4.82176 2.12564
C 3.11227 1.197 5.66104
C 0.075674 1.67425 -0.205082
H 2.50117 1.65904 4.91157
C 4.5183 1.32298 5.62316
C 1.36166 11.3606 -0.0441087
C 5.23183 11.0338 6.67423
C 2.03211 1.31849 1.16382
H -0.46546 1.16942 6.87711
H 3.01851 11.1696 1.32497
C 1.63939 6.89176 5.35632
C 5.51015 5.82391 -0.0514248
H 2.03669 6.88881 4.35175
H -0.448811 6.85561 -0.340615
C 2.23632 7.70704 6.32774
C 6.06004 5.09492 1.01888
H 3.07713 8.29796 6.0404
H 0.487094 5.16302 1.20355
C 2.49628 10.7237 6.7127
C 12.8981 2.24013 0.922359
H 1.44171 10.5492 6.67939
H 5.03495 2.03584 1.16958
C 4.6168 10.0636 7.46595
C 1.443 2.11713 2.15486
H 5.20985 9.42504 8.04237
H 2.03827 2.45765 2.97712
C 0.596024 7.09786 7.89787
C 4.06708 5.30358 2.2476
H 0.0703464 7.34682 8.80139
H 3.48869 5.07063 3.12834
C 0.0431753 6.15482 7.00499
C 3.48129 6.08983 1.22526
H 2.48408 6.48674 1.36315
C 0.55597 6.07475 5.69002
C 4.19027 6.36201 0.0426659
C 5.25447 1.95535 4.46991
C 1.77692 10.5491 10.0734
C -0.00384105 5.14739 4.65679
C 3.26365 7.16085 10.1133
Ni 9.36783 8.82199 9.03612
Ni 12.8097 3.53914 3.43826
O 7.50172 4.63628 3.6407
O 10.7932 7.79582 9.29893
O 11.3991 2.46065 3.47184
O 7.93629 9.88393 9.09625
O 12.2447 4.56762 4.74122
O 8.85073 7.80913 10.3732
O 6.50783 2.45126 4.625
O 9.83221 10.077 10.2159
N 10.1436 9.82698 7.58981
N 6.86069 2.53633 2.0727
N 8.64282 7.56399 7.76532
N 12.0905 4.77038 2.15825
C 10.1438 10.5768 5.27485
C 6.70886 1.37045 -0.0157281
C 11.4144 11.169 5.45945
C 8.12157 1.16161 -0.0693919
C 12.0695 10.9323 6.66751
C 8.86869 1.71469 0.974509
H 9.92865 1.52997 1.03562
C 8.86219 6.02781 5.90624
C 12.3544 6.3243 0.327872
H 9.50445 5.47878 5.23217
C 9.43733 6.87618 6.88839
C 12.8948 5.39889 1.24456
H 10.4884 7.10468 6.84102
H 7.08079 4.74926 0.962297
C 9.51988 9.92745 6.37335
C 6.10902 1.93215 1.13036
H 8.59934 9.40267 6.2089
H 11.8948 2.61385 0.84478
C 11.4643 10.1488 7.66447
C 8.23062 2.43485 2.00939
H 12.0297 9.87432 8.53837
H 8.83024 2.81097 2.81981
C 7.29175 7.53504 7.59312
C 10.7692 5.11025 2.24152
H 6.68949 8.11752 8.2236
H 10.1727 4.71074 3.04579
C 6.68064 6.67702 6.67064
C 10.2047 6.06613 1.36662
C 7.46091 5.96489 5.76381
C 10.9708 6.55595 0.292861
C 12.087 1.75979 4.40606
C 8.58936 10.6012 10.0365
C 6.80391 5.23323 4.61869
C 10.0794 7.25529 10.3134
C 6.5564 1.29139 7.05417
C 6.75107 2.57837 7.35772
H 7.367 10.8855 7.10634
H 5.94111 3.2893 7.2761
H 7.73806 2.92666 7.64505
C -0.67068 2.01033 9.65059
C 11.487 2.22211 9.41131
H 0.0453013 2.17282 8.85431
H 10.7442 2.13693 10.1859
H 11.1578 2.51618 8.42241
C 12.3748 5.3119 7.46076
C 12.2474 5.00084 8.74365
H 11.5281 5.1409 6.82035
H -0.345067 4.98231 9.39225
H 11.2645 4.79259 9.14758
C 6.18378 6.19966 10.1042
C 7.02975 5.27395 9.60862
H 6.45166 7.23991 10.0732
H 6.84508 4.21599 9.76223
H 7.97267 5.56107 9.17664
C 9.59506 10.3861 3.91437
C 8.27925 10.2478 3.70537
H 10.2769 10.2779 3.07813
H 7.56379 10.3624 4.50925
H 7.91121 10.0091 2.71504
C 5.60244 1.13253 10.0597
C 4.76227 2.10199 9.64526
H 5.39156 10.3706 9.85082
H 4.8521 3.11643 10.0211
H 3.94754 1.8821 8.9755
C 5.21817 6.64342 6.55913
C 4.50944 5.70973 7.20767
H 4.79206 7.10199 5.67765
H 4.93909 5.14807 8.01817
H 3.51397 5.44713 6.87587
C 8.94474 6.72764 1.74798
C 8.80832 7.29374 2.94236
H 8.11839 6.75805 1.06131
H 9.65921 7.38961 3.60768
H 7.83211 7.63777 3.26195
140
Atoms. Timestep: 12295
Ni 2.50945 8.86634 8.97276
Ni 6.06176 3.62876 3.42978
O 0.742718 4.5898 3.69244
O 3.93788 7.80723 9.13987
O 4.61008 2.61902 3.49546
O 1.08169 9.90221 9.11382
O 5.55293 4.70715 4.71199
O 2.02349 7.71338 10.2505
O -0.161548 2.32522 4.61749
O 3.00043 9.99781 10.2298
N 3.25979 10.0278 7.61215
N 0.140108 2.52408 2.04583
N 1.76174 7.73026 7.61845
N 5.34749 4.82503 2.12968
C 3.10928 1.19512 5.65822
C 0.080538 1.68364 -0.213627
H 2.49947 1.65891 4.90772
C 4.51567 1.32202 5.62308
C 1.36294 11.3661 -0.0463203
C 5.22807 11.0248 6.67207
C 2.03264 1.32786 1.16267
H -0.461863 1.16302 6.87475
H 3.01765 11.1781 1.32902
C 1.62678 6.89086 5.35701
C 5.5043 5.82269 -0.0519351
H 2.0211 6.88482 4.34789
H -0.451255 6.87988 -0.321355
C 2.22649 7.70658 6.32624
C 6.05545 5.09171 1.01675
H 3.06543 8.2968 6.03217
H 0.484342 5.17464 1.20848
C 2.49161 10.7173 6.70601
C 12.9009 2.25503 0.911544
H 1.438 10.538 6.66764
H 5.0347 2.03519 1.16825
C 4.61057 10.0543 7.46056
C 1.44342 2.13066 2.15003
H 5.20225 9.41669 8.03865
H 2.03822 2.475 2.97392
C 0.588543 7.10409 7.90103
C 4.06695 5.30508 2.25375
H 0.0644665 7.35642 8.80786
H 3.49097 5.07149 3.13842
C 0.0356469 6.15778 7.01416
C 3.47931 6.09237 1.23318
H 2.48345 6.49013 1.3761
C 0.54584 6.0743 5.69597
C 4.18608 6.36412 0.0473337
C 5.25261 1.95658 4.47192
C 1.77517 10.5477 10.0755
C -0.0089424 5.1413 4.66769
C 3.25901 7.16501 10.1197
Ni 9.36847 8.82569 9.03594
Ni 12.8075 3.5419 3.4392
O 7.49934 4.63593 3.6475
O 10.7913 7.79891 9.30576
O 11.4002 2.46108 3.4691
O 7.93924 9.88989 9.09196
O 12.2385 4.56399 4.74681
O 8.84794 7.81899 10.3778
O 6.50758 2.44918 4.62491
O 9.83481 10.0838 10.2108
N 10.1461 9.82451 7.5821
N 6.86035 2.53846 2.07156
N 8.64309 7.56335 7.76994
N 12.0877 4.77645 2.16405
C 10.1537 10.5682 5.26146
C 6.70885 1.37179 -0.0190028
C 11.4198 11.1647 5.45212
C 8.12262 1.16923 -0.0746788
C 12.0742 10.9259 6.66201
C 8.87035 1.72928 0.966363
H 9.93185 1.55127 1.02475
C 8.86085 6.01749 5.91815
C 12.3514 6.34167 0.342417
H 9.50218 5.46278 5.24764
C 9.43724 6.87041 6.89557
C 12.8915 5.40878 1.2517
H 10.4893 7.09522 6.84801
H 7.07621 4.7475 0.956117
C 9.53004 9.91235 6.35783
C 6.10863 1.93471 1.12725
H 8.61633 9.37832 6.18518
H 11.8987 2.63129 0.828403
C 11.4663 10.1456 7.65981
C 8.23077 2.44428 2.00461
H 12.0283 9.87637 8.54011
H 8.82976 2.81771 2.81781
C 7.29247 7.54202 7.59212
C 10.7652 5.10988 2.245
H 6.69142 8.12534 8.22287
H 10.1695 4.70752 3.04958
C 6.67989 6.67875 6.67463
C 10.1992 6.06827 1.3744
C 7.45986 5.95835 5.77353
C 10.9673 6.56789 0.304359
C 12.0889 1.76139 4.4033
C 8.591 10.6062 10.0332
C 6.80305 5.22661 4.62904
C 10.0778 7.2667 10.3239
C 6.56298 1.25874 7.04208
C 6.77799 2.53678 7.36632
H 7.36506 10.8422 7.07211
H 5.9767 3.25833 7.30424
H 7.77278 2.8648 7.65025
C -0.660339 2.01663 9.63597
C 11.4975 2.22521 9.38907
H 0.0597741 2.18319 8.84187
H 10.7521 2.13225 10.1598
H 11.1738 2.52646 8.39929
C 12.3753 5.3109 7.48183
C 12.258 5.00619 8.76821
H 11.5276 5.13234 6.84446
H -0.330168 4.99522 9.41416
H 11.2796 4.79159 9.18144
C 6.17768 6.20403 10.1014
C 7.02525 5.28223 9.60164
H 6.44844 7.24347 10.075
H 6.83629 4.22512 9.74236
H 7.97443 5.5714 9.18131
C 9.60726 10.3833 3.89515
C 8.29115 10.2478 3.68128
H 10.2908 10.2775 3.05782
H 7.57505 10.364 4.48395
H 7.92581 10.0076 2.68923
C 5.60141 1.12793 10.0561
C 4.75956 2.09401 9.63791
H 5.3903 10.3658 9.84866
H 4.85217 3.10874 10.007
H 3.94181 1.87017 8.97147
C 5.21754 6.64627 6.56422
C 4.50939 5.70648 7.2061
H 4.78949 7.11443 5.68999
H 4.94683 5.12402 7.99821
H 3.50847 5.45721 6.88098
C 8.93858 6.72526 1.76053
C 8.8049 7.29036 2.95634
H 8.11175 6.75494 1.07374
H 9.65762 7.38702 3.62168
H 7.83038 7.63825 3.27868
140
Atoms. Timestep: 12300
Ni 2.50903 8.87237 8.96497
Ni 6.06177 3.62266 3.43274
O 0.742507 4.58451 3.69511
O 3.93831 7.8121 9.13184
O 4.60977 2.61163 3.4985
O 1.08097 9.90966 9.106
O 5.55362 4.70247 4.71469
O 2.02392 7.71769 10.2425
O -0.162904 2.31673 4.6204
O 2.99993 10.0058 10.2217
N 3.25971 10.0349 7.60644
N 0.139479 2.51675 2.05136
N 1.7611 7.73495 7.61328
N 5.34711 4.82009 2.13489
C 3.10901 1.18334 5.65689
C 0.0788736 1.67244 -0.203808
H 2.49914 1.64817 4.90798
C 4.51583 1.31026 5.62244
C 1.36246 11.378 -0.0362191
C 5.22811 11.0361 6.66931
C 2.03165 1.31643 1.17075
H -0.462743 1.15064 6.87162
H 3.01706 11.19 1.33667
C 1.62668 6.8921 5.3552
C 5.5044 5.82235 -0.0428287
H 2.02081 6.8861 4.34852
H -0.452274 6.88141 -0.310762
C 2.22581 7.70947 6.3233
C 6.05509 5.08919 1.02453
H 3.06501 8.30137 6.03016
H 0.483399 5.1722 1.21597
C 2.49166 10.7275 6.70305
C 12.9025 2.24515 0.9199
H 1.43767 10.5482 6.66451
H 5.03469 2.02519 1.176
C 4.61088 10.0636 7.45582
C 1.44308 2.12121 2.15673
H 5.20253 9.42397 8.03287
H 2.03785 2.46632 2.97848
C 0.587521 7.10621 7.89704
C 4.06646 5.30242 2.26027
H 0.0635901 7.35912 8.80123
H 3.49051 5.06842 3.14291
C 0.0355112 6.1579 7.01048
C 3.4794 6.09171 1.24097
H 2.48311 6.49047 1.38366
C 0.545101 6.07398 5.695
C 4.18553 6.36437 0.0574099
C 5.25281 1.9471 4.47233
C 1.77492 10.5573 10.0651
C -0.00954966 5.13847 4.668
C 3.25901 7.16771 10.1092
Ni 9.36969 8.83165 9.02791
Ni 12.8088 3.53555 3.44218
O 7.50005 4.63079 3.65011
O 10.7929 7.80393 9.29728
O 11.4008 2.45311 3.47229
O 7.9397 9.89732 9.08426
O 12.2403 4.55908 4.74917
O 8.84939 7.82365 10.3694
O 6.5073 2.4412 4.62749
O 9.83535 10.092 10.2028
N 10.1472 9.8314 7.57742
N 6.86053 2.53141 2.07676
N 8.64375 7.56822 7.76392
N 12.0884 4.77169 2.16829
C 10.1538 10.5786 5.2606
C 6.70889 1.35977 -0.00921252
C 11.4211 11.1764 5.45153
C 8.12326 1.15701 -0.0646256
C 12.0751 10.9368 6.6592
C 8.87061 1.71858 0.974454
H 9.93239 1.54021 1.03288
C 8.86161 6.01689 5.91664
C 12.3526 6.34201 0.351627
H 9.50291 5.4608 5.24732
C 9.43792 6.87203 6.89211
C 12.8925 5.40681 1.25905
H 10.4903 7.09697 6.8445
H 7.07626 4.74398 0.964295
C 9.5314 9.92133 6.35525
C 6.10922 1.92454 1.13549
H 8.61726 9.38584 6.1831
H 11.8999 2.62266 0.836839
C 11.4679 10.1547 7.6556
C 8.23128 2.43536 2.01095
H 12.0297 9.88469 8.53409
H 8.8303 2.80987 2.82281
C 7.29314 7.54496 7.58706
C 10.7656 5.10702 2.2511
H 6.69191 8.13008 8.21681
H 10.17 4.70362 3.05394
C 6.6804 6.67998 6.67189
C 10.2003 6.06782 1.3816
C 7.45991 5.95759 5.77258
C 10.968 6.56851 0.314061
C 12.0899 1.75146 4.40379
C 8.59202 10.6157 10.0229
C 6.8031 5.22358 4.62954
C 10.0787 7.26956 10.3133
C 6.56338 1.24728 7.03903
C 6.77845 2.52714 7.36191
H 7.36548 10.8536 7.0683
H 5.97715 3.25067 7.29996
H 7.77333 2.85659 7.64529
C -0.660871 2.00635 9.62651
C 11.4991 2.21577 9.38058
H 0.0592869 2.17371 8.83405
H 10.7531 2.12225 10.1504
H 11.175 2.51785 8.39218
C 12.3769 5.30935 7.47691
C 12.2595 5.00292 8.76204
H 11.5286 5.12996 6.84079
H -0.330687 4.99211 9.40627
H 11.2809 4.78793 9.17379
C 6.17847 6.20362 10.0913
C 7.02605 5.28037 9.5926
H 6.44886 7.24476 10.0656
H 6.8368 4.22126 9.73337
H 7.97522 5.56957 9.17336
C 9.60799 10.3933 3.89692
C 8.29193 10.2572 3.68395
H 10.2917 10.2869 3.06116
H 7.57535 10.3739 4.48577
H 7.92615 10.0163 2.6932
C 5.60161 11.4039 10.046
C 4.75978 2.08361 9.62896
H 5.39061 10.3766 9.83977
H 4.85268 3.10048 9.99744
H 3.94161 1.85986 8.96383
C 5.21751 6.64665 6.56186
C 4.50962 5.70537 7.202
H 4.78939 7.11668 5.68856
H 4.94717 5.1212 7.99273
H 3.50842 5.45556 6.8774
C 8.93907 6.72563 1.7671
C 8.80557 7.29308 2.96123
H 8.112 6.75579 1.0812
H 9.6584 7.38988 3.62504
H 7.83092 7.64159 3.28239
140
Atoms. Timestep: 16594
Ni 2.50658 8.87254 8.96606
Ni 6.06083 3.62358 3.43475
O 0.739921 4.58532 3.69787
O 3.93469 7.8129 9.13246
O 4.60915 2.61407 3.49955
O 1.07932 9.909 9.10674
O 5.55223 4.7016 4.71778
O 2.02143 7.7205 10.2453
O -0.162663 2.31907 4.62016
O 2.99876 10.0054 10.2219
N 3.2567 10.0324 7.60428
N 0.139407 2.52188 2.04942
N 1.75727 7.73561 7.61384
N 5.34598 4.8205 2.13567
C 3.10761 1.18438 5.65697
C 0.0813487 1.67625 -0.207921
H 2.4983 1.65253 4.90886
C 4.51415 1.31137 5.62328
C 1.36219 11.3802 -0.037165
C 5.22596 11.0314 6.66861
C 2.03125 1.32072 1.17139
H -0.461158 1.14655 6.87194
H 3.01542 11.1942 1.33999
C 1.62013 6.89146 5.3546