ITEM: TIMESTEP
0
ITEM: NUMBER OF ATOMS
140
ITEM: BOX BOUNDS xy xz yz pp pp pp
-2.4716515477713338e-01 1.3466748099454600e+01 0.0000000000000000e+00
0.0000000000000000e+00 1.0303875907332200e+01 -2.4716515477713338e-01
0.0000000000000000e+00 1.1157779903066199e+01 0.0000000000000000e+00
ITEM: ATOMS id type x y z
1 1 2.50242 8.87746 8.95892
2 1 6.05928 3.62004 3.43988
3 2 0.735298 4.5832 3.70436
4 2 3.92961 7.81694 9.12423
5 2 4.60787 2.61087 3.50298
6 2 1.07633 9.91462 9.09904
7 2 5.55062 4.69682 4.7241
8 2 2.01786 7.72677 10.2399
9 2 13.3025 2.31496 4.62216
10 2 2.99678 10.0114 10.213
11 3 3.25212 10.035 7.59615
12 3 0.137954 2.52386 2.05334
13 3 1.7511 7.74034 7.60948
14 3 5.34389 4.81777 2.14289
15 4 3.10507 1.1817 5.6572
16 4 -0.165041 1.67474 10.9557
17 5 2.49646 1.65737 4.91338
18 4 4.51199 1.3051 5.62339
19 4 1.11446 1.08885 11.13
20 4 5.22294 0.727875 6.66365
21 4 2.02972 1.31956 1.18048
22 5 13.0044 1.13621 6.86886
23 5 3.01296 0.903869 1.35148
24 4 1.6108 6.89233 5.35269
25 4 5.24783 5.82058 11.1215
26 5 2.00131 6.88322 4.34211
27 5 12.7609 6.90857 10.8794
28 4 2.21204 7.71295 6.31618
29 4 6.04677 5.08161 1.02648
30 5 3.04621 8.30669 6.01592
31 5 0.477299 5.18473 1.2301
32 4 2.4855 0.428101 6.69494
33 4 12.9076 2.25451 0.91776
34 5 1.43258 0.247398 6.65182
35 5 5.03449 2.01341 1.18469
36 4 4.60212 10.0567 7.44289
37 4 1.44086 2.12988 2.16119
38 5 5.19117 9.41425 8.01789
39 5 2.03506 2.47831 2.98372
40 4 0.578559 7.11541 7.89732
41 4 4.06556 5.30205 2.27386
42 5 0.0560014 7.37153 8.80389
43 5 3.49238 5.06778 3.16019
44 4 0.026769 6.16256 7.01801
45 4 3.4765 6.09444 1.25871
46 5 2.48254 6.49504 1.40703
47 4 0.533187 6.07438 5.69944
48 4 4.17937 6.36775 0.0713536
49 4 5.24993 1.94624 4.47733
50 4 1.77185 0.258725 10.0567
51 4 -0.016525 5.13031 4.68084
52 4 3.25227 7.17602 10.1049
53 1 9.37185 8.83949 9.02093
54 1 12.8085 3.53488 3.44866
55 2 7.49632 4.62675 3.65809
56 2 10.7926 7.81234 9.29452
57 2 11.4035 2.4515 3.4735
58 2 7.94455 9.90584 9.07124
59 2 12.2374 4.5516 4.76031
60 2 8.84858 7.83775 10.3667
61 2 6.50492 2.43868 4.63298
62 2 9.83861 10.1022 10.192
63 3 10.1529 9.83173 7.56437
64 3 6.85935 2.53159 2.08073
65 3 8.64542 7.57359 7.76017
66 3 12.0862 4.77278 2.17862
67 4 10.1676 0.273741 5.24502
68 4 6.46205 1.34876 11.1572
69 4 11.4289 0.876782 5.44336
70 4 7.87729 1.15517 11.0988
71 4 12.0817 0.634088 6.65288
72 4 8.87172 1.72865 0.974695
73 5 9.93499 1.56006 1.0295
74 4 8.85939 6.00659 5.92638
75 4 12.3502 6.36084 0.377654
76 5 9.4992 5.44307 5.2618
77 4 9.43817 6.86731 6.89537
78 4 12.8902 5.41667 1.27478
79 5 10.4914 7.08631 6.84769
80 5 7.0667 4.73579 0.961662
81 4 9.54585 9.91008 6.33466
82 4 6.1087 1.9174 1.14263
83 5 8.64351 9.36054 6.15162
84 5 11.9072 2.63514 0.82906
85 4 11.4712 10.1581 7.64894
86 4 8.23015 2.44122 2.01324
87 5 12.0288 9.89359 8.53346
88 5 8.82837 2.81525 2.82659
89 4 7.29537 7.55717 7.5799
90 4 10.763 5.10416 2.26221
91 5 6.69625 8.14464 8.20859
92 5 10.1682 4.69645 3.06463
93 4 6.68023 6.68528 6.67244
94 4 10.1956 6.06746 1.39804
95 4 7.45811 5.95204 5.78054
96 4 10.9653 6.58063 0.336473
97 4 12.0943 1.74883 4.40348
98 4 8.59537 0.321477 10.0099
99 4 6.80072 5.2165 4.63989
100 4 10.0781 7.2835 10.313
101 6 6.57265 1.1914 7.01812
102 6 6.82018 2.45827 7.36561
103 5 7.35812 0.491869 7.02219
104 5 6.0349 3.20009 7.32743
105 5 7.82532 2.75803 7.64437
106 6 12.8167 2.00751 9.59971
107 6 11.5149 2.21453 9.34673
108 5 0.0749089 2.18204 8.81163
109 5 10.7651 2.10819 10.1119
110 5 11.1964 2.52632 8.35842
111 6 12.3812 5.31 7.49532
112 6 12.2762 5.00616 8.78307
113 5 11.5307 5.1231 6.86356
114 5 13.1536 5.00356 9.4225
115 5 11.303 4.78337 9.20411
116 6 6.16975 6.20821 10.0737
117 6 7.01948 5.28939 9.57183
118 5 6.44244 7.24762 10.0557
119 5 6.82489 4.23124 9.69723
120 5 7.9753 5.58043 9.16796
121 6 9.62614 0.0939527 3.87628
122 6 8.31067 10.2636 3.65835
123 5 10.3125 10.293 3.04109
124 5 7.59238 0.0801948 4.45875
125 5 7.94834 10.0199 2.66606
126 6 5.60208 1.10073 10.0301
127 6 4.75978 2.06573 9.61001
128 5 5.39183 0.0742191 9.82424
129 5 4.85596 3.08257 9.97281
130 5 3.93893 1.83955 8.9483
131 6 5.21745 6.65209 6.56677
132 6 4.51221 5.70104 7.19602
133 5 4.78412 7.14069 5.70725
134 5 4.96321 5.0833 7.95357
135 5 3.50202 5.4723 6.8853
136 6 8.93174 6.71694 1.78554
137 6 8.80022 7.29134 2.9773
138 5 8.10481 6.74328 1.09848
139 5 9.65402 7.39213 3.64069
140 5 7.82709 7.64549 3.29742
