ITEM: TIMESTEP
0
ITEM: NUMBER OF ATOMS
140
ITEM: BOX BOUNDS xy xz yz pp pp pp
-2.2759399999999999e-01 1.2505599999999999e+01 0.0000000000000000e+00
0.0000000000000000e+00 1.2523400000000001e+01 -2.2759399999999999e-01
0.0000000000000000e+00 1.0274279000000000e+01 0.0000000000000000e+00
ITEM: ATOMS id type x y z
1 1 2.69584 9.3398 8.64109
2 1 6.04538 3.14684 3.6947
3 2 1.21509 4.08074 3.74409
4 2 4.16907 8.27977 8.83632
5 2 4.53647 2.16283 3.84913
6 2 1.21607 10.39 8.79937
7 2 5.62091 4.32781 4.97385
8 2 2.229 8.11275 9.90359
9 2 0.184312 1.81271 4.78873
10 2 3.08606 10.4786 9.96555
11 3 3.49269 10.631 7.27901
12 3 0.530238 1.83521 2.13736
13 3 1.96133 8.13223 7.2193
14 3 5.3208 4.39667 2.31674
15 4 3.39309 12.0707 5.27826
16 4 0.439778 0.573116 0.0158152
17 5 2.94836 12.2237 4.32049
18 4 4.58211 0.24977 5.63233
19 4 1.49519 12.2143 0.429953
20 4 5.15919 12.4148 6.84602
21 4 2.10301 0.0105192 1.66193
22 5 0.296679 12.0082 6.2517
23 5 2.95527 11.9585 1.99677
24 4 1.95609 6.9217 5.07002
25 4 5.60363 5.81748 0.325471
26 5 2.3365 6.84278 4.06439
27 5 -0.0727496 6.35776 9.96913
28 4 2.44936 7.97939 5.9377
29 4 6.02757 4.74018 1.2027
30 5 3.23496 8.62271 5.57943
31 5 0.83746 4.38195 1.00756
32 4 2.80796 11.0866 6.17149
33 4 12.4082 1.5557 0.948754
34 5 1.88976 10.6022 5.88346
35 5 5.24591 0.44834 2.51963
36 4 4.75036 11.1757 7.48242
37 4 1.68067 1.14803 2.42859
38 5 5.4657 10.6248 8.04372
39 5 2.25668 1.45255 3.28106
40 4 0.866003 7.38456 7.55545
41 4 4.09734 5.00275 2.51537
42 5 0.305015 7.67093 8.41259
43 5 3.54073 4.76901 3.40674
44 4 0.506396 6.20063 6.84098
45 4 3.56061 5.97432 1.59198
46 5 2.56891 6.37138 1.76318
47 4 1.01136 5.96827 5.54679
48 4 4.31528 6.4462 0.491935
49 4 5.18397 1.45597 4.81108
50 4 1.8561 11.0342 9.80595
51 4 0.496148 4.75366 4.68549
52 4 3.48052 7.57355 9.78497
53 1 9.18218 9.47793 8.78289
54 1 12.2622 3.03375 3.52917
55 2 7.54535 4.15148 3.88163
56 2 10.6646 8.4556 9.01828
57 2 10.7878 1.97025 3.63683
58 2 7.69618 10.5213 8.92944
59 2 11.7727 4.18404 4.82066
60 2 8.73699 8.35373 10.1145
61 2 6.45432 1.94149 4.9638
62 2 9.61489 10.743 10.0245
63 3 9.88726 10.629 7.32447
64 3 6.78469 1.89746 2.30114
65 3 8.48795 8.17401 7.41111
66 3 11.5643 4.31255 2.17384
67 4 9.54306 12.1079 5.39024
68 4 6.59505 12.3974 0.979109
69 4 10.9017 0.0109615 5.40774
70 4 7.94505 12.4062 0.536046
71 4 11.7559 11.7728 6.22907
72 4 8.69668 0.990515 1.00524
73 5 9.74911 1.02577 0.82255
74 4 8.85819 6.26815 5.87562
75 4 11.9627 5.9526 0.388282
76 5 9.568 5.61962 5.38766
77 4 9.34606 7.36558 6.68392
78 4 12.3675 4.81737 1.17632
79 5 10.4091 7.54637 6.72563
80 5 7.01001 4.32252 1.07681
81 4 9.04623 11.2237 6.42019
82 4 6.19285 0.682827 2.07308
83 5 8.00517 10.9258 6.39912
84 5 11.5942 2.18948 0.637406
85 4 11.2338 10.7599 7.10762
86 4 8.06845 2.04401 1.78999
87 5 11.8941 10.0257 7.5111
88 5 8.65281 2.90637 2.05653
89 4 7.13655 8.0224 7.18549
90 4 10.3955 4.98925 2.4539
91 5 6.44864 8.6902 7.66697
92 5 9.81914 4.67796 3.30356
93 4 6.61304 6.90955 6.42322
94 4 10.0672 6.24008 1.82109
95 4 7.4691 6.02504 5.7293
96 4 10.7485 6.63622 0.647824
97 4 11.4589 1.26045 4.59539
98 4 8.35918 11.2546 9.88057
99 4 6.88254 4.83006 4.85637
100 4 9.98168 7.82245 10.0167
101 6 5.72734 1.00676 7.64624
102 6 7.02188 1.09618 7.93012
103 5 5.09765 1.87164 7.84085
104 5 7.68529 0.291468 7.71732
105 5 7.40598 1.9799 8.42849
106 6 -0.0491797 0.771343 8.85377
107 6 11.2623 1.20665 8.427
108 5 0.796362 0.801481 8.17277
109 5 10.3807 1.11001 9.04288
110 5 11.1767 1.69999 7.46737
111 6 12.275 5.14393 7.54354
112 6 0.435415 4.17622 8.17416
113 5 11.2023 5.23496 7.67746
114 5 1.51378 4.08861 8.07464
115 5 -0.0846266 3.53821 8.87077
116 6 6.3968 6.40741 9.73369
117 6 7.3435 5.62817 9.18041
118 5 6.50578 7.48162 9.72485
119 5 7.20132 4.55478 9.09727
120 5 8.26609 6.05098 8.82443
121 6 8.7995 12.14 4.13998
122 6 8.53767 10.9927 3.50235
123 5 8.26682 0.510119 3.88501
124 5 9.05025 10.081 3.78756
125 5 7.7188 10.926 2.80603
126 6 5.55305 12.0398 0.0775624
127 6 4.37182 0.424161 10.0389
128 5 5.26645 11.0149 10.0548
129 5 4.64936 1.44089 0.145869
130 5 3.64587 0.227471 9.26949
131 6 5.17115 6.72253 6.30591
132 6 4.53262 5.82847 7.07621
133 5 4.72537 7.01453 5.36806
134 5 5.07115 5.23051 7.79479
135 5 3.50778 5.56019 6.86389
136 6 9.40379 7.27798 2.63296
137 6 8.07815 7.32447 2.74653
138 5 10.0129 8.00596 3.15808
139 5 7.46397 6.59647 2.25091
140 5 7.61032 8.07527 3.3733
