ITEM: TIMESTEP
0
ITEM: NUMBER OF ATOMS
140
ITEM: BOX BOUNDS xy xz yz pp pp pp
-2.2997067982417801e-01 1.5083179884511599e+01 0.0000000000000000e+00
0.0000000000000000e+00 1.0517613623848700e+01 -2.2997067982417801e-01
0.0000000000000000e+00 1.0381569489236400e+01 0.0000000000000000e+00
ITEM: ATOMS id type x y z
1 1 2.28667 8.97008 8.85488
2 1 6.1853 3.51595 3.60753
3 2 0.0653882 4.58005 3.78901
4 2 3.70159 7.93633 8.93267
5 2 4.79737 2.46505 3.68919
6 2 0.92282 9.99644 8.98923
7 2 5.70252 4.64016 4.88778
8 2 1.84158 7.81044 10.137
9 2 14.1105 2.43201 4.91683
10 2 2.79112 10.1251 10.1501
11 3 3.05557 10.1472 7.50889
12 3 14.505 2.40364 2.33735
13 3 1.43908 7.81017 7.55679
14 3 5.38915 4.68639 2.29548
15 4 3.46111 0.377744 5.24525
16 4 14.7227 1.19334 0.265252
17 5 3.14952 0.41381 4.20992
18 5 6.43627 1.15911 9.5825
19 4 4.65766 0.998424 5.63498
20 4 0.984708 0.902453 0.549955
21 4 4.98604 1.00328 6.97903
22 4 1.49718 1.27296 1.77646
23 5 12.9273 1.94645 7.39707
24 5 2.52113 1.03915 2.03636
25 4 1.36189 6.70719 5.42752
26 4 5.14245 5.60216 0.0798697
27 5 1.73979 6.70911 4.41508
28 5 12.81 5.80721 9.43233
29 4 2.09682 7.34114 6.45414
30 4 5.91433 4.91323 1.05018
31 5 3.13212 7.60628 6.28713
32 4 2.6073 10.3225 6.21231
33 4 13.9349 1.92668 1.17226
34 5 5.31747 2.26753 0.987058
35 4 4.22888 0.247767 7.88168
36 4 0.680686 1.95857 2.68437
37 5 4.63374 0.07748 8.86197
38 5 1.08504 2.20015 3.65431
39 4 0.115402 7.39556 7.76975
40 4 4.17361 5.27136 2.61436
41 4 14.6342 6.39683 6.95705
42 4 3.70954 6.35379 1.84629
43 5 5.9677 6.0821 7.02982
44 5 2.91587 6.98502 2.22533
45 4 0.112214 6.13272 5.7188
46 4 4.05666 6.40231 0.498765
47 4 5.42983 1.80445 4.64818
48 4 1.55115 0.13839 9.93827
49 4 14.4848 5.26948 4.72008
50 4 3.07381 7.27279 9.90513
51 1 9.72668 8.89703 8.7951
52 1 13.7053 3.60209 3.62818
53 2 7.57498 4.56761 3.73038
54 2 11.167 7.90586 8.91498
55 2 12.2576 2.62494 3.71011
56 2 8.32621 9.90487 8.89071
57 2 13.2283 4.7722 4.89188
58 2 9.2839 7.74412 10.0797
59 2 6.65574 2.35321 4.88097
60 2 10.1631 10.0617 10.0846
61 3 10.4918 10.088 7.43208
62 3 6.98948 2.38315 2.30359
63 3 8.9351 7.69089 7.51484
64 3 12.9768 4.80536 2.28465
65 4 11.1583 0.125681 5.15943
66 4 7.04726 1.23391 0.203843
67 5 11.0332 10.5009 4.09351
68 5 14.0731 0.908573 9.68938
69 4 12.0961 1.06219 5.62742
70 4 8.29196 0.669001 0.538095
71 4 12.208 1.24159 6.99715
72 4 8.71002 0.769391 1.84966
73 5 5.84735 1.55603 7.32907
74 5 9.53248 0.168906 2.21099
75 4 9.05626 6.16854 5.65623
76 4 12.7052 5.75723 0.0784478
77 5 9.61618 5.79116 4.81779
78 5 5.20499 5.57514 9.4199
79 4 9.69009 7.00086 6.60297
80 4 13.5195 5.13215 1.0545
81 5 10.7501 7.19738 6.51561
82 5 6.89667 4.54326 0.792827
83 4 10.2451 10.0349 6.06493
84 4 6.33868 1.96502 1.17538
85 4 11.5207 0.387077 7.86788
86 4 8.2355 1.84508 2.59924
87 5 11.8946 0.303566 8.87166
88 4 7.59693 7.30955 7.69967
89 4 11.74 5.31909 2.61083
90 5 11.2936 5.06428 3.55426
91 4 7.01148 6.34415 6.88608
92 4 10.9997 6.10583 1.71863
93 5 13.6525 6.00306 7.19427
94 5 10.0439 6.51216 2.0274
95 4 7.68131 5.88486 5.77956
96 4 11.4743 6.32545 0.436428
97 4 12.8669 1.93098 4.67281
98 4 8.90793 0.0364925 9.87366
99 4 6.93218 5.18891 4.70519
100 4 10.5236 7.22984 9.86889
101 6 1.22207 10.0467 5.82636
102 6 0.215483 0.184248 6.37565
103 5 1.02651 9.40204 4.97568
104 5 0.38766 1.00806 7.0624
105 5 14.2978 10.3883 6.14476
106 6 12.6356 2.39967 0.696007
107 6 11.5234 1.84288 1.11521
108 5 12.367 2.99974 10.1744
109 5 11.5515 1.04537 1.84868
110 5 10.5865 2.17316 0.690281
111 6 14.2265 8.2656 8.46899
112 6 14.0538 8.22351 9.79263
113 5 13.5939 8.91779 7.87915
114 5 14.8186 7.51455 0.0196008
115 5 13.3375 8.88706 10.2657
116 6 3.14334 4.45025 3.2736
117 6 2.99279 4.41972 4.60064
118 5 2.61669 3.72987 2.67059
119 5 3.47072 5.15598 5.2323
120 5 2.33596 3.68686 5.05619
121 6 8.94652 9.59134 5.52088
122 6 7.80191 10.1187 5.94261
123 5 8.93385 8.91868 4.66818
124 5 7.7993 0.393675 6.68063
125 5 6.8656 9.77455 5.51891
126 6 9.25175 2.67748 3.26515
127 6 9.46086 2.62429 4.58217
128 5 9.75055 3.44003 2.6824
129 5 8.98311 1.87892 5.19073
130 5 10.1222 3.34071 5.05598
131 6 6.65737 8.11929 8.49165
132 6 6.53678 7.98024 9.81421
133 5 6.06685 8.86447 7.98063
134 5 7.03152 7.17183 10.3354
135 5 5.89998 8.65768 10.3738
136 6 14.8461 4.66596 0.639393
137 6 0.858083 5.24595 1.08864
138 5 14.6958 4.01421 10.1564
139 5 0.803089 6.04655 1.81929
140 5 1.81077 4.9343 0.686897
