Created on Tue Aug 25 11:51:21 2020 

         148 atoms
         168 bonds
         316 angles
         352 dihedrals
         192 impropers

           7 atom types
          11 bond types
          21 angle types
           5 dihedral types
           1 improper types
           0.000000  12.505600 xlo xhi
           0.000000  12.523400 ylo yhi
           0.000000  10.274279 zlo zhi
           0.000000  -0.227594   0.000000 xy xz yz

Masses

    1    58.693400000 # Ni4+2
    2    15.999400000 # O_R
    3    14.006700000 # N_R
    4    12.010700000 # C_R
    5     1.007940000 # H_
    6    12.010700000 # C_3
    7    14.006700000 # N_3

Bond Coeffs

    1      321.720028        1.793457  # Ni4+2 O_R
    2      328.673665        1.841585  # Ni4+2 N_R
    3      646.680887        1.311940  # O_R C_R
    4      663.718927        1.345073  # N_R C_R
    5      462.655054        1.379256  # C_R C_R
    6      357.440381        1.081418  # C_R H_
    7      391.669513        1.458000  # C_R C_R
    8      369.943935        1.486000  # C_R C_3
    9      528.634538        1.451071  # C_3 N_3
   10      331.069389        1.109401  # C_3 H_
   11      527.945261        1.044419  # N_3 H_

Angle Coeffs

    1              cosine/periodic      322.980216               1               4 # O_R Ni4+2 O_R
    2              cosine/periodic      343.030950               1               4 # O_R Ni4+2 N_R
    3              cosine/periodic      364.965660               1               4 # N_R Ni4+2 N_R
    4              cosine/periodic      238.346347              -1               3 # C_R O_R Ni4+2
    5              cosine/periodic      177.809033              -1               3 # Ni4+2 N_R C_R
    6              cosine/periodic      240.001032              -1               3 # C_R N_R C_R
    7              cosine/periodic      114.578032              -1               3 # C_R C_R H_
    8              cosine/periodic      222.595017              -1               3 # C_R C_R C_R
    9              cosine/periodic      204.366560              -1               3 # C_R C_R C_R
   10              cosine/periodic      307.398705              -1               3 # N_R C_R C_R
   11              cosine/periodic      273.097456              -1               3 # N_R C_R C_3
   12              cosine/periodic      198.274298              -1               3 # C_R C_R C_3
   13              cosine/periodic      159.573934              -1               3 # N_R C_R H_
   14              cosine/periodic      263.511421              -1               3 # O_R C_R C_R
   15              cosine/periodic      374.272657              -1               3 # O_R C_R O_R
   16                      fourier      312.235112        0.343737        0.374972        0.281246 # N_3 C_3 C_R
   17                      fourier      169.780468        0.343737        0.374972        0.281246 # N_3 C_3 H_
   18                      fourier      121.777217        0.343737        0.374972        0.281246 # C_R C_3 H_
   19                      fourier       75.498766        0.343737        0.374972        0.281246 # H_ C_3 H_
   20                      fourier      144.695053        0.317506        0.313225        0.272502 # C_3 N_3 H_
   21                      fourier       97.017167        0.317506        0.313225        0.272502 # H_ N_3 H_

Dihedral Coeffs

    1        2.245703              -1               2 # Ni4+2 O_R C_R C_R
    2        1.497136              -1               2 # Ni4+2 N_R C_R C_R
    3        0.555556              -1               2 # C_R C_R C_R O_R
    4        0.083333               1               3 # N_R C_R C_3 N_3
    5        0.040687               1               3 # C_R C_3 N_3 H_

Improper Coeffs

    1        2.000000        1.000000       -1.000000        0.000000               0 # Ni4+2 N_R C_R C_R

Pair Coeffs

    1        0.015000        2.524807 # Ni4+2 Ni4+2
    2        0.060000        3.118146 # O_R O_R
    3        0.069000        3.260689 # N_R N_R
    4        0.105000        3.430851 # C_R C_R
    5        0.044000        2.571134 # H_ H_
    6        0.105000        3.430851 # C_3 C_3
    7        0.069000        3.260689 # N_3 N_3

Atoms

       1      444        1     0.00000    2.89857    9.41116    8.59265
       2      444        1     0.00000    6.17525    3.10579    3.48481
       3      444        2     0.00000    1.44827    4.35425    3.93374
       4      444        2     0.00000    4.44160    8.15245    9.05464
       5      444        2     0.00000    4.63665    1.84729    3.87523
       6      444        2     0.00000    1.36499   10.67435    9.00295
       7      444        2     0.00000    5.80609    4.46033    4.96242
       8      444        2     0.00000    2.54244    8.03270   10.06753
       9      444        2     0.00000    0.25117    1.69264    4.94273
      10      444        2     0.00000    3.23722   10.80466   10.06262
      11      444        3     0.00000    3.69677   10.66058    7.24160
      12      444        3     0.00000    0.71256    1.86420    2.11704
      13      444        3     0.00000    2.17217    8.14409    7.25198
      14      444        3     0.00000    5.44023    4.39481    2.13747
      15      444        4     0.00000    3.48546   12.14832    5.36301
      16      444        4     0.00000    0.47488    0.38955    0.22920
      17      444        5     0.00000    2.86453   12.51808    4.55267
      18      444        5     0.00000    5.86971    0.03371    9.69377
      19      444        4     0.00000    4.76073    0.14740    5.61481
      20      444        4     0.00000    1.74333   12.36991    0.47412
      21      444        4     0.00000    5.50345   12.15023    6.68209
      22      444        4     0.00000    2.49852    0.35508    1.54004
      23      444        5     0.00000    0.24768   12.50843    6.91993
      24      444        5     0.00000    3.49155   12.50668    1.77336
      25      444        4     0.00000    2.48363    6.63370    5.40822
      26      444        4     0.00000    5.72803    5.90364    0.28669
      27      444        5     0.00000    3.13294    6.27291    4.61605
      28      444        5     0.00000   -0.10828    6.26667    9.76620
      29      444        4     0.00000    2.92756    7.68099    6.23068
      30      444        4     0.00000    6.18830    4.86756    1.11596
      31      444        5     0.00000    0.91589    4.41889    0.97634
      32      444        4     0.00000    2.98256   11.13588    6.19748
      33      444        4     0.00000   -0.01036    1.40553    1.07106
      34      444        5     0.00000    5.26093    1.85011    0.92351
      35      444        4     0.00000    4.93641   11.13810    7.47507
      36      444        4     0.00000    1.94823    1.37190    2.34060
      37      444        5     0.00000    5.48559   10.70967    8.30944
      38      444        5     0.00000    2.50886    1.79214    3.17267
      39      444        4     0.00000    0.94573    7.62654    7.47302
      40      444        4     0.00000    4.21083    4.90458    2.35686
      41      444        5     0.00000    0.36328    8.05184    8.28732
      42      444        4     0.00000    0.43859    6.57577    6.69176
      43      444        4     0.00000    3.68763    5.94500    1.56944
      44      444        5     0.00000    5.70774    6.17693    6.91975
      45      444        5     0.00000    2.69824    6.32683    1.80071
      46      444        4     0.00000    1.22745    6.06471    5.65205
      47      444        4     0.00000    4.46338    6.45777    0.52027
      48      444        4     0.00000    5.31260    1.24381    4.79419
      49      444        4     0.00000    2.05020   11.26755    9.92158
      50      444        4     0.00000    0.73548    4.94016    4.83586
      51      444        4     0.00000    3.73174    7.56629    9.95688
      52      444        1     0.00000    9.15137    9.41116    8.59265
      53      444        1     0.00000   12.42805    3.10579    3.48481
      54      444        2     0.00000    7.70109    4.35425    3.93374
      55      444        2     0.00000   10.69440    8.15245    9.05464
      56      444        2     0.00000   10.88945    1.84729    3.87523
      57      444        2     0.00000    7.61779   10.67435    9.00295
      58      444        2     0.00000   12.05889    4.46033    4.96242
      59      444        2     0.00000    8.79524    8.03270   10.06753
      60      444        2     0.00000    6.50397    1.69264    4.94273
      61      444        2     0.00000    9.49002   10.80466   10.06262
      62      444        3     0.00000    9.94957   10.66058    7.24160
      63      444        3     0.00000    6.96536    1.86420    2.11704
      64      444        3     0.00000    8.42499    8.14409    7.25198
      65      444        3     0.00000   11.69303    4.39481    2.13747
      66      444        4     0.00000    9.73826   12.14832    5.36301
      67      444        4     0.00000    6.72768    0.38955    0.22920
      68      444        5     0.00000    9.11733   12.51808    4.55267
      69      444        5     0.00000   12.12251    0.03371    9.69377
      70      444        4     0.00000   11.01353    0.14740    5.61481
      71      444        4     0.00000    7.99613   12.36991    0.47412
      72      444        4     0.00000   11.75625   12.15023    6.68209
      73      444        4     0.00000    8.75132    0.35508    1.54004
      74      444        5     0.00000    6.50047   12.50843    6.91993
      75      444        5     0.00000    9.74435   12.50668    1.77336
      76      444        4     0.00000    8.73644    6.63370    5.40822
      77      444        4     0.00000   11.98084    5.90364    0.28669
      78      444        5     0.00000    9.38574    6.27291    4.61605
      79      444        5     0.00000    6.14452    6.26667    9.76620
      80      444        4     0.00000    9.18036    7.68099    6.23068
      81      444        4     0.00000   12.44110    4.86756    1.11596
      82      444        5     0.00000    7.16869    4.41889    0.97634
      83      444        4     0.00000    9.23536   11.13588    6.19748
      84      444        4     0.00000    6.24244    1.40553    1.07106
      85      444        5     0.00000    8.24672   10.70905    6.04703
      86      444        4     0.00000   11.18921   11.13810    7.47507
      87      444        4     0.00000    8.20102    1.37190    2.34060
      88      444        4     0.00000    7.19853    7.62654    7.47302
      89      444        4     0.00000   10.46363    4.90458    2.35686
      90      444        5     0.00000    6.61608    8.05184    8.28732
      91      444        4     0.00000    6.69139    6.57577    6.69176
      92      444        4     0.00000    9.94043    5.94500    1.56944
      93      444        5     0.00000   11.96054    6.17693    6.91975
      94      444        5     0.00000    8.95104    6.32683    1.80071
      95      444        4     0.00000    7.48025    6.06471    5.65205
      96      444        4     0.00000   10.71618    6.45777    0.52027
      97      444        4     0.00000   11.56540    1.24381    4.79419
      98      444        4     0.00000    8.30300   11.26755    9.92158
      99      444        4     0.00000    6.98827    4.94016    4.83586
     100      444        4     0.00000    9.98454    7.56629    9.95688
     101      444        6     0.00000    1.56647   10.54454    5.90771
     102      444        7     0.00000    1.16738    9.51728    6.86861
     103      444        5     0.00000    0.80964   11.35920    5.93786
     104      444        5     0.00000    1.57514   10.08482    4.89584
     105      444        5     0.00000    1.01465    9.96645    7.80138
     106      444        5     0.00000    0.24819    9.12044    6.56676
     107      444        6     0.00000   11.08789    2.02063    0.78685
     108      444        7     0.00000   10.70649    3.04857    1.75417
     109      444        5     0.00000   10.31843    1.21776    0.81367
     110      444        5     0.00000   10.87458    2.48587   10.05183
     111      444        5     0.00000   10.54823    2.59659    2.68466
     112      444        5     0.00000    9.79316    3.46147    1.45609
     113      444        6     0.00000    4.32209    8.32702    5.95721
     114      444        7     0.00000    4.65818    9.38795    6.90552
     115      444        5     0.00000    5.11200    7.54612    6.01745
     116      444        5     0.00000    4.31399    8.76717    4.93667
     117      444        5     0.00000    4.81129    8.96303    7.84952
     118      444        5     0.00000    5.56554    9.81807    6.61359
     119      444        6     0.00000    3.33864    4.32122    3.51695
     120      444        7     0.00000    4.01562    3.26242    4.26425
     121      444        5     0.00000    3.07515    5.13358    4.22972
     122      444        5     0.00000    2.40905    3.89510    3.08151
     123      444        5     0.00000    4.81306    3.68043    4.79762
     124      444        5     0.00000    3.34713    2.87466    4.96872
     125      444        6     0.00000   12.02356   10.54761    8.65948
     126      444        7     0.00000   11.30296    9.52054    9.41028
     127      444        5     0.00000   12.29814   11.36294    9.36462
     128      444        5     0.00000    0.44219   10.08807    8.24725
     129      444        5     0.00000   10.50884    9.96967    9.92293
     130      444        5     0.00000   11.94740    9.12457   10.13238
     131      444        6     0.00000    9.05045    1.94873    3.52073
     132      444        7     0.00000    8.34695    2.98165    4.27968
     133      444        5     0.00000    9.32050    1.12807    4.22142
     134      444        5     0.00000    9.97703    2.39891    3.10347
     135      444        5     0.00000    7.55128    2.54007    4.79645
     136      444        5     0.00000    9.00089    3.36792    4.99847
     137      444        6     0.00000   10.57489    8.32702    5.95720
     138      444        7     0.00000   10.91098    9.38797    6.90551
     139      444        5     0.00000   11.36480    7.54614    6.01744
     140      444        5     0.00000   10.56679    8.76718    4.93666
     141      444        5     0.00000   11.06409    8.96305    7.84951
     142      444        5     0.00000   11.81833    9.81810    6.61357
     143      444        6     0.00000    9.59454    4.32656    3.52193
     144      444        7     0.00000   10.25390    3.23745    4.24090
     145      444        5     0.00000    8.63422    3.94055    3.11430
     146      444        5     0.00000    9.38714    5.14241    4.24766
     147      444        5     0.00000   10.32568    2.40750    3.60752
     148      444        5     0.00000    9.64735    2.95622    5.04497

Bonds

       1        1        1        4
       2        1        1        6
       3        1        1        8
       4        1        1       10
       5        2        1       11
       6        2        1       13
       7        1        2        5
       8        1        2        7
       9        2        2       14
      10        1        2       54
      11        1        2       60
      12        2        2       63
      13        3        3       50
      14        1        3       53
      15        3        4       51
      16        3        5       48
      17        3        6       49
      18        3        7       99
      19        3        8       51
      20        1        9       53
      21        3        9       97
      22        3       10       49
      23        4       11       32
      24        4       11       35
      25        4       12       33
      26        4       12       36
      27        2       12       53
      28        4       13       29
      29        4       13       39
      30        4       14       30
      31        4       14       40
      32        6       15       17
      33        5       15       19
      34        5       15       32
      35        5       16       20
      36        5       16       33
      37        6       16       69
      38        6       18       67
      39        5       19       21
      40        7       19       48
      41        5       20       22
      42        7       20       49
      43        5       21       35
      44        6       21       74
      45        6       22       24
      46        5       22       36
      47        6       23       72
      48        6       25       27
      49        5       25       29
      50        5       25       46
      51        5       26       30
      52        5       26       47
      53        6       26       79
      54        6       28       77
      55        8       29      113
      56        6       30       82
      57        6       31       81
      58        8       32      101
      59        8       33      107
      60        6       34       84
      61        6       35       37
      62        6       36       38
      63        6       39       41
      64        5       39       42
      65        5       40       43
      66        8       40      119
      67        5       42       46
      68        6       42       93
      69        6       43       45
      70        5       43       47
      71        6       44       91
      72        7       46       50
      73        7       47       51
      74        3       48       60
      75        3       50       58
      76        1       52       55
      77        1       52       57
      78        1       52       59
      79        1       52       61
      80        2       52       62
      81        2       52       64
      82        1       53       56
      83        1       53       58
      84        2       53       65
      85        3       54       99
      86        3       55      100
      87        3       56       97
      88        3       57       98
      89        3       59      100
      90        3       61       98
      91        4       62       83
      92        4       62       86
      93        4       63       84
      94        4       63       87
      95        4       64       80
      96        4       64       88
      97        4       65       81
      98        4       65       89
      99        6       66       68
     100        5       66       70
     101        5       66       83
     102        5       67       71
     103        5       67       84
     104        5       70       72
     105        7       70       97
     106        5       71       73
     107        7       71       98
     108        5       72       86
     109        6       73       75
     110        5       73       87
     111        6       76       78
     112        5       76       80
     113        5       76       95
     114        5       77       81
     115        5       77       96
     116        8       80      137
     117        6       83       85
     118        8       86      125
     119        8       87      131
     120        6       88       90
     121        5       88       91
     122        5       89       92
     123        8       89      143
     124        5       91       95
     125        6       92       94
     126        5       92       96
     127        7       95       99
     128        7       96      100
     129        9      101      102
     130       10      101      103
     131       10      101      104
     132       11      102      105
     133       11      102      106
     134        9      107      108
     135       10      107      109
     136       10      107      110
     137       11      108      111
     138       11      108      112
     139        9      113      114
     140       10      113      115
     141       10      113      116
     142       11      114      117
     143       11      114      118
     144        9      119      120
     145       10      119      121
     146       10      119      122
     147       11      120      123
     148       11      120      124
     149        9      125      126
     150       10      125      127
     151       10      125      128
     152       11      126      129
     153       11      126      130
     154        9      131      132
     155       10      131      133
     156       10      131      134
     157       11      132      135
     158       11      132      136
     159        9      137      138
     160       10      137      139
     161       10      137      140
     162       11      138      141
     163       11      138      142
     164        9      143      144
     165       10      143      145
     166       10      143      146
     167       11      144      147
     168       11      144      148

Angles

       1        1        4        1        6
       2        1        4        1        8
       3        1        4        1       10
       4        2        4        1       11
       5        2        4        1       13
       6        1        6        1        8
       7        1        6        1       10
       8        2        6        1       11
       9        2        6        1       13
      10        1        8        1       10
      11        2        8        1       11
      12        2        8        1       13
      13        2       10        1       11
      14        2       10        1       13
      15        3       11        1       13
      16        2       14        2        5
      17        2       14        2        7
      18        2       14        2       54
      19        2       14        2       60
      20        3       14        2       63
      21        1        5        2        7
      22        1        5        2       54
      23        1        5        2       60
      24        2        5        2       63
      25        1        7        2       54
      26        1        7        2       60
      27        2        7        2       63
      28        1       54        2       60
      29        2       54        2       63
      30        2       60        2       63
      31        4       50        3       53
      32        4        1        4       51
      33        4        2        5       48
      34        4        1        6       49
      35        4        2        7       99
      36        4        1        8       51
      37        4       53        9       97
      38        4        1       10       49
      39        5        1       11       32
      40        5        1       11       35
      41        6       32       11       35
      42        6       33       12       36
      43        5       33       12       53
      44        5       36       12       53
      45        5        1       13       29
      46        5        1       13       39
      47        6       29       13       39
      48        5        2       14       30
      49        5        2       14       40
      50        6       30       14       40
      51        7       19       15       17
      52        8       19       15       32
      53        7       17       15       32
      54        8       20       16       33
      55        7       20       16       69
      56        7       33       16       69
      57        8       15       19       21
      58        9       15       19       48
      59        9       21       19       48
      60        8       16       20       22
      61        9       16       20       49
      62        9       22       20       49
      63        8       19       21       35
      64        7       19       21       74
      65        7       35       21       74
      66        8       20       22       36
      67        7       20       22       24
      68        7       36       22       24
      69        8       29       25       46
      70        7       29       25       27
      71        7       46       25       27
      72        8       30       26       47
      73        7       30       26       79
      74        7       47       26       79
      75       10       13       29       25
      76       11       13       29      113
      77       12       25       29      113
      78       10       14       30       26
      79       13       14       30       82
      80        7       26       30       82
      81       10       11       32       15
      82       11       11       32      101
      83       12       15       32      101
      84       10       12       33       16
      85       11       12       33      107
      86       12       16       33      107
      87       10       21       35       11
      88        7       21       35       37
      89       13       11       35       37
      90       10       12       36       22
      91       13       12       36       38
      92        7       22       36       38
      93       10       13       39       42
      94       13       13       39       41
      95        7       42       39       41
      96       10       14       40       43
      97       11       14       40      119
      98       12       43       40      119
      99        8       39       42       46
     100        7       39       42       93
     101        7       46       42       93
     102        8       40       43       47
     103        7       40       43       45
     104        7       47       43       45
     105        8       25       46       42
     106        9       25       46       50
     107        9       42       46       50
     108        8       26       47       43
     109        9       26       47       51
     110        9       43       47       51
     111       14        5       48       19
     112       15        5       48       60
     113       14       19       48       60
     114       14       10       49       20
     115       15       10       49        6
     116       14       20       49        6
     117       14        3       50       46
     118       15        3       50       58
     119       14       46       50       58
     120       14        8       51       47
     121       15        8       51        4
     122       14       47       51        4
     123        1       55       52       57
     124        1       55       52       59
     125        1       55       52       61
     126        2       55       52       62
     127        2       55       52       64
     128        1       57       52       59
     129        1       57       52       61
     130        2       57       52       62
     131        2       57       52       64
     132        1       59       52       61
     133        2       59       52       62
     134        2       59       52       64
     135        2       61       52       62
     136        2       61       52       64
     137        3       62       52       64
     138        2        9       53       12
     139        1        9       53       56
     140        1        9       53        3
     141        1        9       53       58
     142        2        9       53       65
     143        2       12       53       56
     144        2       12       53        3
     145        2       12       53       58
     146        3       12       53       65
     147        1       56       53        3
     148        1       56       53       58
     149        2       56       53       65
     150        1        3       53       58
     151        2        3       53       65
     152        2       58       53       65
     153        4        2       54       99
     154        4       52       55      100
     155        4       53       56       97
     156        4       52       57       98
     157        4       50       58       53
     158        4       52       59      100
     159        4        2       60       48
     160        4       52       61       98
     161        5       52       62       83
     162        5       52       62       86
     163        6       83       62       86
     164        5        2       63       87
     165        5        2       63       84
     166        6       87       63       84
     167        5       52       64       80
     168        5       52       64       88
     169        6       80       64       88
     170        6       81       65       89
     171        5       81       65       53
     172        5       89       65       53
     173        7       70       66       68
     174        8       70       66       83
     175        7       68       66       83
     176        7       71       67       18
     177        8       71       67       84
     178        7       18       67       84
     179        9       66       70       97
     180        8       66       70       72
     181        9       97       70       72
     182        8       67       71       73
     183        9       67       71       98
     184        9       73       71       98
     185        7       86       72       23
     186        8       86       72       70
     187        7       23       72       70
     188        7       71       73       75
     189        8       71       73       87
     190        7       75       73       87
     191        8       80       76       95
     192        7       80       76       78
     193        7       95       76       78
     194        7       81       77       28
     195        8       81       77       96
     196        7       28       77       96
     197       10       64       80       76
     198       11       64       80      137
     199       12       76       80      137
     200       10       65       81       77
     201       13       65       81       31