Created on Wed Aug 12 10:47:03 2020 

         148 atoms
         168 bonds
         316 angles
         352 dihedrals
         192 impropers

           7 atom types
          11 bond types
          20 angle types
           5 dihedral types
           1 improper types
           0.000000  12.505600 xlo xhi
           0.000000  12.523400 ylo yhi
           0.000000  10.274279 zlo zhi
           0.000000  -0.227594   0.000000 xy xz yz

Masses

    1    58.693400000 # Ni4+2
    2    15.999400000 # O_R
    3    14.006700000 # N_R
    4    12.010700000 # C_R
    5     1.007940000 # H_
    6    12.010700000 # C_3
    7    14.006700000 # N_3

Bond Coeffs

    1      321.720028        1.793457  # Ni4+2 O_R
    2      328.673665        1.841585  # Ni4+2 N_R
    3      646.680887        1.311940  # O_R C_R
    4      663.718927        1.345073  # N_R C_R
    5      462.655054        1.379256  # C_R C_R
    6      369.943935        1.486000  # C_R C_3
    7      391.669513        1.458000  # C_R C_R
    8      357.440381        1.081418  # C_R H_
    9      528.634538        1.451071  # C_3 N_3
   10      331.069389        1.109401  # C_3 H_
   11      527.945261        1.044419  # N_3 H_

Angle Coeffs

    1              cosine/periodic      322.980216               1               4 # O_R Ni4+2 O_R
    2              cosine/periodic      343.030950               1               4 # O_R Ni4+2 N_R
    3              cosine/periodic      364.965660               1               4 # N_R Ni4+2 N_R
    4              cosine/periodic      238.346347              -1               3 # C_R O_R Ni4+2
    5              cosine/periodic      177.809033              -1               3 # Ni4+2 N_R C_R
    6              cosine/periodic      240.001032              -1               3 # C_R N_R C_R
    7              cosine/periodic      222.595017              -1               3 # C_R C_R C_R
    8              cosine/periodic      198.274298              -1               3 # C_R C_R C_3
    9              cosine/periodic      204.366560              -1               3 # C_R C_R C_R
   10              cosine/periodic      114.578032              -1               3 # C_R C_R H_
   11              cosine/periodic      307.398705              -1               3 # N_R C_R C_R
   12              cosine/periodic      159.573934              -1               3 # N_R C_R H_
   13              cosine/periodic      263.511421              -1               3 # O_R C_R C_R
   14              cosine/periodic      374.272657              -1               3 # O_R C_R O_R
   15                      fourier      312.235112        0.343737        0.374972        0.281246 # N_3 C_3 C_R
   16                      fourier      169.780468        0.343737        0.374972        0.281246 # N_3 C_3 H_
   17                      fourier      121.777217        0.343737        0.374972        0.281246 # C_R C_3 H_
   18                      fourier       75.498766        0.343737        0.374972        0.281246 # H_ C_3 H_
   19                      fourier      144.695053        0.317506        0.313225        0.272502 # C_3 N_3 H_
   20                      fourier       97.017167        0.317506        0.313225        0.272502 # H_ N_3 H_

Dihedral Coeffs

    1        2.245703              -1               2 # Ni4+2 O_R C_R C_R
    2        1.497136              -1               2 # Ni4+2 N_R C_R C_R
    3        0.083333               1               3 # C_R C_R C_3 N_3
    4        0.555556              -1               2 # C_R C_R C_R O_R
    5        0.040687               1               3 # C_R C_3 N_3 H_

Improper Coeffs

    1        2.000000        1.000000       -1.000000        0.000000               0 # Ni4+2 N_R C_R C_R

Pair Coeffs

    1        0.015000        2.524807 # Ni4+2 Ni4+2
    2        0.060000        3.118146 # O_R O_R
    3        0.069000        3.260689 # N_R N_R
    4        0.105000        3.430851 # C_R C_R
    5        0.044000        2.571134 # H_ H_
    6        0.105000        3.430851 # C_3 C_3
    7        0.069000        3.260689 # N_3 N_3

Atoms

       1      444        1     0.00000    2.89857    9.41116    8.59265
       2      444        1     0.00000    6.17525    3.10579    3.48481
       3      444        2     0.00000    1.44827    4.35425    3.93374
       4      444        2     0.00000    4.44160    8.15245    9.05464
       5      444        2     0.00000    4.63665    1.84729    3.87523
       6      444        2     0.00000    1.36499   10.67435    9.00295
       7      444        2     0.00000    5.80609    4.46033    4.96242
       8      444        2     0.00000    2.54244    8.03270   10.06753
       9      444        2     0.00000    0.25117    1.69264    4.94273
      10      444        2     0.00000    3.23722   10.80466   10.06262
      11      444        3     0.00000    3.69677   10.66058    7.24160
      12      444        3     0.00000    0.71256    1.86420    2.11704
      13      444        3     0.00000    2.17217    8.14409    7.25198
      14      444        3     0.00000    5.44023    4.39481    2.13747
      15      444        4     0.00000    3.48546   12.14832    5.36301
      16      444        4     0.00000    0.47488    0.38955    0.22920
      17      444        4     0.00000    4.76073    0.14740    5.61481
      18      444        4     0.00000    1.74333   12.36991    0.47412
      19      444        4     0.00000    5.50345   12.15023    6.68209
      20      444        4     0.00000    2.49852    0.35508    1.54004
      21      444        5     0.00000    3.49155   12.50668    1.77336
      22      444        4     0.00000    2.48363    6.63370    5.40822
      23      444        4     0.00000    5.72803    5.90364    0.28669
      24      444        5     0.00000    3.13294    6.27291    4.61605
      25      444        4     0.00000    2.92756    7.68099    6.23068
      26      444        4     0.00000    6.18830    4.86756    1.11596
      27      444        5     0.00000    3.89994    8.14655    6.08890
      28      444        5     0.00000    0.91589    4.41889    0.97634
      29      444        4     0.00000    2.98256   11.13588    6.19748
      30      444        4     0.00000   -0.01036    1.40553    1.07106
      31      444        5     0.00000    1.99392   10.70905    6.04703
      32      444        5     0.00000    5.26093    1.85011    0.92351
      33      444        4     0.00000    4.93641   11.13810    7.47507
      34      444        4     0.00000    1.94823    1.37190    2.34060
      35      444        5     0.00000    5.48559   10.70967    8.30944
      36      444        5     0.00000    2.50886    1.79214    3.17267
      37      444        4     0.00000    0.94573    7.62654    7.47302
      38      444        4     0.00000    4.21083    4.90458    2.35686
      39      444        5     0.00000    0.36328    8.05184    8.28732
      40      444        5     0.00000    3.63605    4.47744    3.17528
      41      444        4     0.00000    0.43859    6.57577    6.69176
      42      444        4     0.00000    3.68763    5.94500    1.56944
      43      444        5     0.00000    2.69824    6.32683    1.80071
      44      444        4     0.00000    1.22745    6.06471    5.65205
      45      444        4     0.00000    4.46338    6.45777    0.52027
      46      444        4     0.00000    5.31260    1.24381    4.79419
      47      444        4     0.00000    2.05020   11.26755    9.92158
      48      444        4     0.00000    0.73548    4.94016    4.83586
      49      444        4     0.00000    3.73174    7.56629    9.95688
      50      444        1     0.00000    9.15137    9.41116    8.59265
      51      444        1     0.00000   12.42805    3.10579    3.48481
      52      444        2     0.00000    7.70109    4.35425    3.93374
      53      444        2     0.00000   10.69440    8.15245    9.05464
      54      444        2     0.00000   10.88945    1.84729    3.87523
      55      444        2     0.00000    7.61779   10.67435    9.00295
      56      444        2     0.00000   12.05889    4.46033    4.96242
      57      444        2     0.00000    8.79524    8.03270   10.06753
      58      444        2     0.00000    6.50397    1.69264    4.94273
      59      444        2     0.00000    9.49002   10.80466   10.06262
      60      444        3     0.00000    9.94957   10.66058    7.24160
      61      444        3     0.00000    6.96536    1.86420    2.11704
      62      444        3     0.00000    8.42499    8.14409    7.25198
      63      444        3     0.00000   11.69303    4.39481    2.13747
      64      444        4     0.00000    9.73826   12.14832    5.36301
      65      444        4     0.00000    6.72768    0.38955    0.22920
      66      444        5     0.00000    9.11733   12.51808    4.55267
      67      444        4     0.00000   11.01353    0.14740    5.61481
      68      444        4     0.00000    7.99613   12.36991    0.47412
      69      444        4     0.00000   11.75625   12.15023    6.68209
      70      444        4     0.00000    8.75132    0.35508    1.54004
      71      444        5     0.00000    6.50047   12.50843    6.91993
      72      444        5     0.00000    9.74435   12.50668    1.77336
      73      444        4     0.00000    8.73644    6.63370    5.40822
      74      444        4     0.00000   11.98084    5.90364    0.28669
      75      444        5     0.00000    9.38574    6.27291    4.61605
      76      444        4     0.00000    9.18036    7.68099    6.23068
      77      444        4     0.00000   12.44110    4.86756    1.11596
      78      444        5     0.00000   10.15274    8.14655    6.08890
      79      444        5     0.00000    7.16869    4.41889    0.97634
      80      444        4     0.00000    9.23536   11.13588    6.19748
      81      444        4     0.00000    6.24244    1.40553    1.07106
      82      444        5     0.00000    8.24672   10.70905    6.04703
      83      444        5     0.00000   11.51373    1.85011    0.92351
      84      444        4     0.00000   11.18921   11.13810    7.47507
      85      444        4     0.00000    8.20102    1.37190    2.34060
      86      444        5     0.00000   11.73839   10.70967    8.30944
      87      444        5     0.00000    8.76167    1.79214    3.17267
      88      444        4     0.00000    7.19853    7.62654    7.47302
      89      444        4     0.00000   10.46363    4.90458    2.35686
      90      444        5     0.00000    6.61608    8.05184    8.28732
      91      444        5     0.00000    9.88885    4.47744    3.17528
      92      444        4     0.00000    6.69139    6.57577    6.69176
      93      444        4     0.00000    9.94043    5.94500    1.56944
      94      444        5     0.00000    8.95104    6.32683    1.80071
      95      444        4     0.00000    7.48025    6.06471    5.65205
      96      444        4     0.00000   10.71618    6.45777    0.52027
      97      444        4     0.00000   11.56540    1.24381    4.79419
      98      444        4     0.00000    8.30300   11.26755    9.92158
      99      444        4     0.00000    6.98827    4.94016    4.83586
     100      444        4     0.00000    9.98454    7.56629    9.95688
     101      444        6     0.00000    2.62422    0.13747    4.19751
     102      444        7     0.00000    1.33358   11.98468    4.07571
     103      444        5     0.00000    3.17967   12.52053    3.24401
     104      444        5     0.00000    2.43189    1.22036    4.35774
     105      444        5     0.00000    1.49639   10.99354    3.78197
     106      444        5     0.00000    0.78955   12.44450    3.31015
     107      444        6     0.00000   11.88353   12.42522    9.33361
     108      444        7     0.00000   10.58432    0.56686    9.24653
     109      444        5     0.00000   11.70625   11.33237    9.44154
     110      444        5     0.00000   -0.07182    0.09574    8.38758
     111      444        5     0.00000    9.99910    0.27620   10.06395
     112      444        5     0.00000   10.09600    0.22866    8.38590
     113      444        6     0.00000   11.54599    6.01763    6.98965
     114      444        7     0.00000   10.88366    6.66088    8.12340
     115      444        5     0.00000   11.62590    4.92970    7.20741
     116      444        5     0.00000   10.91222    6.16920    6.08928
     117      444        5     0.00000   11.39135    6.40563    9.00217
     118      444        5     0.00000    9.91628    6.27246    8.20594
     119      444        6     0.00000    6.39799    6.40785    9.41827
     120      444        7     0.00000    7.67209    5.69849    9.31187
     121      444        5     0.00000    5.85744    6.29491    8.45264
     122      444        5     0.00000    6.61625    7.48296    9.59659
     123      444        5     0.00000    7.48837    4.71600    9.00185
     124      444        5     0.00000    8.24293    6.15318    8.56293
     125      444        6     0.00000    0.66185    0.13793    7.00529
     126      444        7     0.00000    1.28912   11.98492    8.13966
     127      444        5     0.00000    1.31370   12.52059    6.11497
     128      444        5     0.00000    0.59242    1.22088    7.24556
     129      444        5     0.00000    1.49279   10.99365    7.87308
     130      444        5     0.00000    2.20858   12.44429    8.33222
     131      444        6     0.00000    5.63073   12.42522    9.33361
     132      444        7     0.00000    4.33152    0.56686    9.24653
     133      444        5     0.00000    5.45345   11.33237    9.44154
     134      444        5     0.00000    6.18098    0.09574    8.38758
     135      444        5     0.00000    3.74630    0.27620   10.06395
     136      444        5     0.00000    3.84320    0.22866    8.38590
     137      444        6     0.00000    5.29638    6.01237    6.99466
     138      444        7     0.00000    4.61593    6.68552    8.09995
     139      444        5     0.00000    4.65960    6.10675    6.08748
     140      444        5     0.00000    5.40538    4.93862    7.26014
     141      444        5     0.00000    4.37727    7.66149    7.80725
     142      444        5     0.00000    3.71226    6.19199    8.28251
     143      444        6     0.00000    0.14520    6.40785    9.41828
     144      444        7     0.00000    1.41930    5.69850    9.31188
     145      444        5     0.00000   12.11025    6.29492    8.45265
     146      444        5     0.00000    0.36346    7.48297    9.59661
     147      444        5     0.00000    1.23560    4.71601    9.00186
     148      444        5     0.00000    1.99014    6.15320    8.56295

Bonds

       1        1        1        4
       2        1        1        6
       3        1        1        8
       4        1        1       10
       5        2        1       11
       6        2        1       13
       7        1        2        5
       8        1        2        7
       9        2        2       14
      10        1        2       52
      11        1        2       58
      12        2        2       61
      13        3        3       48
      14        1        3       51
      15        3        4       49
      16        3        5       46
      17        3        6       47
      18        3        7       99
      19        3        8       49
      20        1        9       51
      21        3        9       97
      22        3       10       47
      23        4       11       29
      24        4       11       33
      25        4       12       30
      26        4       12       34
      27        2       12       51
      28        4       13       25
      29        4       13       37
      30        4       14       26
      31        4       14       38
      32        5       15       17
      33        5       15       29
      34        6       15      101
      35        5       16       18
      36        5       16       30
      37        6       16      107
      38        5       17       19
      39        7       17       46
      40        5       18       20
      41        7       18       47
      42        5       19       33
      43        8       19       71
      44        8       20       21
      45        5       20       34
      46        8       22       24
      47        5       22       25
      48        5       22       44
      49        5       23       26
      50        5       23       45
      51        6       23      119
      52        8       25       27
      53        8       26       79
      54        8       28       77
      55        8       29       31
      56        8       30       83
      57        8       32       81
      58        8       33       35
      59        8       34       36
      60        8       37       39
      61        5       37       41
      62        8       38       40
      63        5       38       42
      64        5       41       44
      65        6       41      113
      66        8       42       43
      67        5       42       45
      68        7       44       48
      69        7       45       49
      70        3       46       58
      71        3       48       56
      72        1       50       53
      73        1       50       55
      74        1       50       57
      75        1       50       59
      76        2       50       60
      77        2       50       62
      78        1       51       54
      79        1       51       56
      80        2       51       63
      81        3       52       99
      82        3       53      100
      83        3       54       97
      84        3       55       98
      85        3       57      100
      86        3       59       98
      87        4       60       80
      88        4       60       84
      89        4       61       81
      90        4       61       85
      91        4       62       76
      92        4       62       88
      93        4       63       77
      94        4       63       89
      95        8       64       66
      96        5       64       67
      97        5       64       80
      98        5       65       68
      99        5       65       81
     100        6       65      131
     101        5       67       69
     102        7       67       97
     103        5       68       70
     104        7       68       98
     105        5       69       84
     106        6       69      125
     107        8       70       72
     108        5       70       85
     109        8       73       75
     110        5       73       76
     111        5       73       95
     112        5       74       77
     113        5       74       96
     114        6       74      143
     115        8       76       78
     116        8       80       82
     117        8       84       86
     118        8       85       87
     119        8       88       90
     120        5       88       92
     121        8       89       91
     122        5       89       93
     123        5       92       95
     124        6       92      137
     125        8       93       94
     126        5       93       96
     127        7       95       99
     128        7       96      100
     129        9      101      102
     130       10      101      103
     131       10      101      104
     132       11      102      105
     133       11      102      106
     134        9      107      108
     135       10      107      109
     136       10      107      110
     137       11      108      111
     138       11      108      112
     139        9      113      114
     140       10      113      115
     141       10      113      116
     142       11      114      117
     143       11      114      118
     144        9      119      120
     145       10      119      121
     146       10      119      122
     147       11      120      123
     148       11      120      124
     149        9      125      126
     150       10      125      127
     151       10      125      128
     152       11      126      129
     153       11      126      130
     154        9      131      132
     155       10      131      133
     156       10      131      134
     157       11      132      135
     158       11      132      136
     159        9      137      138
     160       10      137      139
     161       10      137      140
     162       11      138      141
     163       11      138      142
     164        9      143      144
     165       10      143      145
     166       10      143      146
     167       11      144      147
     168       11      144      148

Angles

       1        1        4        1        6
       2        1        4        1        8
       3        1        4        1       10
       4        2        4        1       11
       5        2        4        1       13
       6        1        6        1        8
       7        1        6        1       10
       8        2        6        1       11
       9        2        6        1       13
      10        1        8        1       10
      11        2        8        1       11
      12        2        8        1       13
      13        2       10        1       11
      14        2       10        1       13
      15        3       11        1       13
      16        2       14        2        5
      17        2       14        2        7
      18        2       14        2       52
      19        2       14        2       58
      20        3       14        2       61
      21        1        5        2        7
      22        1        5        2       52
      23        1        5        2       58
      24        2        5        2       61
      25        1        7        2       52
      26        1        7        2       58
      27        2        7        2       61
      28        1       52        2       58
      29        2       52        2       61
      30        2       58        2       61
      31        4       48        3       51
      32        4        1        4       49
      33        4        2        5       46
      34        4        1        6       47
      35        4        2        7       99
      36        4        1        8       49
      37        4       51        9       97
      38        4        1       10       47
      39        5        1       11       29
      40        5        1       11       33
      41        6       29       11       33
      42        6       30       12       34
      43        5       30       12       51
      44        5       34       12       51
      45        5        1       13       25
      46        5        1       13       37
      47        6       25       13       37
      48        5        2       14       26
      49        5        2       14       38
      50        6       26       14       38
      51        7       17       15       29
      52        8       17       15      101
      53        8       29       15      101
      54        7       18       16       30
      55        8       18       16      107
      56        8       30       16      107
      57        7       15       17       19
      58        9       15       17       46
      59        9       19       17       46
      60        7       16       18       20
      61        9       16       18       47
      62        9       20       18       47
      63        7       17       19       33
      64       10       17       19       71
      65       10       33       19       71
      66        7       18       20       34
      67       10       18       20       21
      68       10       34       20       21
      69        7       25       22       44
      70       10       25       22       24
      71       10       44       22       24
      72        7       26       23       45
      73        8       26       23      119
      74        8       45       23      119
      75       11       13       25       22
      76       12       13       25       27
      77       10       22       25       27
      78       11       14       26       23
      79       12       14       26       79
      80       10       23       26       79
      81       11       11       29       15
      82       12       11       29       31
      83       10       15       29       31
      84       11       12       30       16
      85       12       12       30       83
      86       10       16       30       83
      87       11       19       33       11
      88       10       19       33       35
      89       12       11       33       35
      90       11       12       34       20
      91       12       12       34       36
      92       10       20       34       36
      93       11       13       37       41
      94       12       13       37       39
      95       10       41       37       39
      96       11       14       38       42
      97       12       14       38       40
      98       10       42       38       40
      99        7       37       41       44
     100        8       37       41      113
     101        8       44       41      113
     102        7       38       42       45
     103       10       38       42       43
     104       10       45       42       43
     105        7       22       44       41
     106        9       22       44       48
     107        9       41       44       48
     108        7       23       45       42
     109        9       23       45       49
     110        9       42       45       49
     111       13        5       46       17
     112       14        5       46       58
     113       13       17       46       58
     114       13       10       47       18
     115       14       10       47        6
     116       13       18       47        6
     117       13        3       48       44
     118       14        3       48       56
     119       13       44       48       56
     120       13        8       49       45
     121       14        8       49        4
     122       13       45       49        4
     123        1       53       50       55
     124        1       53       50       57
     125        1       53       50       59
     126        2       53       50       60
     127        2       53       50       62
     128        1       55       50       57
     129        1       55       50       59
     130        2       55       50       60
     131        2       55       50       62
     132        1       57       50       59
     133        2       57       50       60
     134        2       57       50       62
     135        2       59       50       60
     136        2       59       50       62
     137        3       60       50       62
     138        2        9       51       12
     139        1        9       51       54
     140        1        9       51        3
     141        1        9       51       56
     142        2        9       51       63
     143        2       12       51       54
     144        2       12       51        3
     145        2       12       51       56
     146        3       12       51       63
     147        1       54       51        3
     148        1       54       51       56
     149        2       54       51       63
     150        1        3       51       56
     151        2        3       51       63
     152        2       56       51       63
     153        4        2       52       99
     154        4       50       53      100
     155        4       51       54       97
     156        4       50       55       98
     157        4       48       56       51
     158        4       50       57      100
     159        4        2       58       46
     160        4       50       59       98
     161        5       50       60       80
     162        5       50       60       84
     163        6       80       60       84
     164        5        2       61       85
     165        5        2       61       81
     166        6       85       61       81
     167        5       50       62       76
     168        5       50       62       88
     169        6       76       62       88
     170        5       89       63       51
     171        6       89       63       77
     172        5       51       63       77
     173       10       67       64       66
     174        7       67       64       80
     175       10       66       64       80
     176        7       68       65       81
     177        8       68       65      131
     178        8       81       65      131
     179        7       64       67       69
     180        9       64       67       97
     181        9       69       67       97
     182        7       65       68       70
     183        9       65       68       98
     184        9       70       68       98
     185        7       67       69       84
     186        8       67       69      125
     187        8       84       69      125
     188        7       68       70       85
     189       10       68       70       72
     190       10       85       70       72
     191        7       76       73       95
     192       10       76       73       75
     193       10       95       73       75
     194        7       77       74       96
     195        8       77       74      143
     196        8       96       74      143
     197       11       62       76       73
     198       12       62       76       78
     199       10       73       76       78
     200       10       74       77       28
     201       11       74       77       63
     202       12       28       77       63
     203       11       60       80       64