units           real
atom_style      full
boundary        p p p

pair_style      lj/cut 5.000
bond_style      harmonic
angle_style     hybrid cosine/periodic fourier
dihedral_style  harmonic
improper_style  fourier

dielectric      1.0
special_bonds   lj/coul 0.0 0.0 1.0
pair_modify     tail yes mix arithmetic
box tilt        large
read_data       data.NiPyC2_relax_sc211_meta_functionalized_CH2-NH2
  triclinic box = (0 0 0) to (12.5056 12.5234 10.2743) with tilt (0 -0.227594 0)
  1 by 1 by 1 MPI processor grid
  reading atoms ...
  148 atoms
  scanning bonds ...
  6 = max bonds/atom
  scanning angles ...
  15 = max angles/atom
  scanning dihedrals ...
  14 = max dihedrals/atom
  scanning impropers ...
  3 = max impropers/atom
  reading bonds ...
  168 bonds
  reading angles ...
  316 angles
  reading dihedrals ...
  352 dihedrals
  reading impropers ...
  192 impropers
  6 = max # of 1-2 neighbors
  9 = max # of 1-3 neighbors
  12 = max # of special neighbors
  special bonds CPU = 9.7881e-05 secs
  read_data CPU = 0.00728549 secs

#### Atom Groupings ####
group           fram     id   1:148
148 atoms in group fram
#### END Atom Groupings ####

dump            NiPyC2_relax_sc211_meta_functionalized_CH2-NH2_xyzmov all xyz 20000 NiPyC2_relax_sc211_meta_functionalized_CH2-NH2_mov.xyz
dump_modify     NiPyC2_relax_sc211_meta_functionalized_CH2-NH2_xyzmov element Ni O N C H C N
min_style       cg
print           "MinStep,CellMinStep,AtomMinStep,FinalStep,Energy,EDiff" file NiPyC2_relax_sc211_meta_functionalized_CH2-NH2.min.csv screen no
variable        min_eval   equal 1.00e-06
variable        prev_E     equal 50000.00
variable        iter       loop 100000
label           loop_min
min_style       cg
fix             1 all box/relax aniso 0.0 vmax 0.01
minimize        1.0e-15 1.0e-15 10000 100000
WARNING: Using 'neigh_modify every 1 delay 0 check yes' setting during minimization (src/min.cpp:190)
Neighbor list info ...
  update every 1 steps, delay 0 steps, check yes
  max neighbors/atom: 2000, page size: 100000
  master list distance cutoff = 7
  ghost atom cutoff = 7
  binsize = 3.5, bins = 4 4 3
  1 neighbor lists, perpetual/occasional/extra = 1 0 0
  (1) pair lj/cut, perpetual
      attributes: half, newton on
      pair build: half/bin/newton/tri
      stencil: half/bin/3d/newton/tri
      bin: standard
WARNING: Inconsistent image flags (src/domain.cpp:785)
WARNING: Bond/angle/dihedral extent > half of periodic box length (src/domain.cpp:906)
Per MPI rank memory allocation (min/avg/max) = 18.78 | 18.78 | 18.78 Mbytes
Step Temp E_pair E_mol TotEng Press Volume 
       0            0    72706.491    2241.4141    74947.905     12364220    1609.0819 
     306            0    162.94789    1651.9781     1814.926    2766.6295    1546.1479 
WARNING: Bond/angle/dihedral extent > half of periodic box length (src/domain.cpp:906)
Loop time of 0.120884 on 1 procs for 306 steps with 148 atoms

99.9% CPU use with 1 MPI tasks x 1 OpenMP threads

Minimization stats:
  Stopping criterion = linesearch alpha is zero
  Energy initial, next-to-last, final = 
         74947.9054977       1814.9259651       1814.9259651
  Force two-norm initial, final = 1.04793e+06 123.541
  Force max component initial, final = 504521 85.1931
  Final line search alpha, max atom move = 4.81687e-13 4.10364e-11
  Iterations, force evaluations = 306 590

MPI task timing breakdown:
Section |  min time  |  avg time  |  max time  |%varavg| %total
---------------------------------------------------------------
Pair    | 0.060286   | 0.060286   | 0.060286   |   0.0 | 49.87
Bond    | 0.039256   | 0.039256   | 0.039256   |   0.0 | 32.47
Neigh   | 0.0057982  | 0.0057982  | 0.0057982  |   0.0 |  4.80
Comm    | 0.0034886  | 0.0034886  | 0.0034886  |   0.0 |  2.89
Output  | 0          | 0          | 0          |   0.0 |  0.00
Modify  | 0          | 0          | 0          |   0.0 |  0.00
Other   |            | 0.01205    |            |       |  9.97

Nlocal:    148 ave 148 max 148 min
Histogram: 1 0 0 0 0 0 0 0 0 0
Nghost:    1444 ave 1444 max 1444 min
Histogram: 1 0 0 0 0 0 0 0 0 0
Neighs:    9666 ave 9666 max 9666 min
Histogram: 1 0 0 0 0 0 0 0 0 0

Total # of neighbors = 9666
Ave neighs/atom = 65.3108
Ave special neighs/atom = 6.32432
Neighbor list builds = 9
Dangerous builds = 0
unfix           1
min_style       fire
variable        tempstp    equal $(step)
variable        tempstp    equal 306
variable        CellMinStep equal ${tempstp}
variable        CellMinStep equal 306
minimize        1.0e-15 1.0e-15 10000 100000
WARNING: Using 'neigh_modify every 1 delay 0 check yes' setting during minimization (src/min.cpp:190)
  Parameters for fire: 
    dmax delaystep dtgrow dtshrink alpha0 alphashrink tmax tmin    integrator halfstepback 
     0.1        20    1.1      0.5   0.25        0.99   10 0.02 eulerimplicit          yes 
WARNING: Inconsistent image flags (src/domain.cpp:785)
WARNING: Bond/angle/dihedral extent > half of periodic box length (src/domain.cpp:906)
Per MPI rank memory allocation (min/avg/max) = 17.66 | 17.66 | 17.66 Mbytes
Step Temp E_pair E_mol TotEng Press 
     306            0    162.94789    1651.9781     1814.926    2766.6295 
    5833 8.2237167e-11     112.2997    1625.8174    1738.1171   -11119.017 
WARNING: Bond/angle/dihedral extent > half of periodic box length (src/domain.cpp:906)
Loop time of 0.94615 on 1 procs for 5527 steps with 148 atoms

99.9% CPU use with 1 MPI tasks x 1 OpenMP threads

Minimization stats:
  Stopping criterion = energy tolerance
  Energy initial, next-to-last, final = 
          1814.9259651      1738.11709605      1738.11709605
  Force two-norm initial, final = 49.8677 3.54702e-05
  Force max component initial, final = 10.7513 8.0148e-06
  Final line search alpha, max atom move = 0 0
  Iterations, force evaluations = 5527 5527

MPI task timing breakdown:
Section |  min time  |  avg time  |  max time  |%varavg| %total
---------------------------------------------------------------
Pair    | 0.55565    | 0.55565    | 0.55565    |   0.0 | 58.73
Bond    | 0.3346     | 0.3346     | 0.3346     |   0.0 | 35.36
Neigh   | 0.0027711  | 0.0027711  | 0.0027711  |   0.0 |  0.29
Comm    | 0.030152   | 0.030152   | 0.030152   |   0.0 |  3.19
Output  | 0          | 0          | 0          |   0.0 |  0.00
Modify  | 0          | 0          | 0          |   0.0 |  0.00
Other   |            | 0.02297    |            |       |  2.43

Nlocal:    148 ave 148 max 148 min
Histogram: 1 0 0 0 0 0 0 0 0 0
Nghost:    1426 ave 1426 max 1426 min
Histogram: 1 0 0 0 0 0 0 0 0 0
Neighs:    9560 ave 9560 max 9560 min
Histogram: 1 0 0 0 0 0 0 0 0 0

Total # of neighbors = 9560
Ave neighs/atom = 64.5946
Ave special neighs/atom = 6.32432
Neighbor list builds = 4
Dangerous builds = 0
variable        AtomMinStep equal ${tempstp}
variable        AtomMinStep equal 306
variable        temppe     equal $(pe)
variable        temppe     equal 1738.1170960506385654
variable        min_E      equal abs(${prev_E}-${temppe})
variable        min_E      equal abs(50000-${temppe})
variable        min_E      equal abs(50000-1738.11709605064)
print           "${iter},${CellMinStep},${AtomMinStep},${AtomMinStep},$(pe),${min_E}" append NiPyC2_relax_sc211_meta_functionalized_CH2-NH2.min.csv screen no
if              "${min_E} < ${min_eval}" then "jump SELF break_min"
variable        prev_E     equal ${temppe}
variable        prev_E     equal 1738.11709605064
next            iter
jump            SELF loop_min
min_style       cg
fix             1 all box/relax aniso 0.0 vmax 0.01
minimize        1.0e-15 1.0e-15 10000 100000
WARNING: Using 'neigh_modify every 1 delay 0 check yes' setting during minimization (src/min.cpp:190)
WARNING: Inconsistent image flags (src/domain.cpp:785)
WARNING: Bond/angle/dihedral extent > half of periodic box length (src/domain.cpp:906)
Per MPI rank memory allocation (min/avg/max) = 18.78 | 18.78 | 18.78 Mbytes
Step Temp E_pair E_mol TotEng Press Volume 
    5833 8.2237167e-11     112.2997    1625.8174    1738.1171   -11119.017    1546.1479 
    5854 8.2237167e-11    126.86693    1608.2621     1735.129    81.892952    1534.3181 
WARNING: Bond/angle/dihedral extent > half of periodic box length (src/domain.cpp:906)
Loop time of 0.0194936 on 1 procs for 21 steps with 148 atoms

99.9% CPU use with 1 MPI tasks x 1 OpenMP threads

Minimization stats:
  Stopping criterion = linesearch alpha is zero
  Energy initial, next-to-last, final = 
         1738.11709605      1735.12904364      1735.12904364
  Force two-norm initial, final = 578.304 54.1734
  Force max component initial, final = 560.924 41.0198
  Final line search alpha, max atom move = 3.28755e-12 1.34855e-10
  Iterations, force evaluations = 21 95

MPI task timing breakdown:
Section |  min time  |  avg time  |  max time  |%varavg| %total
---------------------------------------------------------------
Pair    | 0.010522   | 0.010522   | 0.010522   |   0.0 | 53.98
Bond    | 0.0064415  | 0.0064415  | 0.0064415  |   0.0 | 33.04
Neigh   | 0          | 0          | 0          |   0.0 |  0.00
Comm    | 0.00054815 | 0.00054815 | 0.00054815 |   0.0 |  2.81
Output  | 0          | 0          | 0          |   0.0 |  0.00
Modify  | 0          | 0          | 0          |   0.0 |  0.00
Other   |            | 0.001982   |            |       | 10.17

Nlocal:    148 ave 148 max 148 min
Histogram: 1 0 0 0 0 0 0 0 0 0
Nghost:    1436 ave 1436 max 1436 min
Histogram: 1 0 0 0 0 0 0 0 0 0
Neighs:    9559 ave 9559 max 9559 min
Histogram: 1 0 0 0 0 0 0 0 0 0

Total # of neighbors = 9559
Ave neighs/atom = 64.5878
Ave special neighs/atom = 6.32432
Neighbor list builds = 0
Dangerous builds = 0
unfix           1
min_style       fire
variable        tempstp    equal $(step)
variable        tempstp    equal 5854
variable        CellMinStep equal ${tempstp}
variable        CellMinStep equal 5854
minimize        1.0e-15 1.0e-15 10000 100000
WARNING: Using 'neigh_modify every 1 delay 0 check yes' setting during minimization (src/min.cpp:190)
  Parameters for fire: 
    dmax delaystep dtgrow dtshrink alpha0 alphashrink tmax tmin    integrator halfstepback 
     0.1        20    1.1      0.5   0.25        0.99   10 0.02 eulerimplicit          yes 
WARNING: Inconsistent image flags (src/domain.cpp:785)
WARNING: Bond/angle/dihedral extent > half of periodic box length (src/domain.cpp:906)
Per MPI rank memory allocation (min/avg/max) = 17.66 | 17.66 | 17.66 Mbytes
Step Temp E_pair E_mol TotEng Press 
    5854            0    126.86693    1608.2621     1735.129    81.892952 
   10819 2.0717857e-10    122.11747    1611.5967    1733.7142   -1511.2986 
WARNING: Bond/angle/dihedral extent > half of periodic box length (src/domain.cpp:906)
Loop time of 0.857101 on 1 procs for 4965 steps with 148 atoms

99.8% CPU use with 1 MPI tasks x 1 OpenMP threads

Minimization stats:
  Stopping criterion = energy tolerance
  Energy initial, next-to-last, final = 
         1735.12904364      1733.71420467      1733.71420467
  Force two-norm initial, final = 23.3655 5.19129e-05
  Force max component initial, final = 7.14718 9.77835e-06
  Final line search alpha, max atom move = 0 0
  Iterations, force evaluations = 4965 4965

MPI task timing breakdown:
Section |  min time  |  avg time  |  max time  |%varavg| %total
---------------------------------------------------------------
Pair    | 0.5067     | 0.5067     | 0.5067     |   0.0 | 59.12
Bond    | 0.30181    | 0.30181    | 0.30181    |   0.0 | 35.21
Neigh   | 0          | 0          | 0          |   0.0 |  0.00
Comm    | 0.027706   | 0.027706   | 0.027706   |   0.0 |  3.23
Output  | 0          | 0          | 0          |   0.0 |  0.00
Modify  | 0          | 0          | 0          |   0.0 |  0.00
Other   |            | 0.02088    |            |       |  2.44

Nlocal:    148 ave 148 max 148 min
Histogram: 1 0 0 0 0 0 0 0 0 0
Nghost:    1446 ave 1446 max 1446 min
Histogram: 1 0 0 0 0 0 0 0 0 0
Neighs:    9639 ave 9639 max 9639 min
Histogram: 1 0 0 0 0 0 0 0 0 0

Total # of neighbors = 9639
Ave neighs/atom = 65.1284
Ave special neighs/atom = 6.32432
Neighbor list builds = 0
Dangerous builds = 0
variable        AtomMinStep equal ${tempstp}
variable        AtomMinStep equal 5854
variable        temppe     equal $(pe)
variable        temppe     equal 1733.7142046656479124
variable        min_E      equal abs(${prev_E}-${temppe})
variable        min_E      equal abs(1738.11709605064-${temppe})
variable        min_E      equal abs(1738.11709605064-1733.71420466565)
print           "${iter},${CellMinStep},${AtomMinStep},${AtomMinStep},$(pe),${min_E}" append NiPyC2_relax_sc211_meta_functionalized_CH2-NH2.min.csv screen no
if              "${min_E} < ${min_eval}" then "jump SELF break_min"
variable        prev_E     equal ${temppe}
variable        prev_E     equal 1733.71420466565
next            iter
jump            SELF loop_min
min_style       cg
fix             1 all box/relax aniso 0.0 vmax 0.01
minimize        1.0e-15 1.0e-15 10000 100000
WARNING: Using 'neigh_modify every 1 delay 0 check yes' setting during minimization (src/min.cpp:190)
WARNING: Inconsistent image flags (src/domain.cpp:785)
WARNING: Bond/angle/dihedral extent > half of periodic box length (src/domain.cpp:906)
Per MPI rank memory allocation (min/avg/max) = 18.78 | 18.78 | 18.78 Mbytes
Step Temp E_pair E_mol TotEng Press Volume 
   10819 2.0717857e-10    122.11747    1611.5967    1733.7142   -1511.2986    1534.3181 
   10822 2.0717857e-10    123.02125    1610.3112    1733.3325    -369.7452    1534.7516 
WARNING: Bond/angle/dihedral extent > half of periodic box length (src/domain.cpp:906)
Loop time of 0.0115204 on 1 procs for 3 steps with 148 atoms

99.9% CPU use with 1 MPI tasks x 1 OpenMP threads

Minimization stats:
  Stopping criterion = linesearch alpha is zero
  Energy initial, next-to-last, final = 
         1733.71420467      1733.33249546      1733.33249546
  Force two-norm initial, final = 228.164 27.962
  Force max component initial, final = 202.788 16.9773
  Final line search alpha, max atom move = 8.96911e-12 1.52271e-10
  Iterations, force evaluations = 3 57

MPI task timing breakdown:
Section |  min time  |  avg time  |  max time  |%varavg| %total
---------------------------------------------------------------
Pair    | 0.0062222  | 0.0062222  | 0.0062222  |   0.0 | 54.01
Bond    | 0.0037756  | 0.0037756  | 0.0037756  |   0.0 | 32.77
Neigh   | 0          | 0          | 0          |   0.0 |  0.00
Comm    | 0.00031711 | 0.00031711 | 0.00031711 |   0.0 |  2.75
Output  | 0          | 0          | 0          |   0.0 |  0.00
Modify  | 0          | 0          | 0          |   0.0 |  0.00
Other   |            | 0.001205   |            |       | 10.46

Nlocal:    148 ave 148 max 148 min
Histogram: 1 0 0 0 0 0 0 0 0 0
Nghost:    1444 ave 1444 max 1444 min
Histogram: 1 0 0 0 0 0 0 0 0 0
Neighs:    9661 ave 9661 max 9661 min
Histogram: 1 0 0 0 0 0 0 0 0 0

Total # of neighbors = 9661
Ave neighs/atom = 65.277
Ave special neighs/atom = 6.32432
Neighbor list builds = 0
Dangerous builds = 0
unfix           1
min_style       fire
variable        tempstp    equal $(step)
variable        tempstp    equal 10822
variable        CellMinStep equal ${tempstp}
variable        CellMinStep equal 10822
minimize        1.0e-15 1.0e-15 10000 100000
WARNING: Using 'neigh_modify every 1 delay 0 check yes' setting during minimization (src/min.cpp:190)
  Parameters for fire: 
    dmax delaystep dtgrow dtshrink alpha0 alphashrink tmax tmin    integrator halfstepback 
     0.1        20    1.1      0.5   0.25        0.99   10 0.02 eulerimplicit          yes 
WARNING: Inconsistent image flags (src/domain.cpp:785)
WARNING: Bond/angle/dihedral extent > half of periodic box length (src/domain.cpp:906)
Per MPI rank memory allocation (min/avg/max) = 17.66 | 17.66 | 17.66 Mbytes
Step Temp E_pair E_mol TotEng Press 
   10822            0    123.02125    1610.3112    1733.3325    -369.7452 
   14231 9.7755064e-11    123.06831    1609.9006    1732.9689    -557.5442 
WARNING: Bond/angle/dihedral extent > half of periodic box length (src/domain.cpp:906)
Loop time of 0.583138 on 1 procs for 3409 steps with 148 atoms

99.9% CPU use with 1 MPI tasks x 1 OpenMP threads

Minimization stats:
  Stopping criterion = energy tolerance
  Energy initial, next-to-last, final = 
         1733.33249546      1732.96891774      1732.96891774
  Force two-norm initial, final = 21.5114 3.81764e-05
  Force max component initial, final = 3.51988 6.8966e-06
  Final line search alpha, max atom move = 0 0
  Iterations, force evaluations = 3409 3409

MPI task timing breakdown:
Section |  min time  |  avg time  |  max time  |%varavg| %total
---------------------------------------------------------------
Pair    | 0.34473    | 0.34473    | 0.34473    |   0.0 | 59.12
Bond    | 0.20551    | 0.20551    | 0.20551    |   0.0 | 35.24
Neigh   | 0          | 0          | 0          |   0.0 |  0.00
Comm    | 0.018587   | 0.018587   | 0.018587   |   0.0 |  3.19
Output  | 0          | 0          | 0          |   0.0 |  0.00
Modify  | 0          | 0          | 0          |   0.0 |  0.00
Other   |            | 0.01431    |            |       |  2.45

Nlocal:    148 ave 148 max 148 min
Histogram: 1 0 0 0 0 0 0 0 0 0
Nghost:    1444 ave 1444 max 1444 min
Histogram: 1 0 0 0 0 0 0 0 0 0
Neighs:    9656 ave 9656 max 9656 min
Histogram: 1 0 0 0 0 0 0 0 0 0

Total # of neighbors = 9656
Ave neighs/atom = 65.2432
Ave special neighs/atom = 6.32432
Neighbor list builds = 0
Dangerous builds = 0
variable        AtomMinStep equal ${tempstp}
variable        AtomMinStep equal 10822
variable        temppe     equal $(pe)
variable        temppe     equal 1732.9689177445034147
variable        min_E      equal abs(${prev_E}-${temppe})
variable        min_E      equal abs(1733.71420466565-${temppe})
variable        min_E      equal abs(1733.71420466565-1732.9689177445)
print           "${iter},${CellMinStep},${AtomMinStep},${AtomMinStep},$(pe),${min_E}" append NiPyC2_relax_sc211_meta_functionalized_CH2-NH2.min.csv screen no
if              "${min_E} < ${min_eval}" then "jump SELF break_min"
variable        prev_E     equal ${temppe}
variable        prev_E     equal 1732.9689177445
next            iter
jump            SELF loop_min
min_style       cg
fix             1 all box/relax aniso 0.0 vmax 0.01
minimize        1.0e-15 1.0e-15 10000 100000
WARNING: Using 'neigh_modify every 1 delay 0 check yes' setting during minimization (src/min.cpp:190)
WARNING: Inconsistent image flags (src/domain.cpp:785)
WARNING: Bond/angle/dihedral extent > half of periodic box length (src/domain.cpp:906)
Per MPI rank memory allocation (min/avg/max) = 18.78 | 18.78 | 18.78 Mbytes
Step Temp E_pair E_mol TotEng Press Volume 
   14231 9.7755064e-11    123.06831    1609.9006    1732.9689    -557.5442    1534.7516 
   14234 9.7755064e-11    123.21028    1609.4427     1732.653   -285.49051    1535.9264 
WARNING: Bond/angle/dihedral extent > half of periodic box length (src/domain.cpp:906)
Loop time of 0.0114357 on 1 procs for 3 steps with 148 atoms

99.9% CPU use with 1 MPI tasks x 1 OpenMP threads

Minimization stats:
  Stopping criterion = linesearch alpha is zero
  Energy initial, next-to-last, final = 
         1732.96891774      1732.65298406      1732.65298406
  Force two-norm initial, final = 192.326 23.1671
  Force max component initial, final = 153.846 10.0184
  Final line search alpha, max atom move = 1.417e-11 1.41961e-10
  Iterations, force evaluations = 3 57

MPI task timing breakdown:
Section |  min time  |  avg time  |  max time  |%varavg| %total
---------------------------------------------------------------
Pair    | 0.0061737  | 0.0061737  | 0.0061737  |   0.0 | 53.99
Bond    | 0.0037523  | 0.0037523  | 0.0037523  |   0.0 | 32.81
Neigh   | 0          | 0          | 0          |   0.0 |  0.00
Comm    | 0.00032403 | 0.00032403 | 0.00032403 |   0.0 |  2.83
Output  | 0          | 0          | 0          |   0.0 |  0.00
Modify  | 0          | 0          | 0          |   0.0 |  0.00
Other   |            | 0.001186   |            |       | 10.37

Nlocal:    148 ave 148 max 148 min
Histogram: 1 0 0 0 0 0 0 0 0 0
Nghost:    1444 ave 1444 max 1444 min
Histogram: 1 0 0 0 0 0 0 0 0 0
Neighs:    9657 ave 9657 max 9657 min
Histogram: 1 0 0 0 0 0 0 0 0 0

Total # of neighbors = 9657
Ave neighs/atom = 65.25
Ave special neighs/atom = 6.32432
Neighbor list builds = 0
Dangerous builds = 0
unfix           1
min_style       fire
variable        tempstp    equal $(step)
variable        tempstp    equal 14234
variable        CellMinStep equal ${tempstp}
variable        CellMinStep equal 14234
minimize        1.0e-15 1.0e-15 10000 100000
WARNING: Using 'neigh_modify every 1 delay 0 check yes' setting during minimization (src/min.cpp:190)
  Parameters for fire: 
    dmax delaystep dtgrow dtshrink alpha0 alphashrink tmax tmin    integrator halfstepback 
     0.1        20    1.1      0.5   0.25        0.99   10 0.02 eulerimplicit          yes 
WARNING: Inconsistent image flags (src/domain.cpp:785)
WARNING: Bond/angle/dihedral extent > half of periodic box length (src/domain.cpp:906)
Per MPI rank memory allocation (min/avg/max) = 17.66 | 17.66 | 17.66 Mbytes
Step Temp E_pair E_mol TotEng Press 
   14234            0    123.21028    1609.4427     1732.653   -285.49051 
   17434 1.1644437e-10    123.52061    1608.8368    1732.3574   -109.00008 
WARNING: Bond/angle/dihedral extent > half of periodic box length (src/domain.cpp:906)
Loop time of 0.548723 on 1 procs for 3200 steps with 148 atoms

99.8% CPU use with 1 MPI tasks x 1 OpenMP threads

Minimization stats:
  Stopping criterion = energy tolerance
  Energy initial, next-to-last, final = 
         1732.65298406      1732.35738555      1732.35738555
  Force two-norm initial, final = 19.8586 4.54404e-05
  Force max component initial, final = 3.26736 8.11189e-06
  Final line search alpha, max atom move = 0 0
  Iterations, force evaluations = 3200 3200

MPI task timing breakdown:
Section |  min time  |  avg time  |  max time  |%varavg| %total
---------------------------------------------------------------
Pair    | 0.32396    | 0.32396    | 0.32396    |   0.0 | 59.04
Bond    | 0.19382    | 0.19382    | 0.19382    |   0.0 | 35.32
Neigh   | 0          | 0          | 0          |   0.0 |  0.00
Comm    | 0.017489   | 0.017489   | 0.017489   |   0.0 |  3.19
Output  | 0          | 0          | 0          |   0.0 |  0.00
Modify  | 0          | 0          | 0          |   0.0 |  0.00
Other   |            | 0.01345    |            |       |  2.45

Nlocal:    148 ave 148 max 148 min
Histogram: 1 0 0 0 0 0 0 0 0 0
Nghost:    1444 ave 1444 max 1444 min
Histogram: 1 0 0 0 0 0 0 0 0 0
Neighs:    9650 ave 9650 max 9650 min
Histogram: 1 0 0 0 0 0 0 0 0 0

Total # of neighbors = 9650
Ave neighs/atom = 65.2027
Ave special neighs/atom = 6.32432
Neighbor list builds = 0
Dangerous builds = 0
variable        AtomMinStep equal ${tempstp}
variable        AtomMinStep equal 14234
variable        temppe     equal $(pe)
variable        temppe     equal 1732.357385545602483
variable        min_E      equal abs(${prev_E}-${temppe})
variable        min_E      equal abs(1732.9689177445-${temppe})
variable        min_E      equal abs(1732.9689177445-1732.3573855456)
print           "${iter},${CellMinStep},${AtomMinStep},${AtomMinStep},$(pe),${min_E}" append NiPyC2_relax_sc211_meta_functionalized_CH2-NH2.min.csv screen no
if              "${min_E} < ${min_eval}" then "jump SELF break_min"
variable        prev_E     equal ${temppe}
variable        prev_E     equal 1732.3573855456
next            iter
jump            SELF loop_min
min_style       cg
fix             1 all box/relax aniso 0.0 vmax 0.01
minimize        1.0e-15 1.0e-15 10000 100000
WARNING: Using 'neigh_modify every 1 delay 0 check yes' setting during minimization (src/min.cpp:190)
WARNING: Inconsistent image flags (src/domain.cpp:785)
WARNING: Bond/angle/dihedral extent > half of periodic box length (src/domain.cpp:906)
Per MPI rank memory allocation (min/avg/max) = 18.78 | 18.78 | 18.78 Mbytes
Step Temp E_pair E_mol TotEng Press Volume 
   17434 1.1644437e-10    123.52061    1608.8368    1732.3574   -109.00008    1535.9264 
   17437 1.1644437e-10    123.33716    1608.7711    1732.1082   -232.25762    1537.3972 
WARNING: Bond/angle/dihedral extent > half of periodic box length (src/domain.cpp:906)
Loop time of 0.0128133 on 1 procs for 3 steps with 148 atoms

99.9% CPU use with 1 MPI tasks x 1 OpenMP threads

Minimization stats:
  Stopping criterion = linesearch alpha is zero
  Energy initial, next-to-last, final = 
         1732.35738555      1732.10824658      1732.10824658
  Force two-norm initial, final = 170.935 20.6721
  Force max component initial, final = 124.568 6.68324
  Final line search alpha, max atom move = 1.99414e-11 1.33273e-10
  Iterations, force evaluations = 3 57

MPI task timing breakdown:
Section |  min time  |  avg time  |  max time  |%varavg| %total
---------------------------------------------------------------
Pair    | 0.0069039  | 0.0069039  | 0.0069039  |   0.0 | 53.88
Bond    | 0.0041122  | 0.0041122  | 0.0041122  |   0.0 | 32.09
Neigh   | 0          | 0          | 0          |   0.0 |  0.00
Comm    | 0.00034553 | 0.00034553 | 0.00034553 |   0.0 |  2.70
Output  | 0          | 0          | 0          |   0.0 |  0.00
Modify  | 0          | 0          | 0          |   0.0 |  0.00
Other   |            | 0.001452   |            |       | 11.33

Nlocal:    148 ave 148 max 148 min
Histogram: 1 0 0 0 0 0 0 0 0 0
Nghost:    1444 ave 1444 max 1444 min
Histogram: 1 0 0 0 0 0 0 0 0 0
Neighs:    9646 ave 9646 max 9646 min
Histogram: 1 0 0 0 0 0 0 0 0 0

Total # of neighbors = 9646
Ave neighs/atom = 65.1757
Ave special neighs/atom = 6.32432
Neighbor list builds = 0
Dangerous builds = 0
unfix           1
min_style       fire
variable        tempstp    equal $(step)
variable        tempstp    equal 17437
variable        CellMinStep equal ${tempstp}
variable        CellMinStep equal 17437
minimize        1.0e-15 1.0e-15 10000 100000
WARNING: Using 'neigh_modify every 1 delay 0 check yes' setting during minimization (src/min.cpp:190)
  Parameters for fire: 
    dmax delaystep dtgrow dtshrink alpha0 alphashrink tmax tmin    integrator halfstepback 
     0.1        20    1.1      0.5   0.25        0.99   10 0.02 eulerimplicit          yes 
WARNING: Inconsistent image flags (src/domain.cpp:785)
WARNING: Bond/angle/dihedral extent > half of periodic box length (src/domain.cpp:906)
Per MPI rank memory allocation (min/avg/max) = 17.66 | 17.66 | 17.66 Mbytes
Step Temp E_pair E_mol TotEng Press 
   17437            0    123.33716    1608.7711    1732.1082   -232.25762 
   20599 1.0416982e-10    123.82694    1608.1325    1731.9594    80.508026 
WARNING: Bond/angle/dihedral extent > half of periodic box length (src/domain.cpp:906)
Loop time of 0.546088 on 1 procs for 3162 steps with 148 atoms

99.9% CPU use with 1 MPI tasks x 1 OpenMP threads

Minimization stats:
  Stopping criterion = energy tolerance
  Energy initial, next-to-last, final = 
         1732.10824658      1731.95941011      1731.95941011
  Force two-norm initial, final = 18.5134 3.81789e-05
  Force max component initial, final = 3.03466 7.32795e-06
  Final line search alpha, max atom move = 0 0
  Iterations, force evaluations = 3162 3162

MPI task timing breakdown:
Section |  min time  |  avg time  |  max time  |%varavg| %total
---------------------------------------------------------------
Pair    | 0.32306    | 0.32306    | 0.32306    |   0.0 | 59.16
Bond    | 0.19214    | 0.19214    | 0.19214    |   0.0 | 35.18
Neigh   | 0          | 0          | 0          |   0.0 |  0.00
Comm    | 0.017409   | 0.017409   | 0.017409   |   0.0 |  3.19
Output  | 0.00014807 | 0.00014807 | 0.00014807 |   0.0 |  0.03
Modify  | 0          | 0          | 0          |   0.0 |  0.00
Other   |            | 0.01333    |            |       |  2.44

Nlocal:    148 ave 148 max 148 min
Histogram: 1 0 0 0 0 0 0 0 0 0
Nghost:    1448 ave 1448 max 1448 min
Histogram: 1 0 0 0 0 0 0 0 0 0
Neighs:    9633 ave 9633 max 9633 min
Histogram: 1 0 0 0 0 0 0 0 0 0

Total # of neighbors = 9633
Ave neighs/atom = 65.0878
Ave special neighs/atom = 6.32432
Neighbor list builds = 0
Dangerous builds = 0
variable        AtomMinStep equal ${tempstp}
variable        AtomMinStep equal 17437
variable        temppe     equal $(pe)
variable        temppe     equal 1731.9594101128921011
variable        min_E      equal abs(${prev_E}-${temppe})
variable        min_E      equal abs(1732.3573855456-${temppe})
variable        min_E      equal abs(1732.3573855456-1731.95941011289)
print           "${iter},${CellMinStep},${AtomMinStep},${AtomMinStep},$(pe),${min_E}" append NiPyC2_relax_sc211_meta_functionalized_CH2-NH2.min.csv screen no
if              "${min_E} < ${min_eval}" then "jump SELF break_min"
variable        prev_E     equal ${temppe}
variable        prev_E     equal 1731.95941011289
next            iter
jump            SELF loop_min
min_style       cg
fix             1 all box/relax aniso 0.0 vmax 0.01
minimize        1.0e-15 1.0e-15 10000 100000
WARNING: Using 'neigh_modify every 1 delay 0 check yes' setting during minimization (src/min.cpp:190)
WARNING: Inconsistent image flags (src/domain.cpp:785)
WARNING: Bond/angle/dihedral extent > half of periodic box length (src/domain.cpp:906)
Per MPI rank memory allocation (min/avg/max) = 18.78 | 18.78 | 18.78 Mbytes
Step Temp E_pair E_mol TotEng Press Volume 
   20599 1.0416982e-10    123.82694    1608.1325    1731.9594    80.508026    1537.3972 
   20602 1.0416982e-10    123.49698     1608.242     1731.739   -207.04902    1538.9499 
WARNING: Bond/angle/dihedral extent > half of periodic box length (src/domain.cpp:906)
Loop time of 0.0131884 on 1 procs for 3 steps with 148 atoms

99.9% CPU use with 1 MPI tasks x 1 OpenMP threads

Minimization stats:
  Stopping criterion = linesearch alpha is zero
  Energy initial, next-to-last, final = 
         1731.95941011      1731.73899401      1731.73899401
  Force two-norm initial, final = 156.854 19.1871
  Force max component initial, final = 114.681 5.47329
  Final line search alpha, max atom move = 2.37932e-11 1.30227e-10
  Iterations, force evaluations = 3 57

MPI task timing breakdown:
Section |  min time  |  avg time  |  max time  |%varavg| %total
---------------------------------------------------------------
Pair    | 0.0070437  | 0.0070437  | 0.0070437  |   0.0 | 53.41
Bond    | 0.004292   | 0.004292   | 0.004292   |   0.0 | 32.54
Neigh   | 0          | 0          | 0          |   0.0 |  0.00
Comm    | 0.00035685 | 0.00035685 | 0.00035685 |   0.0 |  2.71
Output  | 0          | 0          | 0          |   0.0 |  0.00
Modify  | 0          | 0          | 0          |   0.0 |  0.00
Other   |            | 0.001496   |            |       | 11.34

Nlocal:    148 ave 148 max 148 min
Histogram: 1 0 0 0 0 0 0 0 0 0
Nghost:    1448 ave 1448 max 1448 min
Histogram: 1 0 0 0 0 0 0 0 0 0
Neighs:    9633 ave 9633 max 9633 min
Histogram: 1 0 0 0 0 0 0 0 0 0

Total # of neighbors = 9633
Ave neighs/atom = 65.0878
Ave special neighs/atom = 6.32432
Neighbor list builds = 0
Dangerous builds = 0
unfix           1
min_style       fire
variable        tempstp    equal $(step)
variable        tempstp    equal 20602
variable        CellMinStep equal ${tempstp}
variable        CellMinStep equal 20602
minimize        1.0e-15 1.0e-15 10000 100000
WARNING: Using 'neigh_modify every 1 delay 0 check yes' setting during minimization (src/min.cpp:190)
  Parameters for fire: 
    dmax delaystep dtgrow dtshrink alpha0 alphashrink tmax tmin    integrator halfstepback 
     0.1        20    1.1      0.5   0.25        0.99   10 0.02 eulerimplicit          yes 
WARNING: Inconsistent image flags (src/domain.cpp:785)
WARNING: Bond/angle/dihedral extent > half of periodic box length (src/domain.cpp:906)
Per MPI rank memory allocation (min/avg/max) = 17.66 | 17.66 | 17.66 Mbytes
Step Temp E_pair E_mol TotEng Press 
   20602            0    123.49698     1608.242     1731.739   -207.04902 
   23594 1.631182e-10    123.94868     1607.603    1731.5517    143.37266 
WARNING: Bond/angle/dihedral extent > half of periodic box length (src/domain.cpp:906)
Loop time of 0.512511 on 1 procs for 2992 steps with 148 atoms

99.8% CPU use with 1 MPI tasks x 1 OpenMP threads

Minimization stats:
  Stopping criterion = energy tolerance
  Energy initial, next-to-last, final = 
         1731.73899401      1731.55168271      1731.55168271
  Force two-norm initial, final = 17.3875 4.44573e-05
  Force max component initial, final = 2.83752 8.63619e-06
  Final line search alpha, max atom move = 0 0
  Iterations, force evaluations = 2992 2992

MPI task timing breakdown:
Section |  min time  |  avg time  |  max time  |%varavg| %total
---------------------------------------------------------------
Pair    | 0.30302    | 0.30302    | 0.30302    |   0.0 | 59.13
Bond    | 0.18055    | 0.18055    | 0.18055    |   0.0 | 35.23
Neigh   | 0          | 0          | 0          |   0.0 |  0.00
Comm    | 0.016441   | 0.016441   | 0.016441   |   0.0 |  3.21
Output  | 0          | 0          | 0          |   0.0 |  0.00
Modify  | 0          | 0          | 0          |   0.0 |  0.00
Other   |            | 0.0125     |            |       |  2.44

Nlocal:    148 ave 148 max 148 min
Histogram: 1 0 0 0 0 0 0 0 0 0
Nghost:    1448 ave 1448 max 1448 min
Histogram: 1 0 0 0 0 0 0 0 0 0
Neighs:    9628 ave 9628 max 9628 min
Histogram: 1 0 0 0 0 0 0 0 0 0

Total # of neighbors = 9628
Ave neighs/atom = 65.0541
Ave special neighs/atom = 6.32432
Neighbor list builds = 0
Dangerous builds = 0
variable        AtomMinStep equal ${tempstp}
variable        AtomMinStep equal 20602
variable        temppe     equal $(pe)
variable        temppe     equal 1731.5516827134506457
variable        min_E      equal abs(${prev_E}-${temppe})
variable        min_E      equal abs(1731.95941011289-${temppe})
variable        min_E      equal abs(1731.95941011289-1731.55168271345)
print           "${iter},${CellMinStep},${AtomMinStep},${AtomMinStep},$(pe),${min_E}" append NiPyC2_relax_sc211_meta_functionalized_CH2-NH2.min.csv screen no
if              "${min_E} < ${min_eval}" then "jump SELF break_min"
variable        prev_E     equal ${temppe}
variable        prev_E     equal 1731.55168271345
next            iter
jump            SELF loop_min
min_style       cg
fix             1 all box/relax aniso 0.0 vmax 0.01
minimize        1.0e-15 1.0e-15 10000 100000
WARNING: Using 'neigh_modify every 1 delay 0 check yes' setting during minimization (src/min.cpp:190)
WARNING: Inconsistent image flags (src/domain.cpp:785)
WARNING: Bond/angle/dihedral extent > half of periodic box length (src/domain.cpp:906)
Per MPI rank memory allocation (min/avg/max) = 18.78 | 18.78 | 18.78 Mbytes
Step Temp E_pair E_mol TotEng Press Volume 
   23594 1.631182e-10    123.94868     1607.603    1731.5517    143.37266    1538.9499 
   23596 1.631182e-10     124.6624    1606.7381    1731.4005    1017.6132     1539.173 
WARNING: Bond/angle/dihedral extent > half of periodic box length (src/domain.cpp:906)
Loop time of 0.0131173 on 1 procs for 2 steps with 148 atoms

99.8% CPU use with 1 MPI tasks x 1 OpenMP threads

Minimization stats:
  Stopping criterion = linesearch alpha is zero
  Energy initial, next-to-last, final = 
         1731.55168271      1731.40045214      1731.40045214
  Force two-norm initial, final = 145.2 53.629
  Force max component initial, final = 109.986 39.1463
  Final line search alpha, max atom move = 3.08117e-12 1.20616e-10
  Iterations, force evaluations = 2 55

MPI task timing breakdown:
Section |  min time  |  avg time  |  max time  |%varavg| %total
---------------------------------------------------------------
Pair    | 0.0070432  | 0.0070432  | 0.0070432  |   0.0 | 53.69
Bond    | 0.0042187  | 0.0042187  | 0.0042187  |   0.0 | 32.16
Neigh   | 0          | 0          | 0          |   0.0 |  0.00
Comm    | 0.00038592 | 0.00038592 | 0.00038592 |   0.0 |  2.94
Output  | 0          | 0          | 0          |   0.0 |  0.00
Modify  | 0          | 0          | 0          |   0.0 |  0.00
Other   |            | 0.00147    |            |       | 11.20

Nlocal:    148 ave 148 max 148 min
Histogram: 1 0 0 0 0 0 0 0 0 0
Nghost:    1448 ave 1448 max 1448 min
Histogram: 1 0 0 0 0 0 0 0 0 0
Neighs:    9622 ave 9622 max 9622 min
Histogram: 1 0 0 0 0 0 0 0 0 0

Total # of neighbors = 9622
Ave neighs/atom = 65.0135
Ave special neighs/atom = 6.32432
Neighbor list builds = 0
Dangerous builds = 0
unfix           1
min_style       fire
variable        tempstp    equal $(step)
variable        tempstp    equal 23596
variable        CellMinStep equal ${tempstp}
variable        CellMinStep equal 23596
minimize        1.0e-15 1.0e-15 10000 100000
WARNING: Using 'neigh_modify every 1 delay 0 check yes' setting during minimization (src/min.cpp:190)
  Parameters for fire: 
    dmax delaystep dtgrow dtshrink alpha0 alphashrink tmax tmin    integrator halfstepback 
     0.1        20    1.1      0.5   0.25        0.99   10 0.02 eulerimplicit          yes 
WARNING: Inconsistent image flags (src/domain.cpp:785)
WARNING: Bond/angle/dihedral extent > half of periodic box length (src/domain.cpp:906)
Per MPI rank memory allocation (min/avg/max) = 17.66 | 17.66 | 17.66 Mbytes
Step Temp E_pair E_mol TotEng Press 
   23596            0     124.6624    1606.7381    1731.4005    1017.6132 
   26834 1.0821112e-10    124.73527    1606.5578    1731.2931    775.41022 
WARNING: Bond/angle/dihedral extent > half of periodic box length (src/domain.cpp:906)
Loop time of 0.553918 on 1 procs for 3238 steps with 148 atoms

99.9% CPU use with 1 MPI tasks x 1 OpenMP threads

Minimization stats:
  Stopping criterion = energy tolerance
  Energy initial, next-to-last, final = 
         1731.40045214      1731.29306674      1731.29306674
  Force two-norm initial, final = 15.0759 4.38928e-05
  Force max component initial, final = 2.44618 7.75673e-06
  Final line search alpha, max atom move = 0 0
  Iterations, force evaluations = 3238 3238

MPI task timing breakdown:
Section |  min time  |  avg time  |  max time  |%varavg| %total
---------------------------------------------------------------
Pair    | 0.32736    | 0.32736    | 0.32736    |   0.0 | 59.10
Bond    | 0.19538    | 0.19538    | 0.19538    |   0.0 | 35.27
Neigh   | 0          | 0          | 0          |   0.0 |  0.00
Comm    | 0.017686   | 0.017686   | 0.017686   |   0.0 |  3.19
Output  | 0          | 0          | 0          |   0.0 |  0.00
Modify  | 0          | 0          | 0          |   0.0 |  0.00
Other   |            | 0.0135     |            |       |  2.44

Nlocal:    148 ave 148 max 148 min
Histogram: 1 0 0 0 0 0 0 0 0 0
Nghost:    1448 ave 1448 max 1448 min
Histogram: 1 0 0 0 0 0 0 0 0 0
Neighs:    9625 ave 9625 max 9625 min
Histogram: 1 0 0 0 0 0 0 0 0 0

Total # of neighbors = 9625
Ave neighs/atom = 65.0338
Ave special neighs/atom = 6.32432
Neighbor list builds = 0
Dangerous builds = 0
variable        AtomMinStep equal ${tempstp}
variable        AtomMinStep equal 23596
variable        temppe     equal $(pe)
variable        temppe     equal 1731.2930667398522928
variable        min_E      equal abs(${prev_E}-${temppe})
variable        min_E      equal abs(1731.55168271345-${temppe})
variable        min_E      equal abs(1731.55168271345-1731.29306673985)
print           "${iter},${CellMinStep},${AtomMinStep},${AtomMinStep},$(pe),${min_E}" append NiPyC2_relax_sc211_meta_functionalized_CH2-NH2.min.csv screen no
if              "${min_E} < ${min_eval}" then "jump SELF break_min"
variable        prev_E     equal ${temppe}
variable        prev_E     equal 1731.29306673985
next            iter
jump            SELF loop_min
min_style       cg
fix             1 all box/relax aniso 0.0 vmax 0.01
minimize        1.0e-15 1.0e-15 10000 100000
WARNING: Using 'neigh_modify every 1 delay 0 check yes' setting during minimization (src/min.cpp:190)
WARNING: Inconsistent image flags (src/domain.cpp:785)
WARNING: Bond/angle/dihedral extent > half of periodic box length (src/domain.cpp:906)
Per MPI rank memory allocation (min/avg/max) = 18.78 | 18.78 | 18.78 Mbytes
Step Temp E_pair E_mol TotEng Press Volume 
   26834 1.0821112e-10    124.73527    1606.5578    1731.2931    775.41022     1539.173 
   26839 1.0821112e-10    123.84865     1607.218    1731.0666   -178.44121    1542.1999 
WARNING: Bond/angle/dihedral extent > half of periodic box length (src/domain.cpp:906)
Loop time of 0.0123813 on 1 procs for 5 steps with 148 atoms

99.9% CPU use with 1 MPI tasks x 1 OpenMP threads

Minimization stats:
  Stopping criterion = linesearch alpha is zero
  Energy initial, next-to-last, final = 
         1731.29306674      1731.06662489      1731.06662489
  Force two-norm initial, final = 132.339 24.0396
  Force max component initial, final = 116.654 12.7197
  Final line search alpha, max atom move = 1.11625e-11 1.41984e-10
  Iterations, force evaluations = 5 61

MPI task timing breakdown:
Section |  min time  |  avg time  |  max time  |%varavg| %total
---------------------------------------------------------------
Pair    | 0.0066526  | 0.0066526  | 0.0066526  |   0.0 | 53.73
Bond    | 0.0041075  | 0.0041075  | 0.0041075  |   0.0 | 33.17
Neigh   | 0          | 0          | 0          |   0.0 |  0.00
Comm    | 0.00035776 | 0.00035776 | 0.00035776 |   0.0 |  2.89
Output  | 0          | 0          | 0          |   0.0 |  0.00
Modify  | 0          | 0          | 0          |   0.0 |  0.00
Other   |            | 0.001263   |            |       | 10.20

Nlocal:    148 ave 148 max 148 min
Histogram: 1 0 0 0 0 0 0 0 0 0
Nghost:    1448 ave 1448 max 1448 min
Histogram: 1 0 0 0 0 0 0 0 0 0
Neighs:    9623 ave 9623 max 9623 min
Histogram: 1 0 0 0 0 0 0 0 0 0

Total # of neighbors = 9623
Ave neighs/atom = 65.0203
Ave special neighs/atom = 6.32432
Neighbor list builds = 0
Dangerous builds = 0
unfix           1
min_style       fire
variable        tempstp    equal $(step)
variable        tempstp    equal 26839
variable        CellMinStep equal ${tempstp}
variable        CellMinStep equal 26839
minimize        1.0e-15 1.0e-15 10000 100000
WARNING: Using 'neigh_modify every 1 delay 0 check yes' setting during minimization (src/min.cpp:190)
  Parameters for fire: 
    dmax delaystep dtgrow dtshrink alpha0 alphashrink tmax tmin    integrator halfstepback 
     0.1        20    1.1      0.5   0.25        0.99   10 0.02 eulerimplicit          yes 
WARNING: Inconsistent image flags (src/domain.cpp:785)
WARNING: Bond/angle/dihedral extent > half of periodic box length (src/domain.cpp:906)
Per MPI rank memory allocation (min/avg/max) = 17.66 | 17.66 | 17.66 Mbytes
Step Temp E_pair E_mol TotEng Press 
   26839            0    123.84865     1607.218    1731.0666   -178.44121 
   29903 1.4288831e-10    124.55107    1606.3093    1730.8604    408.33228 
WARNING: Bond/angle/dihedral extent > half of periodic box length (src/domain.cpp:906)
Loop time of 0.525976 on 1 procs for 3064 steps with 148 atoms

99.8% CPU use with 1 MPI tasks x 1 OpenMP threads

Minimization stats:
  Stopping criterion = energy tolerance
  Energy initial, next-to-last, final = 
         1731.06662489      1730.86037864      1730.86037864
  Force two-norm initial, final = 19.29 4.58401e-05
  Force max component initial, final = 5.02482 8.89556e-06
  Final line search alpha, max atom move = 0 0
  Iterations, force evaluations = 3064 3064

MPI task timing breakdown:
Section |  min time  |  avg time  |  max time  |%varavg| %total
---------------------------------------------------------------
Pair    | 0.31067    | 0.31067    | 0.31067    |   0.0 | 59.06
Bond    | 0.18559    | 0.18559    | 0.18559    |   0.0 | 35.28
Neigh   | 0          | 0          | 0          |   0.0 |  0.00
Comm    | 0.016911   | 0.016911   | 0.016911   |   0.0 |  3.22
Output  | 0          | 0          | 0          |   0.0 |  0.00
Modify  | 0          | 0          | 0          |   0.0 |  0.00
Other   |            | 0.01281    |            |       |  2.44

Nlocal:    148 ave 148 max 148 min
Histogram: 1 0 0 0 0 0 0 0 0 0
Nghost:    1448 ave 1448 max 1448 min
Histogram: 1 0 0 0 0 0 0 0 0 0
Neighs:    9598 ave 9598 max 9598 min
Histogram: 1 0 0 0 0 0 0 0 0 0

Total # of neighbors = 9598
Ave neighs/atom = 64.8514
Ave special neighs/atom = 6.32432
Neighbor list builds = 0
Dangerous builds = 0
variable        AtomMinStep equal ${tempstp}
variable        AtomMinStep equal 26839
variable        temppe     equal $(pe)
variable        temppe     equal 1730.8603786415594641
variable        min_E      equal abs(${prev_E}-${temppe})
variable        min_E      equal abs(1731.29306673985-${temppe})
variable        min_E      equal abs(1731.29306673985-1730.86037864156)
print           "${iter},${CellMinStep},${AtomMinStep},${AtomMinStep},$(pe),${min_E}" append NiPyC2_relax_sc211_meta_functionalized_CH2-NH2.min.csv screen no
if              "${min_E} < ${min_eval}" then "jump SELF break_min"
variable        prev_E     equal ${temppe}
variable        prev_E     equal 1730.86037864156
next            iter
jump            SELF loop_min
min_style       cg
fix             1 all box/relax aniso 0.0 vmax 0.01
minimize        1.0e-15 1.0e-15 10000 100000
WARNING: Using 'neigh_modify every 1 delay 0 check yes' setting during minimization (src/min.cpp:190)
WARNING: Inconsistent image flags (src/domain.cpp:785)
WARNING: Bond/angle/dihedral extent > half of periodic box length (src/domain.cpp:906)
Per MPI rank memory allocation (min/avg/max) = 18.78 | 18.78 | 18.78 Mbytes
Step Temp E_pair E_mol TotEng Press Volume 
   29903 1.4288831e-10    124.55107    1606.3093    1730.8604    408.33228    1542.1999 
   29907 1.4288831e-10    124.42712    1606.2194    1730.6465    616.65489      1543.35 
WARNING: Bond/angle/dihedral extent > half of periodic box length (src/domain.cpp:906)
Loop time of 0.0131833 on 1 procs for 4 steps with 148 atoms

99.9% CPU use with 1 MPI tasks x 1 OpenMP threads

Minimization stats:
  Stopping criterion = linesearch alpha is zero
  Energy initial, next-to-last, final = 
         1730.86037864      1730.64647564      1730.64647564
  Force two-norm initial, final = 120.639 51.2736
  Force max component initial, final = 101.888 48.8373
  Final line search alpha, max atom move = 4.11203e-12 2.0082e-10
  Iterations, force evaluations = 4 61

MPI task timing breakdown:
Section |  min time  |  avg time  |  max time  |%varavg| %total
---------------------------------------------------------------
Pair    | 0.0070805  | 0.0070805  | 0.0070805  |   0.0 | 53.71
Bond    | 0.0042832  | 0.0042832  | 0.0042832  |   0.0 | 32.49
Neigh   | 0          | 0          | 0          |   0.0 |  0.00
Comm    | 0.00037511 | 0.00037511 | 0.00037511 |   0.0 |  2.85
Output  | 0          | 0          | 0          |   0.0 |  0.00
Modify  | 0          | 0          | 0          |   0.0 |  0.00
Other   |            | 0.001445   |            |       | 10.96

Nlocal:    148 ave 148 max 148 min
Histogram: 1 0 0 0 0 0 0 0 0 0
Nghost:    1448 ave 1448 max 1448 min
Histogram: 1 0 0 0 0 0 0 0 0 0
Neighs:    9592 ave 9592 max 9592 min
Histogram: 1 0 0 0 0 0 0 0 0 0

Total # of neighbors = 9592
Ave neighs/atom = 64.8108
Ave special neighs/atom = 6.32432
Neighbor list builds = 0
Dangerous builds = 0
unfix           1
min_style       fire
variable        tempstp    equal $(step)
variable        tempstp    equal 29907
variable        CellMinStep equal ${tempstp}
variable        CellMinStep equal 29907
minimize        1.0e-15 1.0e-15 10000 100000
WARNING: Using 'neigh_modify every 1 delay 0 check yes' setting during minimization (src/min.cpp:190)
  Parameters for fire: 
    dmax delaystep dtgrow dtshrink alpha0 alphashrink tmax tmin    integrator halfstepback 
     0.1        20    1.1      0.5   0.25        0.99   10 0.02 eulerimplicit          yes 
WARNING: Inconsistent image flags (src/domain.cpp:785)
WARNING: Bond/angle/dihedral extent > half of periodic box length (src/domain.cpp:906)
Per MPI rank memory allocation (min/avg/max) = 17.66 | 17.66 | 17.66 Mbytes
Step Temp E_pair E_mol TotEng Press 
   29907            0    124.42712    1606.2194    1730.6465    616.65489 
   33035 8.1205671e-11    124.68194    1605.9531    1730.6351    360.06343 
WARNING: Bond/angle/dihedral extent > half of periodic box length (src/domain.cpp:906)
Loop time of 0.537279 on 1 procs for 3128 steps with 148 atoms

99.8% CPU use with 1 MPI tasks x 1 OpenMP threads

Minimization stats:
  Stopping criterion = energy tolerance
  Energy initial, next-to-last, final = 
         1730.64647564      1730.63508953      1730.63508953
  Force two-norm initial, final = 13.1119 3.68285e-05
  Force max component initial, final = 2.08255 6.70555e-06
  Final line search alpha, max atom move = 0 0
  Iterations, force evaluations = 3128 3128

MPI task timing breakdown:
Section |  min time  |  avg time  |  max time  |%varavg| %total
---------------------------------------------------------------
Pair    | 0.31706    | 0.31706    | 0.31706    |   0.0 | 59.01
Bond    | 0.18983    | 0.18983    | 0.18983    |   0.0 | 35.33
Neigh   | 0          | 0          | 0          |   0.0 |  0.00
Comm    | 0.017277   | 0.017277   | 0.017277   |   0.0 |  3.22
Output  | 0          | 0          | 0          |   0.0 |  0.00
Modify  | 0          | 0          | 0          |   0.0 |  0.00
Other   |            | 0.01312    |            |       |  2.44

Nlocal:    148 ave 148 max 148 min
Histogram: 1 0 0 0 0 0 0 0 0 0
Nghost:    1454 ave 1454 max 1454 min
Histogram: 1 0 0 0 0 0 0 0 0 0
Neighs:    9580 ave 9580 max 9580 min
Histogram: 1 0 0 0 0 0 0 0 0 0

Total # of neighbors = 9580
Ave neighs/atom = 64.7297
Ave special neighs/atom = 6.32432
Neighbor list builds = 0
Dangerous builds = 0
variable        AtomMinStep equal ${tempstp}
variable        AtomMinStep equal 29907
variable        temppe     equal $(pe)
variable        temppe     equal 1730.635089530858977
variable        min_E      equal abs(${prev_E}-${temppe})
variable        min_E      equal abs(1730.86037864156-${temppe})
variable        min_E      equal abs(1730.86037864156-1730.63508953086)
print           "${iter},${CellMinStep},${AtomMinStep},${AtomMinStep},$(pe),${min_E}" append NiPyC2_relax_sc211_meta_functionalized_CH2-NH2.min.csv screen no
if              "${min_E} < ${min_eval}" then "jump SELF break_min"
variable        prev_E     equal ${temppe}
variable        prev_E     equal 1730.63508953086
next            iter
jump            SELF loop_min
min_style       cg
fix             1 all box/relax aniso 0.0 vmax 0.01
minimize        1.0e-15 1.0e-15 10000 100000
WARNING: Using 'neigh_modify every 1 delay 0 check yes' setting during minimization (src/min.cpp:190)
WARNING: Inconsistent image flags (src/domain.cpp:785)
WARNING: Bond/angle/dihedral extent > half of periodic box length (src/domain.cpp:906)
Per MPI rank memory allocation (min/avg/max) = 18.78 | 18.78 | 18.78 Mbytes
Step Temp E_pair E_mol TotEng Press Volume 
   33035 8.1205671e-11    124.68194    1605.9531    1730.6351    360.06343      1543.35 
   33042 8.1205671e-11    123.76743    1606.6078    1730.3752    -734.6189     1547.089 
WARNING: Bond/angle/dihedral extent > half of periodic box length (src/domain.cpp:906)
Loop time of 0.0145997 on 1 procs for 7 steps with 148 atoms

99.9% CPU use with 1 MPI tasks x 1 OpenMP threads

Minimization stats:
  Stopping criterion = linesearch alpha is zero
  Energy initial, next-to-last, final = 
         1730.63508953      1730.37524829      1730.37524829
  Force two-norm initial, final = 114.882 38.8801
  Force max component initial, final = 96.0517 30.6886
  Final line search alpha, max atom move = 5.34995e-12 1.64182e-10
  Iterations, force evaluations = 7 67

MPI task timing breakdown:
Section |  min time  |  avg time  |  max time  |%varavg| %total
---------------------------------------------------------------
Pair    | 0.0078432  | 0.0078432  | 0.0078432  |   0.0 | 53.72
Bond    | 0.0047597  | 0.0047597  | 0.0047597  |   0.0 | 32.60
Neigh   | 0          | 0          | 0          |   0.0 |  0.00
Comm    | 0.00041925 | 0.00041925 | 0.00041925 |   0.0 |  2.87
Output  | 0          | 0          | 0          |   0.0 |  0.00
Modify  | 0          | 0          | 0          |   0.0 |  0.00
Other   |            | 0.001578   |            |       | 10.81

Nlocal:    148 ave 148 max 148 min
Histogram: 1 0 0 0 0 0 0 0 0 0
Nghost:    1454 ave 1454 max 1454 min
Histogram: 1 0 0 0 0 0 0 0 0 0
Neighs:    9580 ave 9580 max 9580 min
Histogram: 1 0 0 0 0 0 0 0 0 0

Total # of neighbors = 9580
Ave neighs/atom = 64.7297
Ave special neighs/atom = 6.32432
Neighbor list builds = 0
Dangerous builds = 0
unfix           1
min_style       fire
variable        tempstp    equal $(step)
variable        tempstp    equal 33042
variable        CellMinStep equal ${tempstp}
variable        CellMinStep equal 33042
minimize        1.0e-15 1.0e-15 10000 100000
WARNING: Using 'neigh_modify every 1 delay 0 check yes' setting during minimization (src/min.cpp:190)
  Parameters for fire: 
    dmax delaystep dtgrow dtshrink alpha0 alphashrink tmax tmin    integrator halfstepback 
     0.1        20    1.1      0.5   0.25        0.99   10 0.02 eulerimplicit          yes 
WARNING: Inconsistent image flags (src/domain.cpp:785)
WARNING: Bond/angle/dihedral extent > half of periodic box length (src/domain.cpp:906)
Per MPI rank memory allocation (min/avg/max) = 17.66 | 17.66 | 17.66 Mbytes
Step Temp E_pair E_mol TotEng Press 
   33042            0    123.76743    1606.6078    1730.3752    -734.6189 
   36377 7.3646241e-11     124.4703    1605.6025    1730.0728   -79.251272 
WARNING: Bond/angle/dihedral extent > half of periodic box length (src/domain.cpp:906)
Loop time of 0.572623 on 1 procs for 3335 steps with 148 atoms

99.9% CPU use with 1 MPI tasks x 1 OpenMP threads

Minimization stats:
  Stopping criterion = energy tolerance
  Energy initial, next-to-last, final = 
         1730.37524829      1730.07281161      1730.07281161
  Force two-norm initial, final = 16.9082 3.54014e-05
  Force max component initial, final = 2.74357 6.47392e-06
  Final line search alpha, max atom move = 0 0
  Iterations, force evaluations = 3335 3335

MPI task timing breakdown:
Section |  min time  |  avg time  |  max time  |%varavg| %total
---------------------------------------------------------------
Pair    | 0.33769    | 0.33769    | 0.33769    |   0.0 | 58.97
Bond    | 0.20235    | 0.20235    | 0.20235    |   0.0 | 35.34
Neigh   | 0          | 0          | 0          |   0.0 |  0.00
Comm    | 0.018533   | 0.018533   | 0.018533   |   0.0 |  3.24
Output  | 0          | 0          | 0          |   0.0 |  0.00
Modify  | 0          | 0          | 0          |   0.0 |  0.00
Other   |            | 0.01406    |            |       |  2.45

Nlocal:    148 ave 148 max 148 min
Histogram: 1 0 0 0 0 0 0 0 0 0
Nghost:    1454 ave 1454 max 1454 min
Histogram: 1 0 0 0 0 0 0 0 0 0
Neighs:    9570 ave 9570 max 9570 min
Histogram: 1 0 0 0 0 0 0 0 0 0

Total # of neighbors = 9570
Ave neighs/atom = 64.6622
Ave special neighs/atom = 6.32432
Neighbor list builds = 0
Dangerous builds = 0
variable        AtomMinStep equal ${tempstp}
variable        AtomMinStep equal 33042
variable        temppe     equal $(pe)
variable        temppe     equal 1730.0728116070395117
variable        min_E      equal abs(${prev_E}-${temppe})
variable        min_E      equal abs(1730.63508953086-${temppe})
variable        min_E      equal abs(1730.63508953086-1730.07281160704)
print           "${iter},${CellMinStep},${AtomMinStep},${AtomMinStep},$(pe),${min_E}" append NiPyC2_relax_sc211_meta_functionalized_CH2-NH2.min.csv screen no
if              "${min_E} < ${min_eval}" then "jump SELF break_min"
variable        prev_E     equal ${temppe}
variable        prev_E     equal 1730.07281160704
next            iter
jump            SELF loop_min
min_style       cg
fix             1 all box/relax aniso 0.0 vmax 0.01
minimize        1.0e-15 1.0e-15 10000 100000
WARNING: Using 'neigh_modify every 1 delay 0 check yes' setting during minimization (src/min.cpp:190)
WARNING: Inconsistent image flags (src/domain.cpp:785)
WARNING: Bond/angle/dihedral extent > half of periodic box length (src/domain.cpp:906)
Per MPI rank memory allocation (min/avg/max) = 18.78 | 18.78 | 18.78 Mbytes
Step Temp E_pair E_mol TotEng Press Volume 
   36377 7.3646241e-11     124.4703    1605.6025    1730.0728   -79.251272     1547.089 
   36378 7.3646241e-11     124.4703    1605.6025    1730.0728   -79.251272     1547.089 
WARNING: Bond/angle/dihedral extent > half of periodic box length (src/domain.cpp:906)
Loop time of 0.0111512 on 1 procs for 1 steps with 148 atoms

99.7% CPU use with 1 MPI tasks x 1 OpenMP threads

Minimization stats:
  Stopping criterion = linesearch alpha is zero
  Energy initial, next-to-last, final = 
         1730.07281161      1730.07281161      1730.07281161
  Force two-norm initial, final = 101.607 101.607
  Force max component initial, final = 77.3056 77.3056
  Final line search alpha, max atom move = 9.63783e-13 7.45058e-11
  Iterations, force evaluations = 1 55

MPI task timing breakdown:
Section |  min time  |  avg time  |  max time  |%varavg| %total
---------------------------------------------------------------
Pair    | 0.0059904  | 0.0059904  | 0.0059904  |   0.0 | 53.72
Bond    | 0.0037095  | 0.0037095  | 0.0037095  |   0.0 | 33.27
Neigh   | 0          | 0          | 0          |   0.0 |  0.00
Comm    | 0.00030877 | 0.00030877 | 0.00030877 |   0.0 |  2.77
Output  | 0          | 0          | 0          |   0.0 |  0.00
Modify  | 0          | 0          | 0          |   0.0 |  0.00
Other   |            | 0.001142   |            |       | 10.25

Nlocal:    148 ave 148 max 148 min
Histogram: 1 0 0 0 0 0 0 0 0 0
Nghost:    1454 ave 1454 max 1454 min
Histogram: 1 0 0 0 0 0 0 0 0 0
Neighs:    9567 ave 9567 max 9567 min
Histogram: 1 0 0 0 0 0 0 0 0 0

Total # of neighbors = 9567
Ave neighs/atom = 64.6419
Ave special neighs/atom = 6.32432
Neighbor list builds = 0
Dangerous builds = 0
unfix           1
min_style       fire
variable        tempstp    equal $(step)
variable        tempstp    equal 36378
variable        CellMinStep equal ${tempstp}
variable        CellMinStep equal 36378
minimize        1.0e-15 1.0e-15 10000 100000
WARNING: Using 'neigh_modify every 1 delay 0 check yes' setting during minimization (src/min.cpp:190)
  Parameters for fire: 
    dmax delaystep dtgrow dtshrink alpha0 alphashrink tmax tmin    integrator halfstepback 
     0.1        20    1.1      0.5   0.25        0.99   10 0.02 eulerimplicit          yes 
WARNING: Inconsistent image flags (src/domain.cpp:785)
WARNING: Bond/angle/dihedral extent > half of periodic box length (src/domain.cpp:906)
Per MPI rank memory allocation (min/avg/max) = 17.66 | 17.66 | 17.66 Mbytes
Step Temp E_pair E_mol TotEng Press 
   36378            0     124.4703    1605.6025    1730.0728   -79.251272 
   36433 6.1087374e-11     124.4703    1605.6025    1730.0728   -79.251869 
WARNING: Bond/angle/dihedral extent > half of periodic box length (src/domain.cpp:906)
Loop time of 0.0100594 on 1 procs for 55 steps with 148 atoms

99.9% CPU use with 1 MPI tasks x 1 OpenMP threads

Minimization stats:
  Stopping criterion = energy tolerance
  Energy initial, next-to-last, final = 
         1730.07281161      1730.07281161      1730.07281161
  Force two-norm initial, final = 3.54014e-05 3.12402e-05
  Force max component initial, final = 6.47392e-06 6.02179e-06
  Final line search alpha, max atom move = 0 0
  Iterations, force evaluations = 55 55

MPI task timing breakdown:
Section |  min time  |  avg time  |  max time  |%varavg| %total
---------------------------------------------------------------
Pair    | 0.005829   | 0.005829   | 0.005829   |   0.0 | 57.95
Bond    | 0.0034599  | 0.0034599  | 0.0034599  |   0.0 | 34.40
Neigh   | 0          | 0          | 0          |   0.0 |  0.00
Comm    | 0.00031072 | 0.00031072 | 0.00031072 |   0.0 |  3.09
Output  | 0          | 0          | 0          |   0.0 |  0.00
Modify  | 0          | 0          | 0          |   0.0 |  0.00
Other   |            | 0.0004597  |            |       |  4.57

Nlocal:    148 ave 148 max 148 min
Histogram: 1 0 0 0 0 0 0 0 0 0
Nghost:    1454 ave 1454 max 1454 min
Histogram: 1 0 0 0 0 0 0 0 0 0
Neighs:    9567 ave 9567 max 9567 min
Histogram: 1 0 0 0 0 0 0 0 0 0

Total # of neighbors = 9567
Ave neighs/atom = 64.6419
Ave special neighs/atom = 6.32432
Neighbor list builds = 0
Dangerous builds = 0
variable        AtomMinStep equal ${tempstp}
variable        AtomMinStep equal 36378
variable        temppe     equal $(pe)
variable        temppe     equal 1730.0728116069326461
variable        min_E      equal abs(${prev_E}-${temppe})
variable        min_E      equal abs(1730.07281160704-${temppe})
variable        min_E      equal abs(1730.07281160704-1730.07281160693)
print           "${iter},${CellMinStep},${AtomMinStep},${AtomMinStep},$(pe),${min_E}" append NiPyC2_relax_sc211_meta_functionalized_CH2-NH2.min.csv screen no
if              "${min_E} < ${min_eval}" then "jump SELF break_min"
jump SELF break_min
undump          NiPyC2_relax_sc211_meta_functionalized_CH2-NH2_xyzmov

# Dump last snapshot for restart
variable curr_lx equal lx
variable curr_ly equal ly
variable curr_lz equal lz
change_box all x final 0 ${curr_lx} y final 0 ${curr_ly} z final 0 ${curr_lz}
change_box all x final 0 14.1037881865562 y final 0 ${curr_ly} z final 0 ${curr_lz}
change_box all x final 0 14.1037881865562 y final 0 9.29593869901403 z final 0 ${curr_lz}
change_box all x final 0 14.1037881865562 y final 0 9.29593869901403 z final 0 11.8001161296943
  triclinic box = (0 1.61373 -0.762919) to (14.1038 10.9097 11.0372) with tilt (0 -0.261394 0)
  triclinic box = (0 0 -0.762919) to (14.1038 9.29594 11.0372) with tilt (0 -0.261394 0)
  triclinic box = (0 0 0) to (14.1038 9.29594 11.8001) with tilt (0 -0.261394 0)

reset_timestep 0
dump            NiPyC2_relax_sc211_meta_functionalized_CH2-NH2_restart all atom 1 NiPyC2_relax_sc211_meta_functionalized_CH2-NH2_restart.lammpstrj
dump_modify     NiPyC2_relax_sc211_meta_functionalized_CH2-NH2_restart scale no sort id
run 0
WARNING: No fixes defined, atoms won't move (src/verlet.cpp:52)
WARNING: Inconsistent image flags (src/domain.cpp:785)
WARNING: Bond/angle/dihedral extent > half of periodic box length (src/domain.cpp:906)
Per MPI rank memory allocation (min/avg/max) = 17.66 | 17.66 | 17.66 Mbytes
Step Temp E_pair E_mol TotEng Press 
       0 6.1087374e-11     124.4703    1605.6025    1730.0728   -79.251869 
WARNING: Bond/angle/dihedral extent > half of periodic box length (src/domain.cpp:906)
Loop time of 7.8202e-07 on 1 procs for 0 steps with 148 atoms

127.9% CPU use with 1 MPI tasks x 1 OpenMP threads

MPI task timing breakdown:
Section |  min time  |  avg time  |  max time  |%varavg| %total
---------------------------------------------------------------
Pair    | 0          | 0          | 0          |   0.0 |  0.00
Bond    | 0          | 0          | 0          |   0.0 |  0.00
Neigh   | 0          | 0          | 0          |   0.0 |  0.00
Comm    | 0          | 0          | 0          |   0.0 |  0.00
Output  | 0          | 0          | 0          |   0.0 |  0.00
Modify  | 0          | 0          | 0          |   0.0 |  0.00
Other   |            | 7.82e-07   |            |       |100.00

Nlocal:    148 ave 148 max 148 min
Histogram: 1 0 0 0 0 0 0 0 0 0
Nghost:    1484 ave 1484 max 1484 min
Histogram: 1 0 0 0 0 0 0 0 0 0
Neighs:    9567 ave 9567 max 9567 min
Histogram: 1 0 0 0 0 0 0 0 0 0

Total # of neighbors = 9567
Ave neighs/atom = 64.6419
Ave special neighs/atom = 6.32432
Neighbor list builds = 0
Dangerous builds = 0
undump          NiPyC2_relax_sc211_meta_functionalized_CH2-NH2_restart
Total wall time: 0:00:06
