units           real
atom_style      full
boundary        p p p

pair_style      lj/cut 5.000
bond_style      harmonic
angle_style     hybrid cosine/periodic fourier
dihedral_style  harmonic
improper_style  fourier

special_bonds   lj/coul 0.0 0.0 1.0
pair_modify     tail yes mix arithmetic
dielectric      1.0
box tilt        large
read_data       data.NiPyC2_relax_sc211_ortho_functionalized_CH2-NH2
  triclinic box = (0 0 0) to (12.5056 12.5234 10.2743) with tilt (0 -0.227594 0)
  1 by 1 by 1 MPI processor grid
  reading atoms ...
  148 atoms
  scanning bonds ...
  6 = max bonds/atom
  scanning angles ...
  15 = max angles/atom
  scanning dihedrals ...
  10 = max dihedrals/atom
  scanning impropers ...
  3 = max impropers/atom
  reading bonds ...
  168 bonds
  reading angles ...
  316 angles
  reading dihedrals ...
  352 dihedrals
  reading impropers ...
  192 impropers
  6 = max # of 1-2 neighbors
  9 = max # of 1-3 neighbors
  12 = max # of special neighbors
  special bonds CPU = 0.000104648 secs
  read_data CPU = 0.00690787 secs

#### Atom Groupings ####
group           fram     id   1:148
148 atoms in group fram
#### END Atom Groupings ####

dump            NiPyC2_relax_sc211_ortho_functionalized_CH2-NH2_xyzmov all xyz 20000 NiPyC2_relax_sc211_ortho_functionalized_CH2-NH2_mov.xyz
dump_modify     NiPyC2_relax_sc211_ortho_functionalized_CH2-NH2_xyzmov element Ni O N C H C N
min_style       cg
print           "MinStep,CellMinStep,AtomMinStep,FinalStep,Energy,EDiff,vol,lx,ly,lz,xy,xz,yz" file NiPyC2_relax_sc211_ortho_functionalized_CH2-NH2.min.csv screen no
variable        min_eval   equal 1.00e-06
variable        prev_E     equal 50000.00
variable        iter       loop 100000
label           loop_min
min_style       cg
variable        tempstp    equal $(step)
variable        tempstp    equal 0
variable        CellMinStep equal ${tempstp}
variable        CellMinStep equal 0
minimize        1.0e-15 1.0e-15 10000 100000
WARNING: Using 'neigh_modify every 1 delay 0 check yes' setting during minimization (src/min.cpp:190)
Neighbor list info ...
  update every 1 steps, delay 0 steps, check yes
  max neighbors/atom: 2000, page size: 100000
  master list distance cutoff = 7
  ghost atom cutoff = 7
  binsize = 3.5, bins = 4 4 3
  1 neighbor lists, perpetual/occasional/extra = 1 0 0
  (1) pair lj/cut, perpetual
      attributes: half, newton on
      pair build: half/bin/newton/tri
      stencil: half/bin/3d/newton/tri
      bin: standard
WARNING: Inconsistent image flags (src/domain.cpp:785)
WARNING: Bond/angle/dihedral extent > half of periodic box length (src/domain.cpp:906)
Per MPI rank memory allocation (min/avg/max) = 17.54 | 17.54 | 17.54 Mbytes
Step Temp E_pair E_mol TotEng Press 
       0            0    7286753.1    2245.8718      7288999 1.2422305e+09 
     187            0    197.60921    1971.5235    2169.1327   -38851.398 
WARNING: Bond/angle/dihedral extent > half of periodic box length (src/domain.cpp:906)
Loop time of 0.0892045 on 1 procs for 187 steps with 148 atoms

99.6% CPU use with 1 MPI tasks x 1 OpenMP threads

Minimization stats:
  Stopping criterion = linesearch alpha is zero
  Energy initial, next-to-last, final = 
         7288998.98007      2169.13265996      2169.13265996
  Force two-norm initial, final = 1.4335e+08 15.0824
  Force max component initial, final = 8.2175e+07 3.22608
  Final line search alpha, max atom move = 3.96567e-11 1.27936e-10
  Iterations, force evaluations = 187 393

MPI task timing breakdown:
Section |  min time  |  avg time  |  max time  |%varavg| %total
---------------------------------------------------------------
Pair    | 0.048864   | 0.048864   | 0.048864   |   0.0 | 54.78
Bond    | 0.029056   | 0.029056   | 0.029056   |   0.0 | 32.57
Neigh   | 0.0058304  | 0.0058304  | 0.0058304  |   0.0 |  6.54
Comm    | 0.0032298  | 0.0032298  | 0.0032298  |   0.0 |  3.62
Output  | 0          | 0          | 0          |   0.0 |  0.00
Modify  | 0          | 0          | 0          |   0.0 |  0.00
Other   |            | 0.002225   |            |       |  2.49

Nlocal:    148 ave 148 max 148 min
Histogram: 1 0 0 0 0 0 0 0 0 0
Nghost:    1474 ave 1474 max 1474 min
Histogram: 1 0 0 0 0 0 0 0 0 0
Neighs:    9159 ave 9159 max 9159 min
Histogram: 1 0 0 0 0 0 0 0 0 0

Total # of neighbors = 9159
Ave neighs/atom = 61.8851
Ave special neighs/atom = 6.32432
Neighbor list builds = 7
Dangerous builds = 0
variable        AtomMinStep equal ${tempstp}
variable        AtomMinStep equal 0
variable        temppe     equal $(pe)
variable        temppe     equal 2169.1326599625517701
variable        min_E      equal abs(${prev_E}-${temppe})
variable        min_E      equal abs(50000-${temppe})
variable        min_E      equal abs(50000-2169.13265996255)
print           "${iter},${CellMinStep},${AtomMinStep},${AtomMinStep},$(pe),${min_E},$(vol),$(lx),$(ly),$(lz),$(xy),$(xz),$(yz)" append NiPyC2_relax_sc211_ortho_functionalized_CH2-NH2.min.csv screen no
if              "${min_E} < ${min_eval}" then "jump SELF break_min"
variable        prev_E     equal ${temppe}
variable        prev_E     equal 2169.13265996255
next            iter
jump            SELF loop_min
min_style       cg
variable        tempstp    equal $(step)
variable        tempstp    equal 187
variable        CellMinStep equal ${tempstp}
variable        CellMinStep equal 187
minimize        1.0e-15 1.0e-15 10000 100000
WARNING: Using 'neigh_modify every 1 delay 0 check yes' setting during minimization (src/min.cpp:190)
WARNING: Inconsistent image flags (src/domain.cpp:785)
WARNING: Bond/angle/dihedral extent > half of periodic box length (src/domain.cpp:906)
Per MPI rank memory allocation (min/avg/max) = 17.54 | 17.54 | 17.54 Mbytes
Step Temp E_pair E_mol TotEng Press 
     187            0    197.60921    1971.5235    2169.1327   -38851.398 
     474            0    144.80631    1916.2142    2061.0205     -51592.5 
WARNING: Bond/angle/dihedral extent > half of periodic box length (src/domain.cpp:906)
Loop time of 0.13277 on 1 procs for 287 steps with 148 atoms

99.9% CPU use with 1 MPI tasks x 1 OpenMP threads

Minimization stats:
  Stopping criterion = linesearch alpha is zero
  Energy initial, next-to-last, final = 
         2169.13265996      2061.02049514      2061.02049514
  Force two-norm initial, final = 15.0824 13.0345
  Force max component initial, final = 3.22608 3.81464
  Final line search alpha, max atom move = 3.68581e-11 1.406e-10
  Iterations, force evaluations = 287 619

MPI task timing breakdown:
Section |  min time  |  avg time  |  max time  |%varavg| %total
---------------------------------------------------------------
Pair    | 0.073056   | 0.073056   | 0.073056   |   0.0 | 55.02
Bond    | 0.044169   | 0.044169   | 0.044169   |   0.0 | 33.27
Neigh   | 0.0079213  | 0.0079213  | 0.0079213  |   0.0 |  5.97
Comm    | 0.0044555  | 0.0044555  | 0.0044555  |   0.0 |  3.36
Output  | 0          | 0          | 0          |   0.0 |  0.00
Modify  | 0          | 0          | 0          |   0.0 |  0.00
Other   |            | 0.003168   |            |       |  2.39

Nlocal:    148 ave 148 max 148 min
Histogram: 1 0 0 0 0 0 0 0 0 0
Nghost:    1454 ave 1454 max 1454 min
Histogram: 1 0 0 0 0 0 0 0 0 0
Neighs:    9114 ave 9114 max 9114 min
Histogram: 1 0 0 0 0 0 0 0 0 0

Total # of neighbors = 9114
Ave neighs/atom = 61.5811
Ave special neighs/atom = 6.32432
Neighbor list builds = 9
Dangerous builds = 0
variable        AtomMinStep equal ${tempstp}
variable        AtomMinStep equal 187
variable        temppe     equal $(pe)
variable        temppe     equal 2061.0204951354539844
variable        min_E      equal abs(${prev_E}-${temppe})
variable        min_E      equal abs(2169.13265996255-${temppe})
variable        min_E      equal abs(2169.13265996255-2061.02049513545)
print           "${iter},${CellMinStep},${AtomMinStep},${AtomMinStep},$(pe),${min_E},$(vol),$(lx),$(ly),$(lz),$(xy),$(xz),$(yz)" append NiPyC2_relax_sc211_ortho_functionalized_CH2-NH2.min.csv screen no
if              "${min_E} < ${min_eval}" then "jump SELF break_min"
variable        prev_E     equal ${temppe}
variable        prev_E     equal 2061.02049513545
next            iter
jump            SELF loop_min
min_style       cg
variable        tempstp    equal $(step)
variable        tempstp    equal 474
variable        CellMinStep equal ${tempstp}
variable        CellMinStep equal 474
minimize        1.0e-15 1.0e-15 10000 100000
WARNING: Using 'neigh_modify every 1 delay 0 check yes' setting during minimization (src/min.cpp:190)
WARNING: Inconsistent image flags (src/domain.cpp:785)
WARNING: Bond/angle/dihedral extent > half of periodic box length (src/domain.cpp:906)
Per MPI rank memory allocation (min/avg/max) = 17.54 | 17.54 | 17.54 Mbytes
Step Temp E_pair E_mol TotEng Press 
     474            0    144.80631    1916.2142    2061.0205     -51592.5 
     503            0    141.85543    1918.0256     2059.881   -52579.033 
WARNING: Bond/angle/dihedral extent > half of periodic box length (src/domain.cpp:906)
Loop time of 0.0197724 on 1 procs for 29 steps with 148 atoms

99.8% CPU use with 1 MPI tasks x 1 OpenMP threads

Minimization stats:
  Stopping criterion = linesearch alpha is zero
  Energy initial, next-to-last, final = 
         2061.02049514      2059.88100743      2059.88100743
  Force two-norm initial, final = 13.0345 6.58602
  Force max component initial, final = 3.81464 1.06486
  Final line search alpha, max atom move = 2.81162e-10 2.99399e-10
  Iterations, force evaluations = 29 107

MPI task timing breakdown:
Section |  min time  |  avg time  |  max time  |%varavg| %total
---------------------------------------------------------------
Pair    | 0.011434   | 0.011434   | 0.011434   |   0.0 | 57.83
Bond    | 0.0070877  | 0.0070877  | 0.0070877  |   0.0 | 35.85
Neigh   | 0          | 0          | 0          |   0.0 |  0.00
Comm    | 0.00070912 | 0.00070912 | 0.00070912 |   0.0 |  3.59
Output  | 0          | 0          | 0          |   0.0 |  0.00
Modify  | 0          | 0          | 0          |   0.0 |  0.00
Other   |            | 0.000542   |            |       |  2.74

Nlocal:    148 ave 148 max 148 min
Histogram: 1 0 0 0 0 0 0 0 0 0
Nghost:    1452 ave 1452 max 1452 min
Histogram: 1 0 0 0 0 0 0 0 0 0
Neighs:    9129 ave 9129 max 9129 min
Histogram: 1 0 0 0 0 0 0 0 0 0

Total # of neighbors = 9129
Ave neighs/atom = 61.6824
Ave special neighs/atom = 6.32432
Neighbor list builds = 0
Dangerous builds = 0
variable        AtomMinStep equal ${tempstp}
variable        AtomMinStep equal 474
variable        temppe     equal $(pe)
variable        temppe     equal 2059.8810074344446548
variable        min_E      equal abs(${prev_E}-${temppe})
variable        min_E      equal abs(2061.02049513545-${temppe})
variable        min_E      equal abs(2061.02049513545-2059.88100743444)
print           "${iter},${CellMinStep},${AtomMinStep},${AtomMinStep},$(pe),${min_E},$(vol),$(lx),$(ly),$(lz),$(xy),$(xz),$(yz)" append NiPyC2_relax_sc211_ortho_functionalized_CH2-NH2.min.csv screen no
if              "${min_E} < ${min_eval}" then "jump SELF break_min"
variable        prev_E     equal ${temppe}
variable        prev_E     equal 2059.88100743444
next            iter
jump            SELF loop_min
min_style       cg
variable        tempstp    equal $(step)
variable        tempstp    equal 503
variable        CellMinStep equal ${tempstp}
variable        CellMinStep equal 503
minimize        1.0e-15 1.0e-15 10000 100000
WARNING: Using 'neigh_modify every 1 delay 0 check yes' setting during minimization (src/min.cpp:190)
WARNING: Inconsistent image flags (src/domain.cpp:785)
WARNING: Bond/angle/dihedral extent > half of periodic box length (src/domain.cpp:906)
Per MPI rank memory allocation (min/avg/max) = 17.54 | 17.54 | 17.54 Mbytes
Step Temp E_pair E_mol TotEng Press 
     503            0    141.85543    1918.0256     2059.881   -52579.033 
     506            0    141.77348    1918.0853    2059.8588   -52616.381 
WARNING: Bond/angle/dihedral extent > half of periodic box length (src/domain.cpp:906)
Loop time of 0.011101 on 1 procs for 3 steps with 148 atoms

99.8% CPU use with 1 MPI tasks x 1 OpenMP threads

Minimization stats:
  Stopping criterion = linesearch alpha is zero
  Energy initial, next-to-last, final = 
         2059.88100743      2059.85878973      2059.85878973
  Force two-norm initial, final = 6.58602 4.38228
  Force max component initial, final = 1.06486 0.719966
  Final line search alpha, max atom move = 6.30089e-10 4.53642e-10
  Iterations, force evaluations = 3 59

MPI task timing breakdown:
Section |  min time  |  avg time  |  max time  |%varavg| %total
---------------------------------------------------------------
Pair    | 0.0064014  | 0.0064014  | 0.0064014  |   0.0 | 57.67
Bond    | 0.0039852  | 0.0039852  | 0.0039852  |   0.0 | 35.90
Neigh   | 0          | 0          | 0          |   0.0 |  0.00
Comm    | 0.00038828 | 0.00038828 | 0.00038828 |   0.0 |  3.50
Output  | 0          | 0          | 0          |   0.0 |  0.00
Modify  | 0          | 0          | 0          |   0.0 |  0.00
Other   |            | 0.0003261  |            |       |  2.94

Nlocal:    148 ave 148 max 148 min
Histogram: 1 0 0 0 0 0 0 0 0 0
Nghost:    1444 ave 1444 max 1444 min
Histogram: 1 0 0 0 0 0 0 0 0 0
Neighs:    9119 ave 9119 max 9119 min
Histogram: 1 0 0 0 0 0 0 0 0 0

Total # of neighbors = 9119
Ave neighs/atom = 61.6149
Ave special neighs/atom = 6.32432
Neighbor list builds = 0
Dangerous builds = 0
variable        AtomMinStep equal ${tempstp}
variable        AtomMinStep equal 503
variable        temppe     equal $(pe)
variable        temppe     equal 2059.8587897271813745
variable        min_E      equal abs(${prev_E}-${temppe})
variable        min_E      equal abs(2059.88100743444-${temppe})
variable        min_E      equal abs(2059.88100743444-2059.85878972718)
print           "${iter},${CellMinStep},${AtomMinStep},${AtomMinStep},$(pe),${min_E},$(vol),$(lx),$(ly),$(lz),$(xy),$(xz),$(yz)" append NiPyC2_relax_sc211_ortho_functionalized_CH2-NH2.min.csv screen no
if              "${min_E} < ${min_eval}" then "jump SELF break_min"
variable        prev_E     equal ${temppe}
variable        prev_E     equal 2059.85878972718
next            iter
jump            SELF loop_min
min_style       cg
variable        tempstp    equal $(step)
variable        tempstp    equal 506
variable        CellMinStep equal ${tempstp}
variable        CellMinStep equal 506
minimize        1.0e-15 1.0e-15 10000 100000
WARNING: Using 'neigh_modify every 1 delay 0 check yes' setting during minimization (src/min.cpp:190)
WARNING: Inconsistent image flags (src/domain.cpp:785)
WARNING: Bond/angle/dihedral extent > half of periodic box length (src/domain.cpp:906)
Per MPI rank memory allocation (min/avg/max) = 17.54 | 17.54 | 17.54 Mbytes
Step Temp E_pair E_mol TotEng Press 
     506            0    141.77348    1918.0853    2059.8588   -52616.381 
     507            0    141.77348    1918.0853    2059.8588   -52616.381 
WARNING: Bond/angle/dihedral extent > half of periodic box length (src/domain.cpp:906)
Loop time of 0.0116196 on 1 procs for 1 steps with 148 atoms

99.9% CPU use with 1 MPI tasks x 1 OpenMP threads

Minimization stats:
  Stopping criterion = linesearch alpha is zero
  Energy initial, next-to-last, final = 
         2059.85878973      2059.85878973      2059.85878973
  Force two-norm initial, final = 4.38228 4.38228
  Force max component initial, final = 0.719966 0.719966
  Final line search alpha, max atom move = 5.17426e-10 3.72529e-10
  Iterations, force evaluations = 1 56

MPI task timing breakdown:
Section |  min time  |  avg time  |  max time  |%varavg| %total
---------------------------------------------------------------
Pair    | 0.0068074  | 0.0068074  | 0.0068074  |   0.0 | 58.59
Bond    | 0.0040625  | 0.0040625  | 0.0040625  |   0.0 | 34.96
Neigh   | 0          | 0          | 0          |   0.0 |  0.00
Comm    | 0.00039844 | 0.00039844 | 0.00039844 |   0.0 |  3.43
Output  | 0          | 0          | 0          |   0.0 |  0.00
Modify  | 0          | 0          | 0          |   0.0 |  0.00
Other   |            | 0.0003513  |            |       |  3.02

Nlocal:    148 ave 148 max 148 min
Histogram: 1 0 0 0 0 0 0 0 0 0
Nghost:    1444 ave 1444 max 1444 min
Histogram: 1 0 0 0 0 0 0 0 0 0
Neighs:    9118 ave 9118 max 9118 min
Histogram: 1 0 0 0 0 0 0 0 0 0

Total # of neighbors = 9118
Ave neighs/atom = 61.6081
Ave special neighs/atom = 6.32432
Neighbor list builds = 0
Dangerous builds = 0
variable        AtomMinStep equal ${tempstp}
variable        AtomMinStep equal 506
variable        temppe     equal $(pe)
variable        temppe     equal 2059.8587897271809197
variable        min_E      equal abs(${prev_E}-${temppe})
variable        min_E      equal abs(2059.85878972718-${temppe})
variable        min_E      equal abs(2059.85878972718-2059.85878972718)
print           "${iter},${CellMinStep},${AtomMinStep},${AtomMinStep},$(pe),${min_E},$(vol),$(lx),$(ly),$(lz),$(xy),$(xz),$(yz)" append NiPyC2_relax_sc211_ortho_functionalized_CH2-NH2.min.csv screen no
if              "${min_E} < ${min_eval}" then "jump SELF break_min"
jump SELF break_min
undump          NiPyC2_relax_sc211_ortho_functionalized_CH2-NH2_xyzmov

# Dump last snapshot for restart
variable curr_lx equal lx
variable curr_ly equal ly
variable curr_lz equal lz
change_box all x final 0 ${curr_lx} y final 0 ${curr_ly} z final 0 ${curr_lz}
change_box all x final 0 12.5056 y final 0 ${curr_ly} z final 0 ${curr_lz}
change_box all x final 0 12.5056 y final 0 12.5234 z final 0 ${curr_lz}
change_box all x final 0 12.5056 y final 0 12.5234 z final 0 10.274279
  triclinic box = (0 0 0) to (12.5056 12.5234 10.2743) with tilt (0 -0.227594 0)
  triclinic box = (0 0 0) to (12.5056 12.5234 10.2743) with tilt (0 -0.227594 0)
  triclinic box = (0 0 0) to (12.5056 12.5234 10.2743) with tilt (0 -0.227594 0)

reset_timestep 0
dump            NiPyC2_relax_sc211_ortho_functionalized_CH2-NH2_restart all atom 1 NiPyC2_relax_sc211_ortho_functionalized_CH2-NH2_restart.lammpstrj
dump_modify     NiPyC2_relax_sc211_ortho_functionalized_CH2-NH2_restart scale no sort id
run 0
WARNING: No fixes defined, atoms won't move (src/verlet.cpp:52)
WARNING: Inconsistent image flags (src/domain.cpp:785)
WARNING: Bond/angle/dihedral extent > half of periodic box length (src/domain.cpp:906)
Per MPI rank memory allocation (min/avg/max) = 16.41 | 16.41 | 16.41 Mbytes
Step Temp E_pair E_mol TotEng Press 
       0            0    141.77348    1918.0853    2059.8588   -52616.381 
WARNING: Bond/angle/dihedral extent > half of periodic box length (src/domain.cpp:906)
Loop time of 7.81001e-07 on 1 procs for 0 steps with 148 atoms

384.1% CPU use with 1 MPI tasks x 1 OpenMP threads

MPI task timing breakdown:
Section |  min time  |  avg time  |  max time  |%varavg| %total
---------------------------------------------------------------
Pair    | 0          | 0          | 0          |   0.0 |  0.00
Bond    | 0          | 0          | 0          |   0.0 |  0.00
Neigh   | 0          | 0          | 0          |   0.0 |  0.00
Comm    | 0          | 0          | 0          |   0.0 |  0.00
Output  | 0          | 0          | 0          |   0.0 |  0.00
Modify  | 0          | 0          | 0          |   0.0 |  0.00
Other   |            | 7.81e-07   |            |       |100.00

Nlocal:    148 ave 148 max 148 min
Histogram: 1 0 0 0 0 0 0 0 0 0
Nghost:    1444 ave 1444 max 1444 min
Histogram: 1 0 0 0 0 0 0 0 0 0
Neighs:    9118 ave 9118 max 9118 min
Histogram: 1 0 0 0 0 0 0 0 0 0

Total # of neighbors = 9118
Ave neighs/atom = 61.6081
Ave special neighs/atom = 6.32432
Neighbor list builds = 0
Dangerous builds = 0
undump          NiPyC2_relax_sc211_ortho_functionalized_CH2-NH2_restart
Total wall time: 0:00:00
