ITEM: TIMESTEP
0
ITEM: NUMBER OF ATOMS
148
ITEM: BOX BOUNDS xy xz yz pp pp pp
-2.6139407255941222e-01 1.4103788186556200e+01 0.0000000000000000e+00
0.0000000000000000e+00 9.2959386990140302e+00 -2.6139407255941222e-01
0.0000000000000000e+00 1.1800116129694301e+01 0.0000000000000000e+00
ITEM: ATOMS id type x y z
1 1 2.49399 8.43676 9.24026
2 1 6.08727 3.66947 3.32712
3 2 0.491879 5.04511 3.37567
4 2 3.91555 7.40526 9.42356
5 2 4.63347 2.67911 3.44454
6 2 1.07885 0.173843 9.3783
7 2 5.62471 4.79105 4.57942
8 2 2.01795 7.32484 10.5326
9 2 13.6024 2.82329 4.27974
10 2 2.96734 0.303569 10.5078
11 3 3.24854 0.247529 7.84535
12 3 13.988 2.98437 1.70676
13 3 1.73374 7.28491 7.88593
14 3 5.37148 4.84787 2.04315
15 4 3.1515 1.02486 5.53368
16 4 14.0583 1.11659 0.220551
17 4 4.54113 1.3373 5.56594
18 4 0.976706 1.51261 11.5134
19 4 5.24437 1.00431 6.71808
20 4 1.79679 2.66394 0.254749
21 5 2.49037 3.01766 11.7152
22 4 1.89035 6.13696 5.75377
23 4 5.68347 6.09688 0.0382397
24 5 2.51413 5.74552 4.96195
25 4 2.49788 6.76677 6.87618
26 4 6.18914 5.42695 1.15584
27 5 3.53683 7.02904 6.82856
28 5 0.139471 6.02572 1.05975
29 4 2.50972 0.595688 6.74293
30 4 13.6347 1.69387 1.43558
31 5 1.46059 0.361892 6.73148
32 5 5.00457 2.27726 0.897766
33 4 4.61061 0.327161 7.76315
34 4 1.07013 3.43081 1.17459
35 5 5.21855 9.09693 8.46476
36 5 1.48519 4.35336 1.48457
37 4 0.37706 7.34319 7.71052
38 4 4.04879 5.19471 2.06999
39 5 13.8951 8.00246 8.31123
40 5 3.4235 4.86781 2.88776
41 4 13.8371 6.72621 6.63229
42 4 3.49349 5.98357 1.0416
43 5 2.47258 6.3269 1.12081
44 4 0.48416 6.13294 5.61805
45 4 4.00355 6.32672 11.7244
46 4 5.27926 2.00021 4.4143
47 4 1.71045 0.797712 10.3794
48 4 13.9048 5.59618 4.37919
49 4 3.27751 6.82663 10.4604
50 1 9.46229 8.88029 8.9542
51 1 13.1627 4.03667 3.10523
52 2 7.55174 4.66045 3.49466
53 2 10.9398 7.89101 9.16761
54 2 11.7119 3.01991 3.15598
55 2 7.98159 0.556711 9.09268
56 2 12.6499 5.08012 4.41371
57 2 9.01204 7.73262 10.2155
58 2 6.54282 2.48385 4.55813
59 2 9.86262 0.730523 10.2235
60 3 10.2057 0.781641 7.61068
61 3 6.81635 2.55523 1.94552
62 3 8.77038 7.68258 7.55157
63 3 12.4224 5.27977 1.81979
64 4 10.1622 1.66434 5.35705
65 4 6.46362 2.01461 11.3908
66 5 9.63702 1.69776 4.42339
67 4 11.541 1.95743 5.4098
68 4 7.85612 1.70964 11.3652
69 4 12.1643 1.85517 6.66054
70 4 8.82188 1.86679 0.768746
71 5 6.30066 1.19276 6.78146
72 5 9.88199 1.65864 0.812063
73 4 8.7533 6.78836 5.28646
74 4 12.3565 6.33217 11.47
75 5 9.20485 6.75994 4.3024
76 4 9.35276 7.56521 6.3096
77 4 13.1866 5.91285 0.897262
78 5 10.1924 8.16397 6.04868
79 5 7.25569 5.30924 1.27154
80 4 9.48547 1.21482 6.52503
81 4 6.08409 2.24322 0.84117
82 5 8.43592 0.996183 6.46534
83 5 12.8014 1.24103 1.94671
84 4 11.5508 1.05235 7.64708
85 4 8.17154 2.35175 1.92114
86 5 12.1663 0.536493 8.34031
87 5 8.76978 2.67798 2.74912
88 4 7.51173 7.16675 7.70218
89 4 11.0609 5.48015 1.78023
90 5 6.84302 7.66062 8.34997
91 5 10.4411 5.11622 2.58794
92 4 7.01029 6.18038 6.81266
93 4 10.4516 6.18204 0.70197
94 5 9.39959 6.41819 0.752544
95 4 7.56291 6.09154 5.53553
96 4 10.9546 6.57362 11.3834
97 4 12.3239 2.37608 4.17324
98 4 8.60111 1.1964 10.1194
99 4 6.87088 5.31389 4.44512
100 4 10.2696 7.24461 10.1561
101 6 2.3792 1.03454 4.22746
102 7 1.3143 0.0341982 4.22991
103 5 3.04788 0.812569 3.36761
104 5 1.94763 2.04645 4.07996
105 5 1.73247 8.38641 4.0656
106 5 0.635144 0.240738 3.46559
107 6 12.6796 0.886568 11.0799
108 7 12.128 2.20953 10.7501
109 5 11.9061 0.260164 11.5761
110 5 13.0075 0.326295 10.205
111 5 11.4819 2.54489 11.5002
112 5 11.6448 2.2513 9.83562
113 6 12.3529 6.89822 6.49681
114 7 11.5941 5.75352 7.01683
115 5 12.0693 7.13807 5.45074
116 5 12.0616 7.7932 7.05956
117 5 12.177 5.07749 7.55379
118 5 11.0623 5.2635 6.26341
119 6 6.44995 6.6913 10.9573
120 7 7.50514 5.69116 10.6688
121 5 6.02271 7.10725 10.0726
122 5 6.90089 7.54599 11.5047
123 5 7.24441 4.69976 10.8728
124 5 7.86315 5.72675 9.69628
125 6 13.4577 2.60609 6.93734
126 7 13.7159 2.86372 8.33644
127 5 0.201143 2.06088 6.49574
128 5 13.4121 3.59874 6.45773
129 5 13.8427 1.96197 8.81732
130 5 0.523224 3.37027 8.39914
131 6 5.62936 1.93864 10.1574
132 7 4.56911 2.94232 10.0931
133 5 5.19787 0.934811 10.2097
134 5 6.23233 2.07515 9.24408
135 5 4.48773 3.59996 10.8971
136 5 3.67171 2.58276 9.70402
137 6 5.87696 5.24643 7.18932
138 7 5.57458 5.22148 8.59238
139 5 4.97199 5.5411 6.64429
140 5 6.13786 4.20798 6.875
141 5 4.55478 5.02662 8.70742
142 5 6.1234 4.43984 9.00044
143 6 13.2275 6.35237 10.2787
144 7 0.12314 5.28868 10.3469
145 5 12.6399 6.21727 9.36348
146 5 13.7222 7.33475 10.309
147 5 13.7497 4.36319 10.4177
148 5 0.734318 5.3154 9.50298
