ITEM: TIMESTEP
0
ITEM: NUMBER OF ATOMS
148
ITEM: BOX BOUNDS xy xz yz pp pp pp
-2.2857398879227117e-01 1.5087008355910500e+01 0.0000000000000000e+00
0.0000000000000000e+00 1.0599910878108799e+01 -2.2857398879227117e-01
0.0000000000000000e+00 1.0318518647216800e+01 0.0000000000000000e+00
ITEM: ATOMS id type x y z
1 1 2.42234 9.23597 9.03071
2 1 5.98549 3.40193 3.45333
3 2 0.147283 4.72577 4.03883
4 2 3.90839 8.34131 9.22332
5 2 4.67083 2.26024 3.5685
6 2 0.947544 10.1594 9.08897
7 2 5.42295 4.56796 4.7104
8 2 2.2292 8.16315 0.0541806
9 2 14.1473 2.55148 5.17906
10 2 2.80998 10.5276 10.2183
11 3 3.14082 10.3212 7.63661
12 3 14.4591 2.56787 2.52798
13 3 1.72071 7.91728 7.78486
14 3 5.17535 4.4825 2.09384
15 4 3.34032 0.393883 5.341
16 4 14.8756 1.86707 0.242122
17 5 2.89071 0.534594 4.37299
18 5 6.66399 1.36484 9.19925
19 4 4.64423 0.859162 5.57052
20 4 0.948196 1.16345 0.641642
21 4 5.19142 0.707104 6.82978
22 4 1.19782 1.05542 1.99143
23 5 12.9234 1.87304 7.71688
24 5 2.01445 0.439556 2.33865
25 4 1.47808 6.95724 5.57943
26 4 5.44474 6.23319 0.456277
27 5 1.83577 6.89222 4.55984
28 5 13.2802 6.1123 9.7507
29 4 2.29569 7.55365 6.58232
30 4 5.96114 5.14363 1.18346
31 5 14.7409 5.07342 1.33744
32 4 2.54772 10.5386 6.4184
33 4 14.0042 2.44678 1.22405
34 5 5.41604 2.49763 0.561863
35 4 4.42102 0.164671 7.85636
36 4 0.46256 1.81764 2.90532
37 5 4.88121 10.5942 8.81469
38 5 0.83165 1.88314 3.89996
39 4 0.483599 7.40256 8.10645
40 4 3.85606 4.88185 2.24533
41 5 0.0291821 7.65593 9.05149
42 4 14.8465 6.59826 7.2099
43 4 3.42419 6.09912 1.732
44 5 7.30359 4.60251 7.0957
45 5 2.43833 6.47408 1.98782
46 4 0.25115 6.36139 5.93294
47 4 4.14822 6.7029 0.734448
48 4 5.34395 1.66361 4.54141
49 4 1.53487 0.355697 9.98016
50 4 14.6159 5.42388 4.99404
51 4 3.27744 7.72688 10.2161
52 1 9.79461 8.67496 8.67678
53 1 13.7529 3.77197 3.90358
54 2 7.31555 4.56663 3.57689
55 2 11.2671 7.78377 8.86461
56 2 12.3091 2.79981 4.00993
57 2 8.26264 9.55809 8.70748
58 2 13.3724 4.93575 5.20323
59 2 9.35158 7.43309 9.89524
60 2 6.50734 2.30996 4.76268
61 2 10.0334 9.81823 10.0301
62 3 10.6312 10.0046 7.51316
63 3 6.83507 2.23204 2.13774
64 3 9.22892 7.43516 7.20157
65 3 13.024 5.03868 2.60022
66 4 10.928 0.525297 5.42578
67 4 6.85279 1.2568 10.252
68 5 10.6939 0.488269 4.37482
69 5 14.3522 1.84694 9.5267
70 4 12.0768 1.19943 5.87472
71 4 8.12402 0.421473 0.386447
72 4 12.3056 1.14175 7.2305
73 4 8.39206 0.430822 1.74826
74 5 6.21624 0.998234 7.01715
75 5 9.16272 10.3778 2.14387
76 4 7.88417 7.32671 5.1782
77 4 13.0322 6.02016 0.395289
78 5 7.66198 7.73062 4.19692
79 5 5.82908 6.71763 10.0246
80 4 9.03971 7.80966 5.88048
81 4 13.7126 5.38208 1.46418
82 5 6.99192 4.84808 1.04064
83 4 10.0652 10.5226 6.38651
84 4 6.34146 2.03414 0.869449
85 5 9.01868 10.3648 6.16698
86 4 11.8387 0.00324479 7.92592
87 4 7.98659 1.55724 2.49522
88 4 8.66188 6.22079 7.57728
89 4 11.7883 5.66945 2.83536
90 5 9.03436 5.68229 8.43002
91 4 7.67831 5.57109 6.787
92 4 11.2716 6.56998 1.88217
93 5 13.8871 6.19496 7.50513
94 5 10.3467 7.09931 2.07633
95 4 7.28998 6.10379 5.55711
96 4 11.7208 6.49884 0.594242
97 4 12.8888 2.08097 4.94894
98 4 8.76888 10.2418 9.74426
99 4 6.60843 5.21264 4.51583
100 4 10.6739 7.06181 9.78874
101 6 1.08958 0.217475 6.3629
102 7 0.877008 1.47327 7.07021
103 5 0.720132 0.279428 5.32375
104 5 0.49907 9.99695 6.8056
105 5 -0.122279 1.58189 7.30233
106 5 1.21951 2.28342 6.50739
107 6 12.5122 2.52735 0.913883
108 7 11.9755 3.25195 9.99623
109 5 11.9543 3.01621 1.71319
110 5 12.0832 1.5078 0.869567
111 5 11.2569 2.73697 9.43812
112 5 12.8094 3.48942 9.4147
113 6 3.78369 7.35033 6.48564
114 7 4.16705 6.23118 7.34008
115 5 4.08772 7.13832 5.43574
116 5 4.33828 8.25746 6.77919
117 5 3.9601 5.32596 6.85995
118 5 5.18166 6.29397 7.57321
119 6 2.81685 3.97117 2.80083
120 7 2.88823 3.95035 4.26011
121 5 1.81345 4.29282 2.4658
122 5 2.92641 2.97227 2.3506
123 5 2.80797 4.90855 4.65122
124 5 2.1762 3.32494 4.68116
125 6 12.9296 9.7974 8.58902
126 7 12.7164 9.57506 10.0155
127 5 13.8731 10.3392 8.47169
128 5 13.1099 8.85598 8.03377
129 5 13.2481 10.4079 0.234672
130 5 13.5403 8.7756 0.00834682
131 6 9.0792 2.34459 3.08341
132 7 9.02284 2.43193 4.54439
133 5 10.068 1.93844 2.77274
134 5 8.99569 3.32502 2.5866
135 5 9.97231 2.62084 4.88827
136 5 8.56329 3.28796 4.89542
137 6 10.2382 8.0945 5.00011
138 7 11.5213 8.12989 5.70456
139 5 10.2855 7.35535 4.22824
140 5 10.067 8.98513 4.37755
141 5 11.7001 7.23855 6.21632
142 5 12.2917 8.30252 5.01894
143 6 10.7363 5.02008 3.67855
144 7 10.9001 5.13309 5.12429
145 5 10.7265 4.03334 3.34129
146 5 9.71839 5.38018 3.40668
147 5 11.1966 4.23799 5.56251
148 5 9.97479 5.31899 5.5433
