148
Atoms. Timestep: 0
Ni 2.89857 9.41116 8.59265
Ni 6.17525 3.10579 3.48481
O 1.44827 4.35425 3.93374
O 4.4416 8.15245 9.05464
O 4.63665 1.84729 3.87523
O 1.36499 10.6744 9.00295
O 5.80609 4.46033 4.96242
O 2.54244 8.0327 10.0675
O 0.25117 1.69264 4.94273
O 3.23722 10.8047 10.0626
N 3.69677 10.6606 7.2416
N 0.71256 1.8642 2.11704
N 2.17217 8.14409 7.25198
N 5.44023 4.39481 2.13747
C 3.48546 12.1483 5.36301
C 0.47488 0.38955 0.2292
H 2.86453 12.5181 4.55267
H 5.86971 0.03371 9.69377
C 4.76073 0.1474 5.61481
C 1.74333 12.3699 0.47412
C 5.50345 12.1502 6.68209
C 2.49852 0.35508 1.54004
H 0.24768 12.5084 6.91993
H 3.49155 12.5067 1.77336
C 2.48363 6.6337 5.40822
C 5.72803 5.90364 0.28669
H 3.13294 6.27291 4.61605
H -0.10828 6.26667 9.7662
C 2.92756 7.68099 6.23068
C 6.1883 4.86756 1.11596
H 0.91589 4.41889 0.97634
C 2.98256 11.1359 6.19748
C -0.01036 1.40553 1.07106
H 5.26093 1.85011 0.92351
C 4.93641 11.1381 7.47507
C 1.94823 1.3719 2.3406
H 5.48559 10.7097 8.30944
H 2.50886 1.79214 3.17267
C 0.94573 7.62654 7.47302
C 4.21083 4.90458 2.35686
H 0.36328 8.05184 8.28732
C 0.43859 6.57577 6.69176
C 3.68763 5.945 1.56944
H 5.70774 6.17693 6.91975
H 2.69824 6.32683 1.80071
C 1.22745 6.06471 5.65205
C 4.46338 6.45777 0.52027
C 5.3126 1.24381 4.79419
C 2.0502 11.2675 9.92158
C 0.73548 4.94016 4.83586
C 3.73174 7.56629 9.95688
Ni 9.15137 9.41116 8.59265
Ni 12.4281 3.10579 3.48481
O 7.70109 4.35425 3.93374
O 10.6944 8.15245 9.05464
O 10.8895 1.84729 3.87523
O 7.61779 10.6744 9.00295
O 12.0589 4.46033 4.96242
O 8.79524 8.0327 10.0675
O 6.50397 1.69264 4.94273
O 9.49002 10.8047 10.0626
N 9.94957 10.6606 7.2416
N 6.96536 1.8642 2.11704
N 8.42499 8.14409 7.25198
N 11.693 4.39481 2.13747
C 9.73826 12.1483 5.36301
C 6.72768 0.38955 0.2292
H 9.11733 12.5181 4.55267
H 12.1225 0.03371 9.69377
C 11.0135 0.1474 5.61481
C 7.99613 12.3699 0.47412
C 11.7562 12.1502 6.68209
C 8.75132 0.35508 1.54004
H 6.50047 12.5084 6.91993
H 9.74435 12.5067 1.77336
C 8.73644 6.6337 5.40822
C 11.9808 5.90364 0.28669
H 9.38574 6.27291 4.61605
H 6.14452 6.26667 9.7662
C 9.18036 7.68099 6.23068
C 12.4411 4.86756 1.11596
H 7.16869 4.41889 0.97634
C 9.23536 11.1359 6.19748
C 6.24244 1.40553 1.07106
H 8.24672 10.709 6.04703
C 11.1892 11.1381 7.47507
C 8.20102 1.3719 2.3406
C 7.19853 7.62654 7.47302
C 10.4636 4.90458 2.35686
H 6.61608 8.05184 8.28732
C 6.69139 6.57577 6.69176
C 9.94043 5.945 1.56944
H 11.9605 6.17693 6.91975
H 8.95104 6.32683 1.80071
C 7.48025 6.06471 5.65205
C 10.7162 6.45777 0.52027
C 11.5654 1.24381 4.79419
C 8.303 11.2675 9.92158
C 6.98827 4.94016 4.83586
C 9.98454 7.56629 9.95688
C 1.56647 10.5445 5.90771
N 1.16738 9.51728 6.86861
H 0.80964 11.3592 5.93786
H 1.57514 10.0848 4.89584
H 1.01465 9.96645 7.80138
H 0.24819 9.12044 6.56676
C 11.0879 2.02063 0.78685
N 10.7065 3.04857 1.75417
H 10.3184 1.21776 0.81367
H 10.8746 2.48587 10.0518
H 10.5482 2.59659 2.68466
H 9.79316 3.46147 1.45609
C 4.32209 8.32702 5.95721
N 4.65818 9.38795 6.90552
H 5.112 7.54612 6.01745
H 4.31399 8.76717 4.93667
H 4.81129 8.96303 7.84952
H 5.56554 9.81807 6.61359
C 3.33864 4.32122 3.51695
N 4.01562 3.26242 4.26425
H 3.07515 5.13358 4.22972
H 2.40905 3.8951 3.08151
H 4.81306 3.68043 4.79762
H 3.34713 2.87466 4.96872
C 12.0236 10.5476 8.65948
N 11.303 9.52054 9.41028
H 12.2981 11.3629 9.36462
H 0.44219 10.0881 8.24725
H 10.5088 9.96967 9.92293
H 11.9474 9.12457 10.1324
C 9.05045 1.94873 3.52073
N 8.34695 2.98165 4.27968
H 9.3205 1.12807 4.22142
H 9.97703 2.39891 3.10347
H 7.55128 2.54007 4.79645
H 9.00089 3.36792 4.99847
C 10.5749 8.32702 5.9572
N 10.911 9.38797 6.90551
H 11.3648 7.54614 6.01744
H 10.5668 8.76718 4.93666
H 11.0641 8.96305 7.84951
H 11.8183 9.8181 6.61357
C 9.59454 4.32656 3.52193
N 10.2539 3.23745 4.2409
H 8.63422 3.94055 3.1143
H 9.38714 5.14241 4.24766
H 10.3257 2.4075 3.60752
H 9.64735 2.95622 5.04497
148
Atoms. Timestep: 479
Ni 2.44438 9.2553 8.77168
Ni 5.98856 3.57665 3.53191
O 0.0978129 4.44271 4.02947
O 3.97701 8.44465 8.99089
O 4.62153 2.51119 3.61734
O 0.921699 10.1244 8.83442
O 5.43061 4.85218 4.69132
O 2.33682 8.23991 0.126433
O -0.988258 2.22573 5.04856
O 2.79394 10.6248 9.88414
N 3.09498 10.3315 7.31726
N -0.68374 2.38055 2.40032
N 1.80146 7.78636 7.58943
N 5.27047 4.59692 2.09226
C 3.14435 11.699 5.33115
C -0.29112 1.8356 10.1651
H 2.75172 0.989379 4.35422
H 6.77201 1.25957 9.18036
C 4.43488 1.18989 5.63499
C 0.947145 0.956785 0.551463
C 5.01807 0.777005 6.79364
C 1.15004 0.863063 1.91027
H 13.0203 1.64791 7.52816
H 1.93159 11.1477 2.30123
C 1.22928 6.89908 5.39769
C 5.57495 6.32461 0.442479
H 1.37439 6.94839 4.32232
H 13.24 6.1498 9.60616
C 2.16457 7.53928 6.2612
C 6.07429 5.22048 1.17326
H -0.413442 4.88744 1.31959
C 2.43104 10.8432 6.19426
C -1.03645 2.34671 1.0456
H 5.56824 2.56898 0.678875
C 4.35856 10.8112 7.61038
C 0.447513 1.70584 2.77827
H 4.85278 10.5195 8.52345
H 0.864051 1.89436 3.73878
C 0.766742 7.01267 8.10208
C 3.97126 5.06027 2.24307
H 0.438728 7.14473 9.11883
C 0.0456801 6.09181 7.30078
C 3.66206 6.3488 1.87347
H 6.72013 5.21826 7.23615
H 2.7584 6.81739 2.24668
C 0.222714 6.08116 5.92234
C 4.33549 6.89476 0.818964
C 5.20546 1.9525 4.65684
C 1.51245 11.0028 9.65864
C -0.497105 5.08074 5.03902
C 3.41206 7.86635 10.0272
Ni 9.82899 8.86737 8.77107
Ni -1.38317 3.51706 3.84869
O 7.36512 4.66754 3.65462
O 11.3019 7.97977 8.92659
O 12.2654 2.54731 3.90723
O 8.30298 9.75735 8.83295
O 13.3516 4.61301 5.22963
O 9.42837 7.66054 10.0324
O 6.36747 2.56204 4.92139
O 10.114 10.0532 10.0895
N 10.6269 10.1503 7.54556
N 6.86711 2.28583 2.34653
N 9.18869 7.58948 7.36185
N 13.0207 4.85579 2.63958
C 10.9589 11.073 5.34828
C 7.20572 1.25023 0.181781
H 10.7689 10.92 4.29655
H -0.437319 1.978 9.10444
C 12.0456 0.931696 5.77432
C 8.22764 11.3524 0.689358
C 12.2735 0.974945 7.14073
C 8.41275 11.3472 2.07102
H 6.01364 1.11804 7.05968
H 9.1251 10.6626 2.51019
C 8.38052 7.22975 5.08653
C 13.0285 6.02198 0.533791
H 8.49665 7.4206 4.02355
H 5.90036 6.70599 9.65199
C 9.39928 7.69419 5.99378
C 13.6959 5.24889 1.51055
H 7.08161 4.86528 1.00036
C 10.1033 10.4849 6.32731
C 6.45543 2.078 1.05501
H 9.09627 10.2018 6.06737
C 11.8146 10.8126 7.93038
C 7.92603 1.51663 2.83935
C 8.25515 6.63993 7.76757
C 11.8413 5.53575 2.97445
H 8.14467 6.38214 8.8042
C 7.38961 5.985 6.86438
C 11.3906 6.5851 2.15011
H -0.661481 5.41201 7.76206
H 10.5392 7.18739 2.44684
C 7.39427 6.30679 5.51681
C 11.7828 6.59476 0.840804
C 12.8561 1.77206 4.80944
C 8.83722 10.466 9.83188
C 6.67196 5.4102 4.51134
C 10.724 7.25315 9.85212
C 1.1608 10.2603 5.59642
N 0.10166 9.98124 6.53433
H 0.747743 10.9893 4.87996
H 1.34758 9.43029 4.89799
H -0.305747 9.04378 6.33943
H -0.635189 10.71 6.4336
C 12.6206 2.21476 0.582756
N 11.647 3.06443 1.22495
H 12.2926 1.18202 0.723111
H 12.3539 2.41527 9.55301
H 10.7763 2.51054 1.39782
H 11.3732 3.83926 0.581703
C 3.53905 7.82143 5.66881
N 4.6098 8.0052 6.62207
H 3.81854 6.95751 5.02803
H 3.49251 8.68198 4.97459
H 4.90728 7.07771 6.99516
H 5.41085 8.48599 6.15082
C 2.84129 4.17931 2.67804
N 2.82645 4.10764 4.13613
H 1.87748 4.59257 2.31407
H 2.91277 3.17705 2.20326
H 2.59115 5.01894 4.55332
H 2.22857 3.34105 4.49844
C 12.929 10.0872 8.70647
N 12.6997 9.84757 10.1332
H -1.28849 10.7215 8.64474
H 13.218 9.14822 8.19273
H 13.5726 10.4286 0.649539
H 13.2044 8.87226 0.31836
C 8.94139 2.1717 3.7256
N 8.72799 2.13779 5.18124
H 9.95504 1.81001 3.48235
H 8.89819 3.17129 3.37518
H 9.63715 2.11507 5.67363
H 8.41817 3.0808 5.50932
C 10.7954 7.85557 5.42041
N 11.8725 7.83813 6.3911
H 10.9821 7.06807 4.73431
H 10.8673 8.69848 4.72529
H 12.0759 6.84952 6.67141
H 12.7246 8.24267 5.94538
C 10.7368 4.83289 3.70418
N 10.8312 4.76938 5.16499
H 10.7094 3.88227 3.24077
H 9.76452 5.27641 3.45468
H 11.0432 3.80211 5.482
H 9.91482 5.01257 5.60636
148
Atoms. Timestep: 7424
Ni 2.42001 9.30676 8.91438
Ni 5.98773 3.36992 3.47394
O 0.126867 4.59704 4.08252
O 3.90162 8.41408 9.12491
O 4.66503 2.25041 3.60743
O 0.942495 10.2378 8.94994
O 5.45309 4.57704 4.71256
O 2.22199 8.25179 0.223943
O -0.966182 2.40044 5.19693
O 2.80364 10.6245 10.0776
N 3.16074 10.3687 7.50814
N -0.648693 2.45808 2.55002
N 1.70844 7.96182 7.69399
N 5.16582 4.43663 2.09965
C 3.35452 11.2045 5.26368
C -0.150269 1.78206 0.267481
H 2.89467 11.4467 4.32342
H 6.68148 1.20576 9.01077
C 4.65373 11.6656 5.5269
C 0.94225 0.992543 0.707916
C 5.22237 11.379 6.74488
C 1.12605 0.864296 2.0625
H 12.8863 1.68498 7.69411
H 1.86607 11.1 2.43845
C 1.44533 6.90173 5.53284
C 5.43029 6.27055 0.553081
H 1.78657 6.80113 4.51088
H 13.338 6.38814 9.74245
C 2.26866 7.56362 6.49513
C 5.94663 5.13952 1.21816
H -0.37326 5.10327 1.47129
C 2.57468 10.6255 6.29316
C -1.0415 2.39082 1.22094
H 5.458 2.46456 0.565938
C 4.45127 10.7874 7.74201
C 0.421527 1.68395 2.94794
H 4.91038 10.588 8.69676
H 0.795498 1.76276 3.94171
C 0.471301 7.4602 8.04207
C 3.82743 4.7997 2.23237
H 0.0137497 7.76888 8.96924
C -0.243875 6.58816 7.20065
C 3.37439 6.0263 1.75417
H 7.1784 4.767 7.13371
H 2.37268 6.36587 1.99717
C 0.235982 6.29266 5.93302
C 4.12038 6.71058 0.830387
C 5.3315 1.64963 4.57301
C 1.53195 11.0584 9.8185
C -0.476013 5.28088 5.05388
C 3.50707 7.82157 0.0781265
Ni 9.78997 8.78886 8.62885
Ni -1.3597 3.64412 3.94604
O 7.33831 4.51272 3.56561
O 11.2763 7.92147 8.84033
O 12.303 2.66922 4.0374
O 8.24611 9.65383 8.6278
O 13.3875 4.79157 5.27242
O 9.35533 7.56578 9.86539
O 6.49968 2.28759 4.80751
O 10.0014 9.96395 9.95921
N 10.624 10.1071 7.45198
N 6.82191 2.16415 2.1828
N 9.23904 7.50552 7.1824
N 12.991 4.93013 2.68353
C 10.9575 11.2162 5.35613
C 6.8506 1.12454 10.0668
H 10.7389 11.1938 4.30105
H -0.593546 1.8366 9.27394
C 12.0754 1.00281 5.84406
C 8.07729 11.189 0.5078
C 12.2531 0.966806 7.20819
C 8.31454 11.2226 1.87222
H 6.26356 11.6074 6.92349
H 9.05124 10.552 2.30155
C 8.09904 7.26008 5.03965
C 13.0478 6.16041 0.604313
H 8.00633 7.56418 4.00336
H 5.83276 6.81182 9.91046
C 9.18753 7.78962 5.8288
C 13.7029 5.39797 1.609
H 6.97901 4.85555 1.06343
C 10.0859 10.5778 6.28907
C 6.35041 1.96261 0.90784
H 9.06024 10.362 6.02525
C 11.7999 10.7486 7.89753
C 7.94568 1.45936 2.57405
C 8.58568 6.34475 7.59103
C 11.7352 5.51676 2.94555
H 8.87719 5.83932 8.49341
C 7.63069 5.68554 6.77902
C 11.1724 6.42492 2.03035
H -1.18883 6.17804 7.52991
H 10.1976 6.86017 2.22349
C 7.36693 6.12866 5.48687
C 11.7048 6.55675 0.788151
C 12.8834 1.92778 4.95308
C 8.73695 10.3703 9.64746
C 6.65362 5.1987 4.48846
C 10.6771 7.19387 9.7535
C 1.10178 10.8054 6.21479
N 0.792218 1.10395 6.93534
H 0.750834 10.8656 5.16668
H 0.552034 9.94742 6.63854
H -0.22488 1.14913 7.10306
H 1.14031 1.94502 6.4224
C 12.5991 2.53936 0.83657
N 12.1711 3.50268 9.81349
H 11.9786 2.84316 1.69115
H 12.1912 1.56204 0.518284
H 11.2257 3.36206 9.38892
H 12.9098 3.45895 9.07828
C 3.75602 7.37819 6.38394
N 4.16046 6.2865 7.26285
H 4.04972 7.14248 5.33605
H 4.30206 8.29879 6.64872
H 3.98362 5.36642 6.79957
H 5.16866 6.38433 7.50775
C 2.79802 3.87394 2.79646
N 2.8656 3.87392 4.25781
H 1.78888 4.18209 2.46238
H 2.90645 2.86674 2.35674
H 2.77482 4.83423 4.64096
H 2.16887 3.23381 4.68637
C 12.8935 9.99231 8.63004
N 12.6354 9.78797 10.0538
H -1.28239 10.5654 8.54645
H 13.1362 9.04798 8.1033
H 13.2205 10.5913 0.549538
H 13.3847 8.94542 0.318762
C 9.0617 2.22073 3.15497
N 8.99645 2.32197 4.61631
H 10.0423 1.79358 2.84769
H 9.01063 3.19916 2.64659
H 9.94909 2.40989 4.99465
H 8.5984 3.22488 4.9335
C 10.4706 8.0644 5.07207
N 11.6642 8.12269 5.91267
H 10.6174 7.29021 4.35571
H 10.3717 8.93508 4.40435
H 11.8694 7.18317 6.31893
H 12.4795 8.43705 5.3383
C 10.7262 4.88506 3.86642
N 10.9651 4.99247 5.3026
H 10.6725 3.90285 3.53715
H 9.7039 5.26554 3.66024
H 11.1862 4.06375 5.72057
H 10.0961 5.28877 5.77757
148
Atoms. Timestep: 7426
Ni 2.42638 9.29798 8.92145
Ni 5.98794 3.37826 3.47082
O 0.137872 4.60184 4.08055
O 3.90523 8.40787 9.13237
O 4.66768 2.26198 3.60457
O 0.95159 10.2263 8.95708
O 5.45419 4.58189 4.71176
O 2.22944 8.24606 0.214747
O -0.953247 2.41157 5.19705
O 2.8092 10.612 10.0868
N 3.16585 10.3568 7.51258
N -0.636127 2.46905 2.54517
N 1.71622 7.95691 7.69878
N 5.16767 4.44189 2.09396
C 3.35946 11.1902 5.26391
C -0.138437 1.79497 0.258366
H 2.90054 11.4318 4.3219
H 6.67995 1.22033 9.01802
C 4.65624 11.6501 5.52763
C 0.952024 1.00773 0.699625
C 5.22373 11.3643 6.74789
C 1.13537 0.879854 2.05675
H 12.8734 1.69817 7.69889
H 1.87399 11.086 2.43339
C 1.45377 6.89989 5.53358
C 5.43178 6.27053 0.544501
H 1.79447 6.79958 4.50971
H 13.3241 6.38778 9.75107
C 2.2755 7.55987 6.49767
C 5.9471 5.14275 1.21082
H -0.361115 5.10661 1.46443
C 2.58097 10.6129 6.29532
C -1.0281 2.40198 1.21361
H 5.45943 2.47551 0.557381
C 4.45397 10.7743 7.74688
C 0.43208 1.69715 2.94384
H 4.91216 10.5755 8.70343
H 0.805278 1.77573 3.93947
C 0.481342 7.45675 8.04751
C 3.83174 4.80391 2.22694
H 0.0245608 7.76453 8.97641
C -0.232442 6.58722 7.20451
C 3.37958 6.02698 1.74784
H 7.17611 4.77131 7.13745
H 2.3797 6.36557 1.99129
C 0.246633 6.29257 5.93451
C 4.12426 6.70928 0.822326
C 5.33284 1.66293 4.57195
C 1.53989 11.0446 9.82726
C -0.463973 5.28371 5.05373
C 3.28896 7.81707 10.1442
Ni 9.78273 8.78157 8.63538
Ni -1.34593 3.65167 3.94381
O 7.33602 4.51776 3.56267
O 11.2662 7.91668 8.84726
O 12.2914 2.67958 4.03534
O 8.24172 9.64405 8.63433
O 13.3739 4.79581 5.27267
O 9.34879 7.56202 9.87424
O 6.49884 2.29905 4.8069
O 9.99364 9.95328 9.96824
N 10.6153 10.0961 7.45631
N 6.82069 2.17596 2.17727
N 9.23293 7.50194 7.18623
N 12.9783 4.93397 2.67893
C 10.9484 11.2019 5.35654
C 6.84867 1.13935 10.076
H 10.7302 11.1796 4.29948
H -0.581636 1.84936 9.28168
C 12.0642 1.01796 5.84539
C 8.07388 11.1748 0.499134
C 12.2414 0.982068 7.21207
C 8.31058 11.2083 1.86611
H 6.26298 11.592 6.92684
H 9.04588 10.5396 2.29624
C 8.09522 7.2572 5.03946
C 13.0352 6.1607 0.595828
H 8.00277 7.56043 4.00124
H 5.83272 6.81023 9.9194
C 9.18163 7.78521 5.8301
C 13.689 5.40046 1.6024
H 6.97758 4.85961 1.0558
C 10.0783 10.5654 6.29123
C 6.35016 1.975 0.899923
H 9.05456 10.3502 6.02691
C 11.789 10.7357 7.9027
C 7.94235 1.4732 2.56926
C 8.58074 6.34451 7.59563
C 11.7248 5.5189 2.94145
H 8.87164 5.84054 8.49969
C 7.62759 5.6872 6.78209
C 11.1631 6.42445 2.02453
H -1.17567 6.17829 7.53439
H 10.1901 6.85845 2.21803
C 7.36443 6.12904 5.48752
C 11.6946 6.5559 0.780011
C 12.8707 1.94027 4.95273
C 8.73157 10.3584 9.6559
C 6.65252 5.20177 4.48724
C 10.6681 7.19118 9.76215
C 1.1108 10.7923 6.2168
N 0.801756 1.11882 6.93871
H 0.760595 10.8523 5.16673
H 0.562041 9.9368 6.64135
H -0.213474 1.16387 7.10674
H 1.14925 1.95747 6.4248
C 12.5873 2.55009 0.82852
N 12.1593 3.51063 9.82225
H 11.9678 2.85301 1.6847
H 12.1802 1.57559 0.509638
H 11.2157 3.37041 9.39688
H 12.8968 3.46703 9.08565
C 3.76012 7.37497 6.38627
N 4.16374 6.28643 7.26683
H 4.05337 7.13994 5.33642
H 4.30513 8.29292 6.65155
H 3.98727 5.369 6.80268
H 5.17005 6.38398 7.51219
C 2.80419 3.88082 2.79207
N 2.87152 3.8808 4.25617
H 1.79694 4.18808 2.45737
H 2.91246 2.87653 2.35154
H 2.78088 4.83834 4.64003
H 2.17604 3.24254 4.68553
C 12.8806 9.98155 8.63658
N 12.6227 9.77781 10.063
H -1.26914 10.553 8.55283
H 13.1228 9.03994 8.10885
H 13.2076 10.5788 0.540951
H 13.3715 8.93768 0.309743
C 9.05625 2.23238 3.15126
N 8.99101 2.33332 4.61534
H 10.0351 1.80646 2.8434
H 9.00532 3.20799 2.64193
H 9.94185 2.42099 4.99438
H 8.59366 3.23363 4.93311
C 10.4624 8.05921 5.07194
N 11.6537 8.11732 5.91412
H 10.609 7.28725 4.35425
H 10.3637 8.92738 4.40298
H 11.8585 7.18051 6.32114
H 12.4676 8.43078 5.33868
C 10.7177 4.88903 3.86404
N 10.9559 4.99613 5.30291
H 10.6641 3.90965 3.53416
H 9.69722 5.26841 3.65748
H 11.1766 4.07008 5.72166
H 10.0885 5.29158 5.77877
148
Atoms. Timestep: 11055
Ni 2.42943 9.30265 8.92511
Ni 5.98533 3.37284 3.46908
O 0.140862 4.60982 4.08146
O 3.91073 8.41059 9.13605
O 4.66396 2.25097 3.60238
O 0.953066 10.2331 8.96043
O 5.44832 4.57734 4.70798
O 2.23087 8.25049 0.215968
O -0.951074 2.41551 5.19688
O 2.81446 10.6206 10.0867
N 3.16738 10.3619 7.51788
N -0.635394 2.46991 2.54957
N 1.71942 7.95761 7.70569
N 5.16525 4.43843 2.09566
C 3.36026 11.1761 5.26644
C -0.139518 1.80189 0.265315
H 2.90142 11.4057 4.32243
H 6.68055 1.22503 9.02153
C 4.65826 11.6414 5.52629
C 0.954088 1.01316 0.702489
C 5.22667 11.3684 6.7479
C 1.13671 0.876525 2.05666
H 12.8732 1.70886 7.69663
H 1.87749 11.0797 2.4293
C 1.45803 6.9087 5.53991
C 5.43507 6.27001 0.548862
H 1.80039 6.81296 4.5178
H 13.328 6.36917 9.74378
C 2.28115 7.56251 6.50664
C 5.9479 5.13842 1.2136
H -0.353119 5.10467 1.46654
C 2.57995 10.6108 6.30215
C -1.03092 2.40432 1.22128
H 5.4514 2.47001 0.563134
C 4.45709 10.7826 7.7488
C 0.431479 1.69099 2.94582
H 4.91726 10.5864 8.70346
H 0.804634 1.76492 3.93989
C 0.482583 7.45465 8.05153
C 3.82842 4.80359 2.22813
H 0.0248817 7.75932 8.97989
C -0.233067 6.58872 7.20465
C 3.37817 6.03025 1.74947
H 7.17257 4.75873 7.12778
H 2.37703 6.37197 1.992
C 0.247871 6.2997 5.93579
C 4.12636 6.71212 0.825594
C 5.33323 1.65151 4.56753
C 1.54297 11.0538 9.82849
C -0.464116 5.29474 5.05104
C 3.29217 7.82037 10.1468
Ni 9.78253 8.77675 8.63196
Ni -1.34467 3.65682 3.94439
O 7.33383 4.51754 3.56157
O 11.2687 7.90955 8.84076
O 12.2906 2.68208 4.03616
O 8.23906 9.64065 8.63333
O 13.372 4.8051 5.26858
O 9.34846 7.55172 9.86587
O 6.49944 2.29187 4.80082
O 9.9954 9.94827 9.96421
N 10.6141 10.0973 7.4576
N 6.81887 2.16985 2.17723
N 9.23194 7.49743 7.18332
N 12.9822 4.94072 2.6789
C 10.945 11.2044 5.36197
C 6.84686 1.13763 10.0777
H 10.7262 11.1794 4.30704
H -0.585574 1.85717 9.29107
C 12.0634 1.02177 5.84743
C 8.07309 11.1693 0.497602
C 12.2422 0.988159 7.21148
C 8.31128 11.199 1.86198
H 6.26645 11.6037 6.92649
H 9.04858 10.5275 2.28909
C 8.08669 7.262 5.04311
C 13.0405 6.15387 0.590933
H 7.99102 7.57106 4.00854
H 5.83872 6.81007 9.92555
C 9.17723 7.78693 5.8311
C 13.6952 5.40064 1.60168
H 6.97975 4.85214 1.05953
C 10.0739 10.5695 6.29673
C 6.34607 1.97044 0.902494
H 9.04705 10.3561 6.03541
C 11.7898 10.7391 7.90238
C 7.94282 1.46525 2.5665
C 8.57999 6.33513 7.58905
C 11.7288 5.5316 2.93819
H 8.87364 5.82653 8.48904
C 7.62343 5.6793 6.77645
C 11.1725 6.44183 2.02129
H -1.17901 6.17828 7.53053
H 10.2019 6.88624 2.21462
C 7.35783 6.12769 5.48638
C 11.6995 6.55543 0.774614
C 12.8712 1.94252 4.95359
C 8.73101 10.3546 9.654
C 6.64718 5.2011 4.48507
C 10.6704 7.18128 9.75431
C 1.10816 10.8001 6.22693
N 0.809209 1.13489 6.94429
H 0.754181 10.8577 5.18002
H 0.554189 9.94676 6.65472
H -0.206324 1.18743 7.11851
H 1.15871 1.97192 6.42589
C 12.5795 2.54546 0.841069
N 12.142 3.49976 9.83034
H 11.9618 2.85488 1.69498
H 12.1728 1.56425 0.533787
H 11.2025 3.34103 9.39928
H 12.8871 3.46818 9.10102
C 3.76789 7.37055 6.39903
N 4.16442 6.27496 7.27676
H 4.06343 7.13588 5.35142
H 4.31737 8.28828 6.66709
H 3.99212 5.35693 6.80766
H 5.17007 6.37182 7.53221
C 2.79886 3.87942 2.79177
N 2.86777 3.87901 4.25298
H 1.79027 4.18788 2.45712
H 2.90815 2.8728 2.35166
H 2.77512 4.83883 4.63685
H 2.17415 3.23646 4.68246
C 12.8848 9.982 8.63103
N 12.63 9.77452 10.0549
H -1.26472 10.5566 8.54614
H 13.1268 9.03901 8.10167
H 13.2214 10.5743 0.532864
H 13.3781 8.92949 0.296937
C 9.05882 2.22748 3.1449
N 8.99486 2.33132 4.60595
H 10.0393 1.80022 2.83748
H 9.00497 3.20485 2.6348
H 9.94743 2.42782 4.98087
H 8.59337 3.23205 4.92388
C 10.4582 8.0633 5.07184
N 11.6545 8.11912 5.90885
H 10.6022 7.29313 4.35189
H 10.3573 8.93402 4.40522
H 11.8582 7.17956 6.31571
H 12.469 8.4306 5.33177
C 10.7146 4.897 3.84926
N 10.9451 5.00097 5.28731
H 10.6661 3.91596 3.51529
H 9.69348 5.27776 3.63704
H 11.1775 4.07516 5.70465
H 10.0685 5.28037 5.75791
148
Atoms. Timestep: 11057
Ni 2.43378 9.29542 8.93318
Ni 5.98543 3.3797 3.46553
O 0.148595 4.61375 4.07921
O 3.91312 8.40548 9.14456
O 4.66578 2.2605 3.59911
O 0.959358 10.2236 8.96857
O 5.44903 4.58134 4.70706
O 2.23615 8.24576 0.205486
O -0.941991 2.42465 5.197
O 2.81822 10.6102 10.0972
N 3.17087 10.3521 7.52295
N -0.626524 2.47892 2.54406
N 1.7248 7.95358 7.71117
N 5.16653 4.44277 2.08918
C 3.36367 11.1644 5.26671
C -0.131126 1.81249 0.254938
H 2.90551 11.3935 4.32069
H 6.67931 1.237 9.0298
C 4.65994 11.6286 5.52712
C 0.961009 1.02564 0.693044
C 5.22751 11.3563 6.75133
C 1.14329 0.889325 2.05009
H 12.8639 1.71968 7.70208
H 1.88307 11.0682 2.42353
C 1.46392 6.90716 5.54076
C 5.43611 6.26999 0.539089
H 1.80591 6.81165 4.51648
H 13.3179 6.36891 9.75359
C 2.28589 7.55942 6.50955
C 5.94822 5.14109 1.20524
H -0.344538 5.10742 1.45873
C 2.58431 10.6005 6.30463
C -1.02143 2.41348 1.21293
H 5.45241 2.47902 0.553391
C 4.45886 10.7718 7.75436
C 0.438916 1.70185 2.94116
H 4.91836 10.5762 8.71105
H 0.811504 1.77561 3.93734
C 0.489563 7.45182 8.05774
C 3.83144 4.80706 2.22194
H 0.0323927 7.75576 8.98808
C -0.225081 6.58794 7.20905
C 3.38182 6.0308 1.74226
H 7.17082 4.76231 7.13202
H 2.38198 6.37171 1.9853
C 0.255321 6.2996 5.93749
C 4.1291 6.71105 0.81641
C 5.3341 1.66247 4.56631
C 1.54842 11.0424 9.83849
C -0.455662 5.29704 5.05086
C 3.29529 7.81667 10.1574
Ni 9.77724 8.77077 8.6394
Ni -1.33497 3.66301 3.94185
O 7.33214 4.52169 3.55822
O 11.2614 7.90563 8.84865
O 12.2823 2.69059 4.03381
O 8.23579 9.63262 8.64078
O 13.3622 4.80856 5.26886
O 9.34365 7.54866 9.87594
O 6.49876 2.30131 4.8001
O 9.98973 9.9395 9.97449
N 10.6078 10.0882 7.46254
N 6.81797 2.17957 2.17093
N 9.22748 7.4945 7.18768
N 12.9732 4.94386 2.67366
C 10.9384 11.1926 5.36245
C 6.84532 1.14981 10.0883
H 10.72 11.1678 4.30527
H -0.577284 1.86763 9.29992
C 12.0553 1.03422 5.84894
C 8.07066 11.1576 0.48772
C 12.2338 1.00069 7.2159
C 8.30844 11.1872 1.85501
H 6.26591 11.591 6.9303
H 9.04474 10.5174 2.28302
C 8.0839 7.25962 5.04291
C 13.0315 6.15413 0.58125
H 7.98844 7.56795 4.00614
H 5.83851 6.80877 9.93575
C 9.17295 7.7833 5.83258
C 13.6853 5.40268 1.59415
H 6.97872 4.85549 1.05085
C 10.0684 10.5593 6.2992
C 6.34589 1.98064 0.893475
H 9.04292 10.3464 6.03732
C 11.782 10.7284 7.90827
C 7.94041 1.47665 2.56102
C 8.57635 6.33496 7.59427
C 11.7214 5.53333 2.93351
H 8.86955 5.82757 8.49618
C 7.62112 5.68069 6.77994
C 11.1659 6.4414 2.01466
H -1.16981 6.17848 7.53563
H 10.1966 6.88475 2.20839
C 7.35596 6.12801 5.48713
C 11.6923 6.55474 0.765322
C 12.8621 1.95279 4.9532
C 8.72702 10.3449 9.66362
C 6.64633 5.20362 4.48368
C 10.6638 7.17909 9.76414
C 1.11445 10.7893 6.22926
N 0.815844 1.14707 6.94814
H 0.761023 10.8468 5.18011
H 0.561182 9.938 6.65795
H -0.198367 1.19949 7.12273
H 1.16492 1.98211 6.42864
C 12.5711 2.55429 0.831919
N 12.1335 3.50633 9.84034
H 11.9542 2.86297 1.68765
H 12.1649 1.57541 0.523982
H 11.1952 3.34797 9.40836
H 12.8777 3.47482 9.10947
C 3.77067 7.36792 6.40172
N 4.16661 6.27493 7.28131
H 4.0659 7.13381 5.35188
H 4.31941 8.28347 6.67035
H 3.99458 5.35909 6.81121
H 5.17093 6.37156 7.53731
C 2.80319 3.88508 2.78677
N 2.8719 3.88467 4.2511
H 1.79596 4.19281 2.45141
H 2.91237 2.88086 2.34573
H 2.77934 4.84221 4.63578
H 2.17916 3.24365 4.68149
C 12.8754 9.97316 8.63847
N 12.6209 9.76617 10.0654
H -1.25548 10.5464 8.5534
H 13.1171 9.03241 8.10799
H 13.2122 10.564 0.523057
H 13.3687 8.92315 0.286628
C 9.0549 2.23707 3.14066
N 8.99091 2.34066 4.60481
H 10.0341 1.81083 2.83259
H 9.00116 3.21211 2.62947
H 9.9422 2.43693 4.98054
H 8.58993 3.23925 4.92343
C 10.4523 8.05901 5.0717
N 11.6469 8.1147 5.91049
H 10.5962 7.29068 4.35022
H 10.3515 8.92767 4.40366
H 11.8503 7.17738 6.31822
H 12.4604 8.42544 5.33218
C 10.7084 4.90024 3.84652
N 10.9386 5.00397 5.28763
H 10.66 3.92153 3.51183
H 9.68868 5.2801 3.63384
H 11.1706 4.08035 5.70586
H 10.0631 5.2827 5.75923
148
Atoms. Timestep: 14803
Ni 2.43545 9.29855 8.93549
Ni 5.98393 3.37487 3.46495
O 0.150961 4.62026 4.07966
O 3.91662 8.40617 9.14571
O 4.6633 2.25098 3.59812
O 0.960073 10.2289 8.97202
O 5.44509 4.57692 4.70453
O 2.23665 8.24692 0.203804
O -0.940255 2.42759 5.19604
O 2.82181 10.6152 10.0975
N 3.17115 10.3574 7.52823
N -0.625482 2.47914 2.54819
N 1.72616 7.95483 7.71518
N 5.16531 4.44039 2.09226
C 3.36324 11.1547 5.27123
C -0.133953 1.81467 0.262688
H 2.90519 11.3738 4.32421
H 6.67876 1.24014 9.03511
C 4.66052 11.6231 5.5279
C 0.962363 1.02878 0.696635
C 5.22832 11.3622 6.753
C 1.14696 0.888488 2.05049
H 12.8643 1.72783 7.69907
H 1.89108 11.0678 2.42032
C 1.46696 6.91454 5.54556
C 5.43838 6.26736 0.541315
H 1.81056 6.82267 4.52346
H 13.3199 6.34949 9.74668
C 2.28948 7.56233 6.51602
C 5.94925 5.13707 1.20866
H -0.338837 5.10362 1.45938
C 2.58241 10.6012 6.3122
C -1.02464 2.41281 1.22104
H 5.44584 2.47336 0.560696
C 4.46014 10.78 7.75681
C 0.440131 1.69816 2.94278
H 4.92136 10.5857 8.71116
H 0.812504 1.76877 3.93713
C 0.489316 7.45089 8.05862
C 3.83002 4.80803 2.22503
H 0.0314242 7.75173 8.98811
C -0.226253 6.58946 7.20726
C 3.38197 6.0342 1.74424
H 7.17065 4.74997 7.12363
H 2.38167 6.3784 1.98684
C 0.256049 6.30547 5.93757
C 4.13077 6.71181 0.817473
C 5.33455 1.65245 4.56326
C 1.55036 11.0483 9.84088
C -0.455846 5.30606 5.04781
C 3.29671 7.8163 10.1562
Ni 9.77743 8.76674 8.63631
Ni -1.33379 3.66704 3.9419
O 7.33083 4.52124 3.5586
O 11.2633 7.89889 8.84303
O 12.2818 2.69232 4.0343
O 8.23438 9.63053 8.64024
O 13.3607 4.81619 5.26417
O 9.34373 7.54005 9.86842
O 6.49953 2.29446 4.79502
O 9.99202 9.9354 9.97024
N 10.6073 10.089 7.4634
N 6.81719 2.17411 2.17183
N 9.22655 7.49077 7.18546
N 12.9767 4.94941 2.67326
C 10.9351 11.1952 5.36786
C 6.84411 1.1482 10.0913
H 10.7155 11.1684 4.31316
H -0.58465 1.86772 9.31067
C 12.0545 1.03749 5.85053
C 8.07131 11.1535 0.486823
C 12.2355 1.00485 7.21439
C 8.31112 11.1801 1.85113
H 6.26665 11.604 6.93195
H 9.04973 10.5086 2.2758
C 8.07524 7.26417 5.04809
C 13.0351 6.14591 0.576306
H 7.97568 7.5785 4.01544
H 5.84217 6.80468 9.9379
C 9.16797 7.78527 5.83438
C 13.6899 5.40114 1.59265
H 6.98074 4.84903 1.05554
C 10.0648 10.5631 6.30464
C 6.34285 1.97621 0.897412
H 9.03673 10.3521 6.04597
C 11.7836 10.7302 7.90656
C 7.94199 1.47022 2.55875
C 8.57685 6.32652 7.58856
C 11.7254 5.54439 2.93011
H 8.87238 5.81575 8.48677
C 7.61942 5.67271 6.77532
C 11.1746 6.45621 2.01123
H -1.17301 6.17865 7.53029
H 10.2081 6.90903 2.20492
C 7.35098 6.12609 5.48735
C 11.6964 6.55347 0.760293
C 12.8624 1.95447 4.95361
C 8.72757 10.3423 9.66194
C 6.64261 5.20243 4.48308
C 10.6657 7.17046 9.7574
C 1.11175 10.7997 6.24008
N 0.822882 1.16442 6.95516
H 0.755056 10.8561 5.19428
H 0.553772 9.9505 6.67097
H -0.191183 1.22398 7.13505
H 1.17331 1.99781 6.43167
C 12.5639 2.54801 0.84538
N 12.1179 3.49269 9.84907
H 11.9495 2.86448 1.6984
H 12.1571 1.56316 0.550059
H 11.184 3.31707 9.41241
H 12.8686 3.47143 9.12513
C 3.77591 7.36648 6.41098
N 4.16739 6.26755 7.28687
H 4.07293 7.13357 5.36341
H 4.32747 8.28215 6.68212
H 3.99783 5.35133 6.81326
H 5.17149 6.36336 7.54885
C 2.80014 3.88539 2.78835
N 2.87029 3.88431 4.2494
H 1.79204 4.1944 2.45342
H 2.91003 2.87936 2.34776
H 2.77623 4.84373 4.63389
H 2.17876 3.24013 4.67943
C 12.8796 9.9715 8.63067
N 12.6286 9.76181 10.0548
H -1.25084 10.5462 8.54349
H 13.1192 9.02931 8.09898
H 13.2245 10.5593 0.511471
H 13.3767 8.91535 0.272158
C 9.05747 2.23358 3.13573
N 8.9944 2.33887 4.59654
H 10.0381 1.80657 2.82833
H 9.00108 3.21026 2.62469
H 9.94691 2.44319 4.96841
H 8.5895 3.23728 4.9157
C 10.4465 8.06289 5.07171
N 11.6458 8.11625 5.90454
H 10.5872 7.2965 4.34759
H 10.3432 8.93415 4.40677
H 11.8478 7.17694 6.31275
H 12.4594 8.42404 5.32415
C 10.7066 4.90754 3.83295
N 10.93 5.00922 5.27252
H 10.6627 3.9271 3.49572
H 9.68654 5.2884 3.61529
H 11.1711 4.08605 5.68997
H 10.0473 5.27533 5.73904
148
Atoms. Timestep: 14825
Ni 2.43618 9.26286 8.9708
Ni 5.98217 3.40943 3.44406
O 0.15478 4.65542 4.06298
O 3.91491 8.37223 9.18028
O 4.66357 2.28072 3.57958
O 0.962669 10.1922 9.01083
O 5.44121 4.60404 4.68901
O 2.23574 8.21266 0.121475
O -0.929007 2.46116 5.17523
O 2.82561 10.5758 10.1361
N 3.16719 10.3223 7.55947
N -0.629666 2.51707 2.51876
N 1.73333 7.92103 7.74907
N 5.16631 4.47187 2.0752
C 3.36383 11.0836 5.2894
C -0.128358 1.88046 0.227762
H 2.90547 11.2966 4.3407
H 6.67261 1.30946 9.10831
C 4.66149 11.5502 5.53955
C 0.967151 1.09748 0.653649
C 5.23022 11.3018 6.7707
C 1.1579 0.947932 2.01034
H 12.8688 1.81065 7.70679
H 1.9099 10.993 2.3771
C 1.46491 6.91917 5.56573
C 5.43664 6.26607 0.492267
H 1.80936 6.82842 4.54657
H 13.3092 6.33957 9.81857
C 2.29159 7.54804 6.54242
C 5.95059 5.15226 1.17717
H -0.330819 5.11493 1.42682
C 2.58167 10.5443 6.33733
C -1.02419 2.46259 1.18605
H 5.43879 2.5308 0.525605
C 4.4587 10.7357 7.77955
C 0.443458 1.74584 2.90591
H 4.92165 10.541 8.72908
H 0.814757 1.81541 3.89542
C 0.493759 7.42407 8.08495
C 3.83226 4.83712 2.20557
H 0.036467 7.72285 9.01205
C -0.22842 6.58016 7.22587
C 3.38282 6.04853 1.70503
H 7.14989 4.74742 7.13857
H 2.38256 6.39536 1.94108
C 0.255197 6.30961 5.95077
C 4.13106 6.71081 0.766819
C 5.33905 1.68834 4.55109
C 1.55267 11.003 9.89401
C -0.454983 5.33164 5.0409
C 3.29306 7.79059 10.1962
Ni 9.77232 8.73628 8.66999
Ni -1.32933 3.70051 3.92206
O 7.3264 4.55911 3.5393
O 11.2554 7.86061 8.87782
O 12.2798 2.72435 4.01603
O 8.23205 9.6025 8.67737
O 13.3526 4.8445 5.24512
O 9.33458 7.50722 9.90246
O 6.5039 2.33032 4.76981
O 9.99296 9.89849 10.0071
N 10.5962 10.055 7.49881
N 6.81082 2.21654 2.14175
N 9.2249 7.47218 7.20558
N 12.9767 4.98301 2.65348
C 10.9362 11.124 5.38837
C 6.84396 1.21943 10.163
H 10.7121 11.1011 4.33642
H -0.584724 1.92868 9.39124
C 12.055 1.10159 5.86214
C 8.07483 11.0892 0.436176
C 12.2383 1.08617 7.23054
C 8.31631 11.1008 1.80438
H 6.26997 11.5421 6.94657
H 9.05841 10.4292 2.22206
C 8.07414 7.26216 5.06696
C 13.0287 6.14785 0.537885
H 7.98711 7.56668 4.02947
H 5.83615 6.79715 9.99321
C 9.16824 7.77056 5.85006
C 13.6873 5.42048 1.56291
H 6.9819 4.8558 1.02101
C 10.0582 10.5168 6.33019
C 6.34115 2.03474 0.859732
H 9.02877 10.3025 6.06743
C 11.7772 10.6891 7.93512
C 7.93783 1.51546 2.52357
C 8.56965 6.31204 7.60306
C 11.7223 5.57127 2.90392
H 8.84966 5.80626 8.50421
C 7.6112 5.66558 6.78852
C 11.1612 6.46192 1.97019
H -1.1771 6.16916 7.54463
H 10.1952 6.91419 2.15864
C 7.34789 6.12963 5.4988
C 11.6889 6.54996 0.714577
C 12.862 1.99462 4.94584
C 8.72724 10.3011 9.7105
C 6.63955 5.2265 4.47932
C 10.6562 7.13869 9.80382
C 1.11173 10.7373 6.2588
N 0.82189 1.23937 6.97064
H 0.757403 10.7982 5.20854
H 0.552698 9.88583 6.68809
H -0.188996 1.29348 7.15713
H 1.1719 2.07203 6.44734
C 12.5548 2.59649 0.798775
N 12.1095 3.53338 9.90586