148
Atoms. Timestep: 0
Ni 2.89857 9.41116 8.59265
Ni 6.17525 3.10579 3.48481
O 1.44827 4.35425 3.93374
O 4.4416 8.15245 9.05464
O 4.63665 1.84729 3.87523
O 1.36499 10.6744 9.00295
O 5.80609 4.46033 4.96242
O 2.54244 8.0327 10.0675
O 0.25117 1.69264 4.94273
O 3.23722 10.8047 10.0626
N 3.69677 10.6606 7.2416
N 0.71256 1.8642 2.11704
N 2.17217 8.14409 7.25198
N 5.44023 4.39481 2.13747
C 3.48546 12.1483 5.36301
C 0.47488 0.38955 0.2292
C 4.76073 0.1474 5.61481
C 1.74333 12.3699 0.47412
C 5.50345 12.1502 6.68209
C 2.49852 0.35508 1.54004
H 3.49155 12.5067 1.77336
C 2.48363 6.6337 5.40822
C 5.72803 5.90364 0.28669
H 3.13294 6.27291 4.61605
C 2.92756 7.68099 6.23068
C 6.1883 4.86756 1.11596
H 3.89994 8.14655 6.0889
H 0.91589 4.41889 0.97634
C 2.98256 11.1359 6.19748
C -0.01036 1.40553 1.07106
H 1.99392 10.709 6.04703
H 5.26093 1.85011 0.92351
C 4.93641 11.1381 7.47507
C 1.94823 1.3719 2.3406
H 5.48559 10.7097 8.30944
H 2.50886 1.79214 3.17267
C 0.94573 7.62654 7.47302
C 4.21083 4.90458 2.35686
H 0.36328 8.05184 8.28732
H 3.63605 4.47744 3.17528
C 0.43859 6.57577 6.69176
C 3.68763 5.945 1.56944
H 2.69824 6.32683 1.80071
C 1.22745 6.06471 5.65205
C 4.46338 6.45777 0.52027
C 5.3126 1.24381 4.79419
C 2.0502 11.2675 9.92158
C 0.73548 4.94016 4.83586
C 3.73174 7.56629 9.95688
Ni 9.15137 9.41116 8.59265
Ni 12.4281 3.10579 3.48481
O 7.70109 4.35425 3.93374
O 10.6944 8.15245 9.05464
O 10.8895 1.84729 3.87523
O 7.61779 10.6744 9.00295
O 12.0589 4.46033 4.96242
O 8.79524 8.0327 10.0675
O 6.50397 1.69264 4.94273
O 9.49002 10.8047 10.0626
N 9.94957 10.6606 7.2416
N 6.96536 1.8642 2.11704
N 8.42499 8.14409 7.25198
N 11.693 4.39481 2.13747
C 9.73826 12.1483 5.36301
C 6.72768 0.38955 0.2292
H 9.11733 12.5181 4.55267
C 11.0135 0.1474 5.61481
C 7.99613 12.3699 0.47412
C 11.7562 12.1502 6.68209
C 8.75132 0.35508 1.54004
H 6.50047 12.5084 6.91993
H 9.74435 12.5067 1.77336
C 8.73644 6.6337 5.40822
C 11.9808 5.90364 0.28669
H 9.38574 6.27291 4.61605
C 9.18036 7.68099 6.23068
C 12.4411 4.86756 1.11596
H 10.1527 8.14655 6.0889
H 7.16869 4.41889 0.97634
C 9.23536 11.1359 6.19748
C 6.24244 1.40553 1.07106
H 8.24672 10.709 6.04703
H 11.5137 1.85011 0.92351
C 11.1892 11.1381 7.47507
C 8.20102 1.3719 2.3406
H 11.7384 10.7097 8.30944
H 8.76167 1.79214 3.17267
C 7.19853 7.62654 7.47302
C 10.4636 4.90458 2.35686
H 6.61608 8.05184 8.28732
H 9.88885 4.47744 3.17528
C 6.69139 6.57577 6.69176
C 9.94043 5.945 1.56944
H 8.95104 6.32683 1.80071
C 7.48025 6.06471 5.65205
C 10.7162 6.45777 0.52027
C 11.5654 1.24381 4.79419
C 8.303 11.2675 9.92158
C 6.98827 4.94016 4.83586
C 9.98454 7.56629 9.95688
C 2.62422 0.13747 4.19751
N 1.33358 11.9847 4.07571
H 3.17967 12.5205 3.24401
H 2.43189 1.22036 4.35774
H 1.49639 10.9935 3.78197
H 0.78955 12.4445 3.31015
C 11.8835 12.4252 9.33361
N 10.5843 0.56686 9.24653
H 11.7063 11.3324 9.44154
H -0.07182 0.09574 8.38758
H 9.9991 0.2762 10.064
H 10.096 0.22866 8.3859
C 11.546 6.01763 6.98965
N 10.8837 6.66088 8.1234
H 11.6259 4.9297 7.20741
H 10.9122 6.1692 6.08928
H 11.3913 6.40563 9.00217
H 9.91628 6.27246 8.20594
C 6.39799 6.40785 9.41827
N 7.67209 5.69849 9.31187
H 5.85744 6.29491 8.45264
H 6.61625 7.48296 9.59659
H 7.48837 4.716 9.00185
H 8.24293 6.15318 8.56293
C 0.66185 0.13793 7.00529
N 1.28912 11.9849 8.13966
H 1.3137 12.5206 6.11497
H 0.59242 1.22088 7.24556
H 1.49279 10.9937 7.87308
H 2.20858 12.4443 8.33222
C 5.63073 12.4252 9.33361
N 4.33152 0.56686 9.24653
H 5.45345 11.3324 9.44154
H 6.18098 0.09574 8.38758
H 3.7463 0.2762 10.064
H 3.8432 0.22866 8.3859
C 5.29638 6.01237 6.99466
N 4.61593 6.68552 8.09995
H 4.6596 6.10675 6.08748
H 5.40538 4.93862 7.26014
H 4.37727 7.66149 7.80725
H 3.71226 6.19199 8.28251
C 0.1452 6.40785 9.41828
N 1.4193 5.6985 9.31188
H 12.1103 6.29492 8.45265
H 0.36346 7.48297 9.59661
H 1.2356 4.71601 9.00186
H 1.99014 6.1532 8.56295
148
Atoms. Timestep: 306
Ni 2.44642 8.42158 9.43829
Ni 6.2095 3.6249 3.23565
O 0.363365 5.30804 3.32218
O 3.9154 7.49776 9.66711
O 4.72033 2.69205 3.41166
O 0.95569 9.36118 9.62396
O 5.82534 4.75766 4.44262
O 2.03929 7.28674 10.7514
O -0.692248 3.17323 4.27849
O 2.84097 9.65004 10.6992
N 3.17497 9.5627 7.98003
N -0.265455 3.16447 1.75372
N 1.74164 7.17521 8.03776
N 5.49413 4.82211 1.94741
C 3.16798 10.1505 5.5828
C -0.38654 1.87514 -0.244531
C 4.54318 10.5268 5.63749
C 1.05109 10.798 -0.335022
C 5.18857 10.3673 6.86474
C 1.7787 2.35976 0.701629
H 2.84273 2.23747 0.750337
C 1.84899 6.3608 5.72124
C 5.73972 6.06517 -0.0763945
H 2.42879 6.26625 4.81386
C 2.48395 6.83417 6.92077
C 6.28789 5.4493 1.06076
H 3.47782 7.22244 6.82108
H 0.0824843 6.0814 1.04062
C 2.50361 9.71379 6.77992
C 13.2104 2.30264 0.973981
H 1.54484 9.26912 6.66627
H 5.03633 2.42415 0.796979
C 4.54036 9.72751 7.94128
C 1.10999 3.11773 1.68974
H 5.15847 9.19347 8.63208
H 1.69901 3.59452 2.4505
C 0.376266 7.0676 7.91086
C 4.15554 5.11518 1.97389
H -0.236574 7.8095 8.36148
H 3.56137 4.82961 2.83239
C -0.222958 6.26064 6.90781
C 3.54695 5.81647 0.916024
H 2.49209 6.03192 0.960073
C 0.45396 6.14188 5.68506
C 4.31344 6.24938 -0.179789
C 5.32905 2.01975 4.4117
C 1.55279 10.078 10.5873
C -0.28728 5.8811 4.35127
C 3.31006 6.84639 10.6722
Ni 9.47092 8.78415 8.98557
Ni 13.0739 4.31386 3.07445
O 7.7334 4.57606 3.36743
O 10.9661 7.84231 9.2137
O 11.5899 3.30977 3.16121
O 7.95092 9.719 9.13554
O 12.5853 5.44981 4.3195
O 9.03867 7.61371 10.2337
O 6.62851 2.43662 4.49541
O 9.83512 9.92743 10.2574
N 10.1841 10.0072 7.64867
N 6.85322 2.46369 1.85218
N 8.8535 7.57576 7.57126
N 12.3783 5.4758 1.75278
C 10.062 1.98242 5.44472
C 6.7104 2.06591 -0.525247
H 9.48092 2.14114 4.56634
C 11.455 2.19909 5.42219
C 8.08389 10.7322 -0.591836
C 12.1587 1.91924 6.58877
C 8.79208 10.7461 0.617803
H 6.21751 10.655 6.9699
H 9.82865 10.4455 0.642083
C 9.0117 6.6101 5.34094
C 12.6725 6.58089 -0.334555
H 9.56904 6.52041 4.42281
C 9.52319 7.42942 6.37938
C 13.1793 6.11285 0.888963
H 10.41 8.01161 6.18633
H 7.35911 5.37965 1.16852
C 9.43207 10.4869 6.607
C 6.09699 2.25168 0.742087
H 8.37025 10.3062 6.59512
H 12.1849 2.06339 1.20512
C 11.5329 10.2076 7.62491
C 8.18669 2.17167 1.79972
H 12.1324 9.65163 8.30379
H 8.80901 2.43031 2.62295
C 7.61713 7.01883 7.69163
C 11.0192 5.63835 1.64812
H 7.00057 7.36839 8.48392
H 10.3755 5.287 2.44004
C 7.10677 6.09969 6.71672
C 10.4438 6.24611 0.509313
H 9.38234 6.43924 0.489192
C 7.77236 5.9573 5.49098
C 11.2585 6.64738 -0.562999
C 12.2109 2.68764 4.17721
C 8.55642 10.3477 10.1854
C 7.07412 5.25276 4.32741
C 10.3176 7.1847 10.2123
C 2.37671 10.2648 4.28869
N 1.29393 9.28356 4.19997
H 3.03076 10.1077 3.40641
H 1.95107 2.25394 4.26408
H 1.66367 8.3785 3.82764
H 0.565477 9.63817 3.54238
C 12.6764 2.0481 10.6109
N 11.6104 3.05098 10.7764
H 12.2662 10.0971 10.3493
H -0.837173 2.45496 9.85659
H 11.1624 2.77746 -0.595465
H 11.1358 3.21541 9.86254
C 12.508 5.78233 7.05944
N 12.2175 5.20155 8.35049
H 12.2509 4.97148 6.37426
H 11.8569 6.64532 6.87543
H 12.7844 4.33462 8.48492
H 11.1909 4.98875 8.39144
C 6.42293 6.46342 10.934
N 7.48942 5.46558 10.7536
H 5.89528 6.54519 10.035
H 6.84362 7.457 11.1711
H 7.1253 4.49501 10.802
H 7.93276 5.54895 9.81531
C -0.543768 2.24995 6.63636
N 0.0225849 1.91619 7.87644
H -0.0466689 1.62664 5.86181
H -0.360116 3.33206 6.49705
H 0.0133574 9.9284 7.83701
H 0.966273 2.35391 7.98891
C 5.62294 2.26165 10.3324
N 4.77732 3.44646 10.4412
H 4.99183 10.4125 10.307
H 6.23931 2.34625 9.41338
H 3.8809 3.22791 10.9302
H 4.51178 3.69845 9.47872
C 5.77225 5.38701 6.89597
N 5.1498 5.62296 8.13328
H 5.06119 5.81857 6.15085
H 5.88992 4.28501 6.7822
H 5.03125 6.6456 8.07853
H 4.195 5.20096 8.10608
C -0.788973 6.71385 10.6769
N 0.0507909 5.50243 10.6314
H 12.8588 6.85576 9.76441
H -0.209331 7.62119 10.9109
H -0.531281 4.63837 10.6546
H 0.657507 5.4612 9.7944
148
Atoms. Timestep: 5833
Ni 2.44222 8.38053 9.30579
Ni 6.10602 3.80099 3.27648
O 0.445965 5.13596 3.31923
O 3.8718 7.35279 9.48585
O 4.65384 2.80083 3.41639
O 1.01272 9.40868 9.46502
O 5.62696 4.94944 4.50549
O 1.97225 7.24931 10.5877
O -0.564135 2.95202 4.30567
O 2.89628 9.53141 10.5916
N 3.2047 9.51475 7.9141
N -0.122765 2.98306 1.74078
N 1.68819 7.23387 7.92627
N 5.38797 4.95246 1.94956
C 3.13579 10.2538 5.57719
C -0.194755 10.3658 0.00796282
C 4.52546 10.5791 5.61197
C 1.15992 10.6673 -0.390089
C 5.21245 10.2901 6.79192
C 1.8551 2.52836 0.414125
H 2.90085 2.70047 0.250073
C 1.84395 6.17785 5.7374
C 5.66188 6.11338 -0.125497
H 2.47025 5.81946 4.93167
C 2.45234 6.74184 6.90015
C 6.19135 5.52159 1.0362
H 3.50023 6.97088 6.88078
H 0.149813 5.64455 0.774274
C 2.48268 9.82692 6.78821
C -0.683569 1.85714 1.23111
H 1.44328 9.56 6.75952
H 5.04164 2.21485 0.938091
C 4.56893 9.63187 7.85629
C 1.2052 3.19828 1.4641
H 5.17791 9.11526 8.56981
H 1.7993 3.78877 2.12071
C 0.3287 7.27498 7.76119
C 4.05561 5.25285 1.94743
H -0.258754 7.89986 8.39496
H 3.46164 5.03652 2.82134
C -0.31586 6.71189 6.64626
C 3.45254 5.86571 0.826332
H 2.3902 6.0546 0.833941
C 0.436953 6.1911 5.58917
C 4.23033 6.24815 -0.280553
C 5.28586 2.15484 4.42207
C 1.63387 10.0182 10.4889
C -0.248018 5.71443 4.31036
C 3.23597 6.75896 10.5203
Ni 9.48308 8.81364 9.06608
Ni 13.1849 4.10669 3.07155
O 7.56077 4.80653 3.43789
O 10.9737 7.82689 9.26532
O 11.7263 3.0907 3.15682
O 7.98958 9.77286 9.23884
O 12.6558 5.21287 4.32397
O 9.04638 7.62854 10.3051
O 6.55307 2.6406 4.54779
O 9.87038 9.93684 10.3633
N 10.2186 10.0532 7.73178
N 6.85921 2.65425 1.91208
N 8.80174 7.64261 7.63261
N 12.4735 5.28185 1.7108
C 10.1381 1.93098 5.47669
C 6.7253 2.05302 -0.432975
H 9.5671 2.07555 4.5782
C 11.5366 2.14058 5.47778
C 8.13213 1.83025 -0.51007
C 12.184 2.02073 6.71294
C 8.8648 2.04501 0.672739
H 6.26625 10.4885 6.86266
H 9.93631 1.8994 0.681554
C 8.766 6.8827 5.31483
C 12.6594 6.16155 -0.530845
H 9.21271 6.91255 4.32845
C 9.37495 7.59206 6.38022
C 13.2457 5.72371 0.690726
H 10.2183 8.1956 6.14899
H 7.26209 5.44123 1.15611
C 9.48073 10.5278 6.67001
C 6.11471 2.26347 0.840732
H 8.41954 10.3678 6.65066
H 12.523 10.5604 1.59379
C 11.5755 10.2672 7.7141
C 8.22315 2.50572 1.84967
H 12.198 9.70867 8.36428
H 8.83096 2.82947 2.67439
C 7.55024 7.10336 7.76953
C 11.1273 5.57007 1.69287
H 6.87446 7.57438 8.43568
H 10.5104 5.29264 2.53681
C 7.04269 6.17383 6.81795
C 10.5231 6.22141 0.578105
H 9.47472 6.48201 0.622992
C 7.57667 6.17649 5.52574
C 11.2739 6.50934 -0.580923
C 12.3269 2.49389 4.21068
C 8.60485 10.3906 10.2865
C 6.87654 5.46664 4.38744
C 10.3118 7.15692 10.2483
C 2.35501 10.3177 4.27741
N 1.24036 9.37396 4.26313
H 3.00614 10.0756 3.4103
H 1.97178 2.31369 4.15713
H 1.61334 8.41329 4.09142
H 0.585681 9.62091 3.4878
C 12.6519 10.1509 11.0818
N 12.1118 2.43825 10.743
H 12.1376 9.51084 -0.534843
H 13.0209 9.59346 10.2273
H 11.7429 2.78917 -0.580966
H 11.6112 2.47319 9.83812
C 12.3663 6.89403 6.52088
N 11.5965 5.73448 6.98568
H 12.0804 7.19107 5.49067
H 12.0807 7.75502 7.13213
H 12.1438 5.08281 7.58398
H 11.1296 5.22808 6.20132
C 6.39665 6.60563 10.9783
N 7.44925 5.58868 10.7786
H 5.93978 6.87227 10.056
H 7.11293 7.5303 -0.678967
H 7.11014 4.61366 10.9319
H 7.87149 5.62723 9.82967
C -0.661215 2.73377 6.95311
N -0.356905 3.00337 8.33916
H 0.152625 2.15831 6.49382
H -0.685045 3.72317 6.46605
H -0.331601 2.11392 8.85195
H 0.609223 3.39922 8.37366
C 5.58965 1.99288 10.431
N 4.58336 3.05444 10.3771
H 5.12342 10.041 10.4807
H 6.16982 2.08679 9.50387
H 4.63034 3.53103 -0.802065
H 3.73248 2.76285 9.84832
C 5.92995 5.20181 7.15124
N 5.69111 5.05011 8.55944
H 5.0022 5.536 6.66778
H 6.18513 4.1982 6.74114
H 4.67081 4.88477 8.70995
H 6.24896 4.23521 8.88746
C -0.91174 6.23154 10.3469
N 0.158108 5.23592 10.4044
H 12.664 6.0644 9.43699
H -0.476582 7.24331 10.3771
H -0.235429 4.28023 10.5418
H 0.733835 5.27423 9.53748
148
Atoms. Timestep: 5854
Ni 2.45575 8.39362 9.26593
Ni 6.10766 3.78557 3.29826
O 0.460606 5.11941 3.33254
O 3.88025 7.36822 9.43733
O 4.65642 2.78966 3.43423
O 1.03247 9.42093 9.41913
O 5.62849 4.93801 4.51566
O 1.98164 7.2633 10.5412
O -0.544275 2.93583 4.31201
O 2.91321 9.54036 10.5507
N 3.21642 9.52431 7.88834
N -0.113167 2.97509 1.76406
N 1.70523 7.25312 7.8942
N 5.38925 4.92817 1.97829
C 3.14256 10.2831 5.56772
C -0.174002 10.3831 0.0709086
C 4.53249 10.6046 5.60573
C 1.17777 10.6921 -0.330309
C 5.21951 10.3121 6.78135
C 1.87098 2.5078 0.462491
H 2.91679 2.67757 0.299887
C 1.86078 6.17286 5.72345
C 5.66575 6.12007 -0.0670423
H 2.48457 5.80853 4.91642
C 2.46934 6.74713 6.87698
C 6.19356 5.51897 1.08397
H 3.51704 6.97561 6.85592
H 0.169445 5.64242 0.828119
C 2.49134 9.84956 6.7718
C -0.659835 1.83078 1.2846
H 1.45223 9.58079 6.74332
H 5.04086 2.18798 0.988998
C 4.57921 9.6421 7.8331
C 1.21825 3.18588 1.49863
H 5.18915 9.11819 8.54209
H 1.81083 3.77435 2.15928
C 0.345576 7.29078 7.73455
C 4.05932 5.23846 1.99
H -0.241427 7.92199 8.36345
H 3.46861 5.02066 2.86829
C -0.298634 6.7152 6.63296
C 3.45561 5.86132 0.879801
H 2.39434 6.05261 0.8868
C 0.453078 6.18862 5.58092
C 4.23385 6.24852 -0.221982
C 5.28991 2.14064 4.43168
C 1.65424 10.0317 10.4362
C -0.231921 5.69982 4.3175
C 3.24322 6.77024 10.4629
Ni 9.47567 8.82734 9.02616
Ni 13.1646 4.09264 3.08972
O 7.56304 4.78754 3.45317
O 10.9636 7.84426 9.22085
O 11.706 3.08235 3.16818
O 7.98397 9.78274 9.19132
O 12.6369 5.19338 4.34288
O 9.03769 7.64459 10.2631
O 6.55426 2.63048 4.56886
O 9.86414 9.95012 10.3167
N 10.2089 10.0622 7.70016
N 6.858 2.63885 1.9518
N 8.79592 7.65708 7.60387
N 12.4526 5.26579 1.74805
C 10.1241 1.91062 5.46214
C 6.72245 2.02502 -0.377621
H 9.55558 2.0547 4.56304
C 11.5221 2.11715 5.46808
C 8.12939 1.80717 -0.452266
C 12.167 1.99901 6.70009
C 8.86223 2.02151 0.727562
H 6.27204 10.512 6.85144
H 9.93292 1.87409 0.735533
C 8.76442 6.88436 5.29446
C 12.6447 6.16782 -0.471495
H 9.21092 6.91084 4.30503
C 9.37008 7.60225 6.35317
C 13.2287 5.72744 0.743327
H 10.2101 8.20897 6.12164
H 7.26332 5.4365 1.204
C 9.46878 10.55 6.64745
C 6.11401 2.23452 0.889994
H 8.40852 10.3912 6.63081
H 12.5058 10.5919 1.64669
C 11.5648 10.2841 7.68853
C 8.22096 2.48726 1.89635
H 12.1891 9.71733 8.32753
H 8.82736 2.82213 2.71808
C 7.54761 7.11311 7.74786
C 11.1097 5.55972 1.7399
H 6.86733 7.59772 8.39967
H 10.4939 5.27777 2.58673
C 7.04668 6.17343 6.80586
C 10.5065 6.21911 0.635244
H 9.46029 6.48292 0.679334
C 7.57524 6.17817 5.51407
C 11.2586 6.51046 -0.519637
C 12.3099 2.47849 4.21148
C 8.60135 10.4068 10.2288
C 6.87728 5.45699 4.3891
C 10.3012 7.17054 10.1954
C 2.36435 10.3429 4.27047
N 1.25396 9.39436 4.26454
H 3.01818 10.0976 3.40541
H 1.97819 2.28612 4.16014
H 1.62684 8.43292 4.10039
H 0.590901 9.63813 3.49565
C 12.6358 10.1728 11.0167
N 12.0969 2.4102 10.6815
H 12.1212 9.53224 -0.468759
H 13.0073 9.61142 10.1681
H 11.7296 2.76694 -0.510657
H 11.5918 2.45667 9.7795
C 12.347 6.89525 6.50579
N 11.5789 5.7333 6.97148
H 12.0636 7.19565 5.47406
H 12.0632 7.76018 7.11399
H 12.1305 5.07394 7.55751
H 11.1109 5.22756 6.18717
C 6.40361 6.61067 10.9116
N 7.45301 5.58757 10.7143
H 5.94067 6.87431 9.99483
H 7.11293 7.53619 -0.611842
H 7.11358 4.61267 10.8702
H 7.88252 5.62208 9.76845
C -0.641318 2.71387 6.93879
N -0.333967 2.9826 8.32108
H 0.171293 2.13621 6.47865
H -0.666718 3.70574 6.45526
H -0.301327 2.08901 8.82397
H 0.6315 3.38098 8.34704
C 5.59135 1.96793 10.3602
N 4.58479 3.02973 10.3144
H 5.12546 10.0697 10.4244
H 6.17422 2.06334 9.43298
H 4.63914 3.51894 -0.737447
H 3.7312 2.74032 9.7905
C 5.93314 5.19901 7.13592
N 5.69083 5.03698 8.53913
H 5.00556 5.53466 6.65314
H 6.18812 4.1953 6.7226
H 4.66881 4.87358 8.6817
H 6.24851 4.21847 8.85698
C -0.887035 6.23219 10.2801
N 0.178286 5.23137 10.3418
H 12.6477 6.06491 9.374
H -0.45243 7.24339 10.324
H -0.217115 4.27762 10.4854
H 0.761025 5.26728 9.47897
148
Atoms. Timestep: 10819
Ni 2.46896 8.38189 9.2708
Ni 6.09599 3.75185 3.29571
O 0.45942 5.10795 3.35609
O 3.89539 7.35644 9.45074
O 4.64079 2.76206 3.42204
O 1.04632 9.40979 9.41806
O 5.6275 4.88692 4.53389
O 2.00121 7.26678 10.5612
O -0.523068 2.89098 4.27669
O 2.93614 9.54011 10.5401
N 3.22143 9.49764 7.87338
N -0.116217 3.02279 1.7043
N 1.71028 7.2287 7.91518
N 5.38542 4.91723 1.99326
C 3.14064 10.2376 5.54407
C -0.0939629 10.3176 0.125919
C 4.52852 10.5607 5.58038
C 1.20752 10.7004 -0.352621
C 5.22146 10.2643 6.75063
C 1.81415 2.68509 0.2804
H 2.79665 3.00242 -0.0109497
C 1.8584 6.13867 5.75164
C 5.68258 6.10435 -0.0541705
H 2.47974 5.77082 4.94653
C 2.47045 6.72971 6.8926
C 6.19855 5.47381 1.08509
H 3.51066 6.98605 6.85133
H 0.138269 5.94696 0.966304
C 2.49171 9.81619 6.75504
C -0.530946 1.77209 1.35587
H 1.44877 9.559 6.73328
H 5.01563 2.28011 0.90615
C 4.58395 9.60233 7.80703
C 1.1111 3.42733 1.23565
H 5.19299 9.0803 8.51263
H 1.5689 4.30453 1.61014
C 0.351007 7.27128 7.75641
C 4.0632 5.26306 2.01579
H -0.232888 7.91475 8.37376
H 3.44775 4.9742 2.85498
C -0.296364 6.68967 6.65999
C 3.49285 5.99318 0.952065
H 2.46042 6.30514 1.01036
C 0.451926 6.14621 5.61643
C 4.26073 6.3117 -0.175986
C 5.27844 2.09785 4.40905
C 1.67581 10.0261 10.4274
C -0.233829 5.65828 4.35705
C 3.26405 6.77733 10.4928
Ni 9.4753 8.83409 9.0131
Ni 13.1668 4.08565 3.08602
O 7.55816 4.74544 3.45986
O 10.9563 7.84402 9.22176
O 11.72 3.05971 3.14459
O 7.99171 9.79962 9.16495
O 12.6396 5.14161 4.3793
O 9.02587 7.66875 10.2586
O 6.54444 2.579 4.54507
O 9.86971 9.96482 10.2977
N 10.2167 10.0513 7.68005
N 6.83256 2.62035 1.92582
N 8.79069 7.65483 7.59299
N 12.4324 5.30545 1.77907
C 10.1526 1.84529 5.42267
C 6.72327 2.06462 -0.425991
H 9.598 1.93908 4.51015
C 11.5457 2.07253 5.43917
C 8.12458 1.80904 -0.476195
C 12.1853 1.97031 6.6821
C 8.84036 1.98116 0.719985
H 6.27641 10.4588 6.81752
H 9.9067 1.80432 0.747403
C 8.76627 6.83547 5.29889
C 12.6322 6.27803 -0.410014
H 9.21717 6.83709 4.314
C 9.36998 7.57408 6.346
C 13.2022 5.88225 0.82571
H 10.2117 8.17566 6.10241
H 7.26623 5.35715 1.19592
C 9.48698 10.5099 6.60927
C 6.09455 2.27569 0.834951
H 8.42819 10.3356 6.57739
H 12.7326 10.4284 1.83059
C 11.5684 10.2877 7.68911
C 8.19168 2.44096 1.88606
H 12.1839 9.75854 8.37105
H 8.79264 2.76338 2.71368
C 7.53254 7.135 7.73198
C 11.0728 5.51555 1.73411
H 6.85893 7.62492 8.38185
H 10.4506 5.17731 2.55134
C 7.02672 6.18181 6.80866
C 10.4665 6.18137 0.630889
H 9.41185 6.41063 0.666229
C 7.57309 6.13935 5.52502
C 11.2332 6.53676 -0.49857
C 12.3291 2.43857 4.17975
C 8.60625 10.424 10.2054
C 6.87605 5.40401 4.40832
C 10.2854 7.18717 10.2049
C 2.36935 10.2601 4.23664
N 1.28253 9.28394 4.23611
H 3.03463 10.0214 3.37881
H 1.96078 2.1903 4.08684
H 1.67786 8.33585 4.04415
H 0.598175 9.5206 3.48486
C 12.6689 10.1085 11.112
N 12.1329 2.34731 10.788
H 12.1517 9.48171 -0.352399
H 13.0062 9.55481 10.2382
H 11.752 2.68581 -0.407716
H 11.6557 2.40006 9.87059
C 12.3495 6.87526 6.5321
N 11.5787 5.72758 7.02558
H 12.0644 7.14616 5.49459
H 12.0676 7.75658 7.11711
H 12.1365 5.07155 7.61042
H 11.0924 5.21942 6.25392
C 6.4328 6.64791 10.9638
N 7.47915 5.63274 10.7106
H 5.99129 7.00279 10.062
H 7.15378 7.53263 -0.490048
H 7.17508 4.65082 10.8935
H 7.86504 5.66868 9.74756
C -0.63993 2.70934 6.93685
N -0.363405 2.98685 8.32922
H 0.194746 2.15092 6.49238
H -0.680053 3.69487 6.44453
H -0.295075 2.09687 8.8421
H 0.577446 3.43782 8.37589
C 5.61033 2.00068 10.2951
N 4.57613 3.03229 10.2417
H 5.16373 10.094 10.3428
H 6.20004 2.12153 9.37442
H 4.72615 3.6314 -0.861111
H 3.68898 2.7106 9.79897
C 5.89951 5.23291 7.15985
N 5.61569 5.15536 8.56462
H 4.98848 5.54784 6.6371
H 6.15821 4.20816 6.80412
H 4.59544 4.96763 8.68706
H 6.1715 4.3618 8.93995
C -0.887669 6.29447 10.3464
N 0.133922 5.2533 10.4341
H 12.6572 6.13644 9.43119
H -0.410422 7.28554 10.3687
H -0.317575 4.31749 10.5191
H 0.748788 5.28277 9.59366
148
Atoms. Timestep: 10822
Ni 2.46943 8.38704 9.26192
Ni 6.09619 3.74575 3.29965
O 0.459609 5.10512 3.3599
O 3.89588 7.35912 9.44147
O 4.64098 2.75359 3.42571
O 1.04678 9.41741 9.40886
O 5.62776 4.88356 4.53522
O 2.00174 7.26924 10.5496
O -0.52285 2.88281 4.27857
O 2.93667 9.54806 10.5285
N 3.22183 9.50546 7.86752
N -0.116131 3.01494 1.71164
N 1.71069 7.23109 7.90923
N 5.38555 4.91393 1.99998
C 3.14092 10.2473 5.54318
C -0.0939241 10.3275 0.136684
C 4.52883 10.5711 5.57942
C 1.20754 10.7112 -0.340849
C 5.22181 10.274 6.74717
C 1.81419 2.6764 0.290818
H 2.79668 2.9945 8.90437e-05
C 1.85871 6.13837 5.75031
C 5.68263 6.10398 -0.0430487
H 2.48 5.76962 4.94692
C 2.47081 6.73085 6.88883
C 6.19864 5.4719 1.09379
H 3.51102 6.98781 6.84765
H 0.138337 5.94619 0.975256
C 2.49207 9.82483 6.75156
C -0.530856 1.7612 1.36401
H 1.44912 9.56701 6.72986
H 5.01571 2.27044 0.91523
C 4.58437 9.61044 7.80131
C 1.11118 3.42044 1.24401
H 5.19343 9.08714 8.50539
H 1.569 4.29977 1.6177
C 0.351393 7.27375 7.7508
C 4.06332 5.26062 2.02251
H -0.232466 7.91877 8.36682
H 3.44791 4.97107 2.85989
C -0.296021 6.69071 6.65673
C 3.49294 5.99252 0.961049
H 2.46049 6.30524 1.01922
C 0.452199 6.14592 5.6154
C 4.26075 6.31183 -0.164588
C 5.27868 2.08774 4.4106
C 1.67634 10.0352 10.416
C -0.233605 5.65681 4.35871
C 3.26458 6.77859 10.4813
Ni 9.47577 8.84034 9.00478
Ni 13.167 4.08036 3.09041
O 7.55838 4.74173 3.46345
O 10.9569 7.84789 9.21299
O 11.7202 3.05196 3.14884
O 7.99218 9.80819 9.15629
O 12.6398 5.13887 4.38096
O 9.02641 7.67218 10.2477
O 6.5447 2.57007 4.54639
O 9.87025 9.97379 10.2866
N 10.2172 10.0605 7.67459
N 6.83269 2.61154 1.93272
N 8.7911 7.65824 7.58772
N 12.4326 5.30309 1.78627
C 10.1529 1.83457 5.42204
C 6.72328 2.05442 -0.414076
H 9.59827 1.92858 4.51147
C 11.546 2.06235 5.43853
C 8.12462 1.79822 -0.46416
C 12.1857 1.95988 6.6788
C 8.84043 1.97076 0.729465
H 6.27678 10.469 6.81392
H 9.90679 1.79349 0.756821
C 8.76658 6.83686 5.29851
C 12.6323 6.27808 -0.398126
H 9.21743 6.83849 4.31574
C 9.37033 7.57726 6.3434
C 13.2023 5.88133 0.834968
H 10.2121 8.18031 6.10033
H 7.26633 5.35495 1.20438
C 9.48735 10.5203 6.60612
C 6.09464 2.26599 0.844179
H 8.42855 10.3455 6.5743
H 12.7327 10.4385 1.8377
C 11.5688 10.2974 7.68366
C 8.19182 2.43169 1.89306
H 12.1843 9.76703 8.36411
H 8.79281 2.75489 2.71889
C 7.53293 7.13713 7.72645
C 11.0729 5.51373 1.74143
H 6.85937 7.62824 8.37489
H 10.4508 5.17467 2.55691
C 7.0271 6.18162 6.80508
C 10.4666 6.18117 0.64056
H 9.41193 6.41099 0.675823
C 7.57339 6.13905 5.52419
C 11.2332 6.53744 -0.486485
C 12.3293 2.42928 4.18179
C 8.60678 10.4342 10.1946
C 6.8763 5.40193 4.40986
C 10.286 7.18943 10.194
C 2.36956 10.2698 4.23856
N 1.28278 9.29127 4.23805
H 3.03483 10.0305 3.38257
H 1.961 2.1804 4.08909
H 1.67808 8.34091 4.0465
H 0.59835 9.52852 3.48839
C 12.9336 10.1179 -0.820317
N 12.1334 2.33778 10.7759
H 12.1517 9.48953 -0.340619
H 13.0067 9.56281 10.2272
H 11.7521 2.67713 -0.395805
H 11.6562 2.39068 9.86041
C 12.3498 6.87674 6.52912
N 11.5791 5.7263 7.02155
H 12.0647 7.14831 5.4938
H 12.068 7.76021 7.11287
H 12.1369 5.06866 7.60511
H 11.0928 5.21688 6.25151
C 6.43338 6.64885 10.9513
N 7.47968 5.63121 10.6987
H 5.9918 7.00459 10.0514
H 7.1538 7.53571 -0.477974
H 7.17565 4.64692 10.8812
H 7.86556 5.66724 9.73764
C -0.639589 2.70071 6.93296
N -0.362983 2.97889 8.32243
H 0.195078 2.14093 6.48947
H -0.67973 3.68863 6.44173
H -0.294632 2.08676 8.83415
H 0.577865 3.43096 8.36894
C 5.61083 1.99033 10.284
N 4.57666 3.02442 10.2307
H 5.16426 10.1033 10.3316
H 6.20053 2.11147 9.36532
H 4.46211 3.62502 11.0712
H 3.68947 2.70197 9.78897
C 5.89991 5.23041 7.15549
N 5.61613 5.15267 8.55732
H 4.98883 5.54611 6.63388
H 6.15857 4.20317 6.80054
H 4.59589 4.96449 8.67945
H 6.17196 4.35719 8.93179
C -0.887141 6.29456 10.3352
N 0.134414 5.25085 10.4228
H 12.6577 6.13614 9.42196
H -0.409913 7.28802 10.3575
H -0.317051 4.31278 10.5076
H 0.749282 5.2804 9.58408
148
Atoms. Timestep: 14231
Ni 2.47199 8.38703 9.26489
Ni 6.09441 3.74078 3.30103
O 0.461587 5.09982 3.35968
O 3.89691 7.36037 9.44506
O 4.63989 2.75097 3.42549
O 1.05135 9.41612 9.41008
O 5.62666 4.87352 4.54119
O 2.00261 7.27326 10.5558
O -0.52091 2.88078 4.27506
O 2.9409 9.54585 10.5334
N 3.22504 9.50027 7.86803
N -0.118589 3.02162 1.70319
N 1.71243 7.23433 7.91056
N 5.38277 4.90771 2.00221
C 3.14237 10.2441 5.54125
C -0.0851486 10.3251 0.142317
C 4.53069 10.5646 5.57717
C 1.21212 10.7131 -0.341985
C 5.22493 10.2632 6.74482
C 1.80822 2.69171 0.273336
H 2.78416 3.01935 -0.0287783
C 1.86071 6.13556 5.75214
C 5.68206 6.10446 -0.0380902
H 2.4819 5.76392 4.94869
C 2.47267 6.73218 6.8898
C 6.19653 5.46841 1.09776
H 3.51243 6.98996 6.8467
H 0.134047 5.97195 0.987098
C 2.49413 9.82324 6.75202
C -0.518979 1.76166 1.37031
H 1.45011 9.57013 6.73182
H 5.01384 2.28102 0.905872
C 4.58755 9.60017 7.79952
C 1.09965 3.43769 1.22136
H 5.19594 9.0769 8.50427
H 1.54695 4.32619 1.58145
C 0.353473 7.27982 7.75003
C 4.06047 5.25389 2.02607
H -0.230178 7.92636 8.36455
H 3.44302 4.95712 2.86105
C -0.29381 6.69355 6.65668
C 3.49319 5.99588 0.969426
H 2.46368 6.31655 1.03263
C 0.454339 6.14247 5.6174
C 4.26081 6.3156 -0.157966
C 5.27885 2.08439 4.40944
C 1.68127 10.0334 10.4178
C -0.231258 5.64875 4.3615
C 3.26494 6.78242 10.4868
Ni 9.47451 8.84027 9.00272
Ni 13.1678 4.07978 3.08886
O 7.5566 4.73398 3.46535
O 10.9545 7.8503 9.21229
O 11.7212 3.05467 3.14481
O 7.99188 9.80679 9.15164
O 12.6426 5.1315 4.38587
O 9.02436 7.67824 10.2507
O 6.54435 2.56611 4.54718
O 9.87007 9.97348 10.2846
N 10.2164 10.0536 7.66842
N 6.82994 2.61255 1.9299
N 8.78893 7.65828 7.58587
N 12.4314 5.30451 1.78774
C 10.1563 1.82153 5.4108
C 6.72376 2.06081 -0.422279
H 9.60639 1.90349 4.49451
C 11.5476 2.0572 5.43272
C 8.1243 1.80031 -0.468964
C 12.1844 1.95701 6.67717
C 8.83814 1.96956 0.728364
H 6.28038 10.4554 6.81089
H 9.90388 1.78956 0.757975
C 8.76485 6.82788 5.2962
C 12.6307 6.29115 -0.393952
H 9.2157 6.82461 4.3113
C 9.36877 7.57138 6.33973
C 13.1998 5.8945 0.841263
H 10.2108 8.1717 6.09363
H 7.26403 5.35172 1.20925
C 9.48843 10.5078 6.59502
C 6.09301 2.27269 0.837012
H 8.43067 10.3279 6.55913
H 12.7524 10.4341 1.8532
C 11.567 10.2949 7.68225
C 8.18859 2.43067 1.89265
H 12.1819 9.76859 8.36698
H 8.78872 2.75449 2.72015
C 7.53043 7.14006 7.72676
C 11.0711 5.50978 1.74266
H 6.85806 7.63121 8.37612
H 10.4494 5.16581 2.55782
C 7.0246 6.1823 6.80875
C 10.4638 6.18001 0.642988
H 9.40912 6.40813 0.679727
C 7.5714 6.13294 5.52601
C 11.2306 6.54283 -0.48394
C 12.3309 2.4294 4.17666
C 8.60683 10.4336 10.19
C 6.87473 5.39176 4.41379
C 10.2834 7.19545 10.1961
C 2.37121 10.2634 4.2338
N 1.28888 9.28224 4.23411
H 3.03728 10.0278 3.37569
H 1.958 2.16967 4.08398
H 1.68817 8.3358 4.042
H 0.602167 9.51592 3.48418
C 12.9387 10.114 -0.813153
N 12.1365 2.33017 10.783
H 12.1579 9.48729 -0.330405
H 13.0099 9.56032 10.2315
H 11.7551 2.66746 -0.38665
H 11.6588 2.38263 9.86593
C 12.352 6.87833 6.52766
N 11.5821 5.73179 7.02551
H 12.0673 7.14456 5.48878
H 12.0694 7.76221 7.10888
H 12.1433 5.07273 7.6039
H 11.0889 5.22616 6.25653
C 6.43478 6.65634 10.9613
N 7.48256 5.64336 10.7028
H 5.99544 7.02113 10.0621
H 7.15445 7.53654 -0.457976
H 7.18563 4.65987 10.89
H 7.86432 5.67872 9.73829
C -0.642407 2.69797 6.93482
N -0.369054 2.97378 8.32809
H 0.194314 2.1411 6.4916
H -0.683334 3.68405 6.44354
H -0.290926 2.08215 8.83683
H 0.566986 3.43439 8.37663
C 5.61334 1.99426 10.2721
N 4.57428 3.02072 10.218
H 5.1698 10.1084 10.3211
H 6.20429 2.11823 9.35214
H 4.46604 3.63052 11.0539
H 3.68585 2.69451 9.78142
C 5.8964 5.23587 7.16406
N 5.6096 5.16682 8.56855
H 4.98643 5.54797 6.63794
H 6.15521 4.20875 6.8148
H 4.58944 4.97778 8.68956
H 6.16461 4.3752 8.94884
C -0.888455 6.30549 10.3371
N 0.127696 5.25912 10.4238
H 12.6565 6.15112 9.42143
H -0.406597 7.29421 10.3604
H -0.329917 4.3257 10.5039
H 0.744584 5.28807 9.58475
148
Atoms. Timestep: 14234
Ni 2.47254 8.39237 9.25788
Ni 6.09457 3.73445 3.30414
O 0.462017 5.09688 3.36269
O 3.89741 7.36316 9.43773
O 4.64011 2.74217 3.42839
O 1.05196 9.42403 9.40282
O 5.62689 4.87001 4.54224
O 2.00323 7.27582 10.5467
O -0.520411 2.8723 4.27655
O 2.94146 9.55409 10.5242
N 3.2255 9.50838 7.8634
N -0.118209 3.01349 1.709
N 1.71296 7.23681 7.90586
N 5.38291 4.90428 2.0075
C 3.14274 10.2541 5.54056
C -0.084803 10.3353 0.150808
C 4.53102 10.5754 5.57643
C 1.21239 10.7242 -0.33269
C 5.22525 10.2732 6.7421
C 1.80847 2.68274 0.281589
H 2.78435 3.01119 -0.0200159
C 1.86116 6.13524 5.75108
C 5.68212 6.10408 -0.0293192
H 2.48228 5.76266 4.949
C 2.47312 6.73336 6.88682
C 6.1966 5.46641 1.10462
H 3.51284 6.99179 6.8438
H 0.134401 5.97122 0.994145
C 2.49459 9.8322 6.74928
C -0.518575 1.75037 1.37672
H 1.45061 9.57845 6.72911
H 5.01396 2.27101 0.913055
C 4.58795 9.60856 7.79502
C 1.09996 3.43058 1.22799
H 5.19634 9.08397 8.49856
H 1.54725 4.32132 1.58748
C 0.354062 7.28238 7.74561
C 4.06066 5.25135 2.03136
H -0.229534 7.93055 8.35907
H 3.44328 4.95383 2.86493
C -0.293225 6.69464 6.65411
C 3.49339 5.99521 0.976504
H 2.46392 6.31669 1.0396
C 0.454833 6.14217 5.61658
C 4.26092 6.31574 -0.148979
C 5.27909 2.0739 4.41065
C 1.68191 10.0428 10.4088
C -0.230768 5.6472 4.3628
C 3.26549 6.78374 10.4777
Ni 9.47472 8.84675 8.99615
Ni 13.1676 4.07429 3.09232
O 7.55671 4.73011 3.46819
O 10.9547 7.85431 9.20537
O 11.7211 3.04663 3.14818
O 7.99215 9.81568 9.14481
O 12.6425 5.12864 4.38719
O 9.02464 7.68182 10.2421
O 6.54452 2.55684 4.54822
O 9.8703 9.98279 10.2759
N 10.2165 10.0631 7.66412
N 6.83001 2.60341 1.93534
N 8.78911 7.66182 7.58171
N 12.4313 5.30208 1.79341
C 10.1564 1.81038 5.41032
C 6.72375 2.05025 -0.412859
H 9.60642 1.89254 4.49559
C 11.5476 2.04663 5.43222
C 8.12424 1.78909 -0.459456
C 12.1844 1.94619 6.67456
C 8.83807 1.95877 0.735849
H 6.28066 10.4659 6.80805
H 9.90377 1.77832 0.765408
C 8.76497 6.8293 5.2959
C 12.6304 6.29123 -0.384574
H 9.21575 6.82602 4.31268
C 9.36888 7.57467 6.33767
C 13.1995 5.89358 0.848562
H 10.2109 8.1765 6.092
H 7.26406 5.34943 1.21592
C 9.48855 10.5185 6.59255
C 6.09308 2.26265 0.84431
H 8.43084 10.3381 6.55672
H 12.7522 10.4446 1.85878
C 11.5671 10.305 7.67795
C 8.1886 2.42104 1.89818
H 12.1819 9.7774 8.3615
H 8.78873 2.74568 2.72427
C 7.53067 7.14227 7.72239
C 11.0709 5.50788 1.74843
H 6.85836 7.63465 8.37062
H 10.4493 5.16305 2.56221
C 7.02485 6.1821 6.80592
C 10.4637 6.1798 0.650618
H 9.40903 6.4085 0.687294
C 7.57156 6.13261 5.52536
C 11.2304 6.54354 -0.474404
C 12.3308 2.41977 4.17827
C 8.60713 10.4441 10.1814
C 6.87489 5.38957 4.415
C 10.2836 7.1978 10.1875
C 2.37156 10.2735 4.23532
N 1.28932 9.28982 4.23565
H 3.03759 10.0373 3.37867
H 1.95838 2.15937 4.08577