ITEM: TIMESTEP
0
ITEM: NUMBER OF ATOMS
172
ITEM: BOX BOUNDS xy xz yz pp pp pp
-2.3659073149635904e-01 1.5348502250385600e+01 0.0000000000000000e+00
0.0000000000000000e+00 1.0326536178097300e+01 -2.3659073149635904e-01
0.0000000000000000e+00 1.0680418570822100e+01 0.0000000000000000e+00
ITEM: ATOMS id type x y z
1 1 2.23285 9.04346 9.04769
2 1 6.16898 3.27257 3.20886
3 2 -0.0615789 4.71405 4.06229
4 2 3.59719 7.93045 9.16757
5 2 4.62433 2.39889 3.36107
6 2 0.915755 10.1172 9.18831
7 2 5.84456 4.41854 4.50362
8 2 1.73107 7.95867 10.3417
9 2 14.1355 2.54808 5.05956
10 2 2.8058 10.2167 10.3198
11 3 3.03417 10.1071 7.63428
12 3 14.7257 2.5509 2.49808
13 3 1.32588 7.93495 7.76697
14 3 5.51442 4.56346 1.87202
15 4 3.03841 0.818848 5.43221
16 4 14.9627 1.5173 0.320322
17 5 2.51995 0.997987 4.51128
18 5 7.36662 9.22536 0.809635
19 4 4.4259 1.05928 5.5104
20 4 0.978261 1.1913 0.555557
21 4 5.04373 0.771639 6.73199
22 4 1.50119 1.53117 1.80673
23 5 13.9143 0.120934 6.41307
24 5 2.5307 1.30282 2.04294
25 4 1.17656 7.11499 5.5341
26 4 5.1213 6.85161 1.10312
27 4 1.94864 7.45991 6.66166
28 4 5.90639 5.88992 1.82116
29 5 2.99412 7.68707 6.52838
30 5 14.636 4.43997 0.914165
31 4 2.34924 0.19828 6.52108
32 4 14.1474 2.03845 1.3744
33 5 1.32031 10.2423 6.39708
34 5 5.9855 0.217162 2.41275
35 4 4.39669 10.23 7.63584
36 4 0.679808 2.19599 2.76964
37 5 4.95993 9.83986 8.47247
38 5 1.09311 2.44646 3.72917
39 4 -0.0583345 7.8966 7.81039
40 4 4.43729 4.20363 1.10412
41 5 14.7666 8.31822 8.65531
42 5 4.18115 3.15639 1.0187
43 4 14.54 7.24012 6.796
44 4 3.43856 5.1664 0.822365
45 4 15.216 6.61799 5.7589
46 4 3.86802 6.47909 0.556249
47 4 5.21474 1.68197 4.34176
48 4 1.55567 0.436569 10.1593
49 4 14.5989 5.43963 4.94612
50 4 2.93118 7.34198 10.1706
51 1 9.95308 8.52247 8.65151
52 1 13.8392 3.75709 3.778
53 2 7.73513 4.13352 3.37751
54 2 11.3927 7.54381 8.82945
55 2 12.3438 2.7918 3.7505
56 2 8.49269 9.51309 8.73831
57 2 13.3183 4.96003 5.03727
58 2 9.48864 7.36979 9.94253
59 2 6.5247 2.03743 4.43454
60 2 10.3487 9.70222 9.94027
61 3 10.7591 9.66863 7.32261
62 3 6.77364 2.10896 1.79435
63 3 9.22508 7.33838 7.29201
64 3 13.2356 4.99022 2.38535
65 4 10.8526 0.498158 5.181
66 4 7.49966 10.2957 0.879285
67 4 12.1754 0.932919 5.48212
68 4 8.49355 0.608037 0.105332
69 4 12.8447 0.213321 6.45172
70 4 8.47087 2.00614 0.093702
71 4 9.25692 5.96592 5.28128
72 4 13.045 5.59337 0.0472713
73 5 9.7999 5.57962 4.43536
74 5 5.48801 7.85934 0.974169
75 4 9.91474 6.82909 6.22137
76 4 13.7141 4.94157 1.11099
77 5 10.9307 7.14647 6.0353
78 5 6.84737 6.20073 2.24644
79 4 10.1226 10.1093 6.19473
80 4 6.69416 0.73175 1.78433
81 5 9.11774 9.76941 5.99815
82 5 13.0824 2.09078 1.25888
83 4 12.1206 9.82425 7.41324
84 4 7.56122 2.71658 0.881475
85 5 12.6536 9.4103 8.25183
86 5 7.60489 3.7923 0.873371
87 4 7.87943 7.11114 7.37299
88 4 12.1486 5.80473 2.64536
89 5 7.32393 7.5876 8.1565
90 5 11.8097 5.94927 3.65101
91 4 7.22939 6.15545 6.56807
92 4 11.4094 6.41551 1.60518
93 5 13.4637 7.29028 6.7947
94 5 10.5099 6.96523 1.84218
95 4 7.88759 5.63881 5.43678
96 4 11.8139 6.27354 0.278832
97 4 12.8961 2.06796 4.73845
98 4 9.07675 10.1668 9.74649
99 4 7.13691 4.80376 4.38754
100 4 10.7742 6.90577 9.82163
101 6 6.05162 2.01987 7.45064
102 7 7.81475 1.97041 7.06363
103 5 8.16576 2.97845 6.76877
104 5 7.96395 1.29455 6.21137
105 5 8.39198 1.60971 7.92133
106 7 5.43569 2.31437 9.12109
107 5 5.94382 3.17904 9.54205
108 5 5.59692 1.4199 9.74935
109 5 4.34836 2.53151 9.07712
110 6 14.0628 1.41578 9.34386
111 7 12.3885 1.97431 9.28304
112 5 11.7939 1.25687 9.86437
113 5 12.3737 2.94781 9.78094
114 5 12.015 2.05268 8.24684
115 7 15.1546 2.09691 8.05804
116 5 0.0358995 1.32724 7.32592
117 5 14.6635 2.89797 7.50737
118 5 0.77062 2.43784 8.48023
119 6 1.4014 8.19581 4.15206
120 7 3.10467 8.56296 3.6366
121 5 3.50887 7.69399 3.09584
122 5 3.75139 8.73353 4.51744
123 5 3.11876 9.44254 2.96362
124 7 0.0619386 9.36808 3.80769
125 5 14.4455 8.92301 4.12139
126 5 0.0241974 9.57136 2.71928
127 5 0.219435 10.3085 4.36562
128 6 1.98028 4.99503 1.80124
129 7 2.71324 4.86977 3.46557
130 5 3.68404 5.38889 3.50283
131 5 2.83286 3.81972 3.75303
132 5 2.11446 5.32795 4.23034
133 7 0.890502 6.43114 1.6635
134 5 0.388025 6.47154 0.693762
135 5 1.49405 7.33043 1.75088
136 5 0.114894 6.4427 2.44048
137 6 10.4324 0.171295 3.46299
138 7 9.16983 9.19858 3.36594
139 5 8.18904 9.58865 3.70449
140 5 9.47232 8.35232 4.00327
141 5 9.10912 8.81865 2.33089
142 7 11.8908 9.78951 2.64413
143 5 12.7526 0.145241 2.73607
144 5 11.674 9.61784 1.57319
145 5 12.1482 8.82548 3.12728
146 6 9.58968 2.91662 10.1646
147 7 8.89422 4.36372 9.34268
148 5 8.62255 5.10934 10.1093
149 5 7.99465 4.04704 8.80365
150 5 9.56441 4.80292 8.59528
151 7 10.5539 3.33475 1.07733
152 5 10.59 2.43682 1.71832
153 5 9.95865 4.11982 1.58344
154 5 11.5672 3.65768 0.915647
155 6 5.83936 5.28671 7.29197
156 7 5.62054 5.7029 9.01389
157 5 6.44076 5.35198 9.64903
158 5 5.57851 6.79146 9.12637
159 5 4.68768 5.20896 9.31444
160 7 4.21013 5.2358 6.51079
161 5 4.01484 4.2204 6.11113
162 5 3.43503 5.42272 7.27732
163 5 4.17418 5.98905 5.70227
164 6 13.5306 5.50215 9.10165
165 7 -0.0544908 5.04485 9.02794
166 5 0.579469 5.87227 9.36803
167 5 0.151184 4.18686 9.68881
168 5 0.247504 4.83655 7.98483
169 7 12.4387 4.80789 7.83557
170 5 12.0841 5.59969 7.16873
171 5 12.9376 4.0367 7.24117
172 5 11.5678 4.35844 8.30926
