172
Atoms. Timestep: 0
Ni 2.89857 9.41116 8.59265
Ni 6.17525 3.10579 3.48481
O 1.44827 4.35425 3.93374
O 4.4416 8.15245 9.05464
O 4.63665 1.84729 3.87523
O 1.36499 10.6744 9.00295
O 5.80609 4.46033 4.96242
O 2.54244 8.0327 10.0675
O 0.25117 1.69264 4.94273
O 3.23722 10.8047 10.0626
N 3.69677 10.6606 7.2416
N 0.71256 1.8642 2.11704
N 2.17217 8.14409 7.25198
N 5.44023 4.39481 2.13747
C 3.48546 12.1483 5.36301
C 0.47488 0.38955 0.2292
H 2.86453 12.5181 4.55267
H 5.86971 0.03371 9.69377
C 4.76073 0.1474 5.61481
C 1.74333 12.3699 0.47412
C 5.50345 12.1502 6.68209
C 2.49852 0.35508 1.54004
H 0.24768 12.5084 6.91993
H 3.49155 12.5067 1.77336
C 2.48363 6.6337 5.40822
C 5.72803 5.90364 0.28669
H 3.13294 6.27291 4.61605
H -0.10828 6.26667 9.7662
C 2.92756 7.68099 6.23068
C 6.1883 4.86756 1.11596
H 3.89994 8.14655 6.0889
C 2.98256 11.1359 6.19748
C -0.01036 1.40553 1.07106
H 1.99392 10.709 6.04703
H 5.26093 1.85011 0.92351
C 4.93641 11.1381 7.47507
C 1.94823 1.3719 2.3406
C 0.94573 7.62654 7.47302
C 4.21083 4.90458 2.35686
H 3.63605 4.47744 3.17528
C 0.43859 6.57577 6.69176
C 3.68763 5.945 1.56944
H 5.70774 6.17693 6.91975
H 2.69824 6.32683 1.80071
C 1.22745 6.06471 5.65205
C 4.46338 6.45777 0.52027
C 5.3126 1.24381 4.79419
C 2.0502 11.2675 9.92158
C 0.73548 4.94016 4.83586
C 3.73174 7.56629 9.95688
Ni 9.15137 9.41116 8.59265
Ni 12.4281 3.10579 3.48481
O 7.70109 4.35425 3.93374
O 10.6944 8.15245 9.05464
O 10.8895 1.84729 3.87523
O 7.61779 10.6744 9.00295
O 12.0589 4.46033 4.96242
O 8.79524 8.0327 10.0675
O 6.50397 1.69264 4.94273
O 9.49002 10.8047 10.0626
N 9.94957 10.6606 7.2416
N 6.96536 1.8642 2.11704
N 8.42499 8.14409 7.25198
N 11.693 4.39481 2.13747
C 9.73826 12.1483 5.36301
C 6.72768 0.38955 0.2292
H 9.11733 12.5181 4.55267
H 12.1225 0.03371 9.69377
C 11.0135 0.1474 5.61481
C 7.99613 12.3699 0.47412
C 11.7562 12.1502 6.68209
C 8.75132 0.35508 1.54004
H 6.50047 12.5084 6.91993
H 9.74435 12.5067 1.77336
C 8.73644 6.6337 5.40822
C 11.9808 5.90364 0.28669
H 9.38574 6.27291 4.61605
H 6.14452 6.26667 9.7662
C 9.18036 7.68099 6.23068
C 12.4411 4.86756 1.11596
H 10.1527 8.14655 6.0889
C 9.23536 11.1359 6.19748
C 6.24244 1.40553 1.07106
H 8.24672 10.709 6.04703
H 11.5137 1.85011 0.92351
C 11.1892 11.1381 7.47507
C 8.20102 1.3719 2.3406
C 7.19853 7.62654 7.47302
C 10.4636 4.90458 2.35686
H 9.88885 4.47744 3.17528
C 6.69139 6.57577 6.69176
C 9.94043 5.945 1.56944
H 11.9605 6.17693 6.91975
H 8.95104 6.32683 1.80071
C 7.48025 6.06471 5.65205
C 10.7162 6.45777 0.52027
C 11.5654 1.24381 4.79419
C 8.303 11.2675 9.92158
C 6.98827 4.94016 4.83586
C 9.98454 7.56629 9.95688
P 5.93967 10.4041 8.92702
C 4.70978 9.30306 9.80751
H 4.48931 8.41153 9.18511
H 3.77153 9.85157 10.0336
H 5.38042 8.96342 0.49185
C 5.77031 11.8477 10.1017
H 6.33815 0.19917 9.72924
H 6.40048 11.5597 0.82026
H 4.70415 12.1362 10.2084
P 2.97005 2.08942 3.78751
C 1.75907 3.20178 4.67991
H 1.54457 4.09773 4.0618
H 0.81614 2.66339 4.91087
H 2.21263 3.5333 5.63646
C 2.79225 0.64419 4.95891
H 3.34738 12.2874 4.57983
H 3.20498 0.92449 5.9498
H 1.7236 0.3677 5.07218
P -0.11509 8.35494 8.88386
C 1.05232 9.52292 9.76321
H 1.2525 10.4074 9.12413
H 2.00549 9.01638 10.0224
H 0.80319 9.86768 0.42938
C 0.0829 6.94693 10.0966
H 12.0627 6.04238 9.7336
H 12.381 7.24255 0.79913
H 1.15663 6.70235 10.2329
P 7.90559 4.0953 0.80445
C 8.16109 2.96554 2.27368
H 7.48152 2.09175 2.19964
H 7.98637 3.50449 3.22831
H 9.2083 2.59963 2.26836
C 8.93658 5.50378 1.47208
H 8.85871 6.39073 0.81345
H 9.99918 5.18829 1.51861
H 8.59339 5.78582 2.4889
P 12.1925 10.4041 8.92702
C 10.9626 9.30306 9.80751
H 10.7421 8.41153 9.18511
H 10.0243 9.85157 10.0336
H 11.6332 8.96342 0.49185
C 12.0231 11.8477 10.1017
H 0.08535 0.19917 9.72924
H 0.14768 11.5597 0.82026
H 10.9569 12.1362 10.2084
P 9.21947 2.08336 3.79287
C 8.19761 3.53424 4.38532
H 7.27779 3.16782 4.88579
H 7.93127 4.2068 3.54327
H 8.79111 4.11622 5.11994
C 10.4176 3.10084 2.78211
H 11.0975 2.44392 2.20524
H 11.0259 3.73122 3.46281
H 9.86788 3.75309 2.07245
P 6.14116 8.34914 8.88942
C 7.11518 9.84228 9.45698
H 8.0366 9.51419 9.98058
H 7.3765 10.4989 8.60091
H 6.49536 10.4276 10.1668
C 4.93214 9.30665 7.834
H 4.27877 8.6165 7.26538
H 4.29705 9.93852 8.48835
H 5.47525 9.95414 7.11492
P 1.6564 4.10119 0.80982
C 1.71 2.64105 1.97832
H 1.78325 2.99929 3.02574
H 0.81316 1.99817 1.85718
H 2.60786 2.03069 1.75049
C 0.99118 3.10618 9.56393
H 0.7802 3.77528 8.707
H 1.84501 2.44903 9.29947
H 0.09414 2.48182 9.7557
