ITEM: TIMESTEP
0
ITEM: NUMBER OF ATOMS
172
ITEM: BOX BOUNDS xy xz yz pp pp pp
-2.2188031994638588e-01 1.6596040671861498e+01 0.0000000000000000e+00
0.0000000000000000e+00 1.0515962992859601e+01 -2.2188031994638588e-01
0.0000000000000000e+00 1.0016346264569499e+01 0.0000000000000000e+00
ITEM: ATOMS id type x y z
1 1 2.03957 8.78468 8.76
2 1 6.40381 3.3628 3.64588
3 2 16.3184 4.32066 3.93291
4 2 3.46519 7.78699 8.85095
5 2 4.92122 2.41673 3.83216
6 2 0.600569 9.80022 8.88032
7 2 6.11263 4.53253 4.97965
8 2 1.55092 7.46274 9.89178
9 2 14.934 2.43621 5.21005
10 2 2.5652 9.76836 0.17893
11 3 2.94468 10.1078 7.55336
12 3 15.5372 2.14686 2.71349
13 3 1.30417 7.77915 7.28997
14 3 5.55049 4.63698 2.38837
15 4 3.74696 10.5053 5.26469
16 4 15.9407 1.2276 0.521938
17 5 3.5801 10.3784 4.20444
18 5 7.60786 1.86054 8.97777
19 4 4.82898 0.7571 5.70714
20 4 0.544505 0.627465 0.921501
21 4 5.00765 0.87448 7.07563
22 4 0.883997 0.6969 2.25378
23 5 14.4651 0.485735 7.09796
24 5 1.77544 0.191151 2.60396
25 4 1.41313 6.19013 5.48625
26 4 5.1215 5.60509 0.233321
27 5 2.01429 5.66857 4.76716
28 5 12.5267 4.63191 9.31445
29 4 2.03541 6.8941 6.5396
30 4 6.0488 5.18116 1.22637
31 5 3.0755 6.73135 6.73935
32 4 2.82107 9.94162 6.18208
33 4 15.0916 1.86854 1.47083
34 5 1.96813 9.44176 5.76841
35 5 6.18838 2.908 0.515532
36 4 4.04643 0.363925 7.99455
37 4 0.125627 1.48787 3.14406
38 4 -0.0578616 7.92376 6.98878
39 4 4.31382 5.09807 2.80083
40 5 3.99742 4.92006 3.81292
41 4 16.0683 7.47914 5.75424
42 4 3.47888 5.87397 1.95252
43 5 7.09152 5.30221 7.38366
44 5 2.58382 6.33177 2.35071
45 4 0.0289602 6.32689 5.28575
46 4 3.84255 6.07741 0.621152
47 4 5.56568 1.6782 4.73972
48 4 1.13916 10.3378 9.95448
49 4 15.7997 5.17406 4.77084
50 4 2.83141 7.00077 9.70401
51 1 10.3325 8.64591 8.63783
52 1 14.7723 3.55683 3.8377
53 2 7.8744 4.27479 3.67583
54 2 11.7385 7.65734 8.90202
55 2 13.1772 2.74074 3.94876
56 2 8.91545 9.68302 8.57992
57 2 14.4613 4.89729 5.00715
58 2 9.78933 7.43929 9.90101
59 2 6.83787 2.13832 4.89965
60 2 10.5654 9.80003 9.97375
61 3 11.2969 9.82581 7.37124
62 3 7.09742 2.13943 2.28023
63 3 9.64014 7.46727 7.26402
64 3 14.1882 4.82556 2.36059
65 4 11.782 0.208895 5.14078
66 4 7.85134 1.63164 0.0183866
67 5 11.5573 0.211784 4.0887
68 5 15.4232 1.16246 9.50603
69 4 12.9928 0.773581 5.60112
70 4 8.69112 0.603742 0.507065
71 4 13.4719 0.245535 6.78268
72 4 8.59427 0.29703 1.85115
73 5 5.82572 1.48136 7.44297
74 5 9.20336 10.0126 2.25527
75 4 9.6361 6.04885 5.3067
76 4 12.8902 4.95792 0.31314
77 5 10.0732 5.78286 4.35309
78 5 5.23936 5.7487 9.23134
79 4 10.3254 6.94071 6.19601
80 4 14.0912 4.55096 1.01895
81 5 11.3271 7.2662 5.96996
82 4 10.9355 9.98685 6.04952
83 4 6.98638 2.33184 0.919918
84 5 9.99225 9.59558 5.69547
85 5 14.0907 2.11601 1.21599
86 4 12.5695 10.2744 7.74499
87 4 8.13534 1.3028 2.70475
88 4 8.32465 7.04388 7.44636
89 4 13.5198 5.98162 2.76905
90 5 13.893 6.56708 3.59037
91 4 7.95876 5.8048 6.97135
92 4 12.4035 6.51155 2.05736
93 5 15.0934 7.7897 5.39695
94 5 11.895 7.38579 2.44526
95 4 8.356 5.54111 5.69211
96 4 12.078 6.03219 0.788466
97 4 13.6683 2.02969 4.96841
98 4 9.38116 10.34 9.61247
99 4 7.39809 4.94211 4.69953
100 4 11.0817 6.943 9.79319
101 6 4.16341 1.05674 9.65624
102 7 4.88749 0.0378007 1.09714
103 5 4.68083 9.4758 0.960668
104 5 4.37286 0.409866 2.00389
105 5 5.96694 0.0530598 1.25938
106 7 3.13875 2.52352 9.94553
107 5 3.55787 3.36917 9.36787
108 5 3.35049 2.76878 1.0108
109 5 2.10779 2.34659 9.58645
110 6 0.889797 1.7507 4.77879
111 7 2.0946 3.04428 5.01363
112 5 2.25719 3.54764 4.04423
113 5 1.70239 3.70151 5.80595
114 5 3.02793 2.63281 5.41181
115 7 0.366547 1.07624 6.3809
116 5 0.00929197 0.0374277 6.26572
117 5 1.19364 1.17847 7.09643
118 5 16.207 1.68873 6.86544
119 6 15.2587 7.92624 8.26456
120 7 15.5403 7.8741 0.06742
121 5 14.5423 7.6045 0.445712
122 5 15.8246 8.84325 0.487837
123 5 16.2177 7.11971 0.456768
124 7 14.0205 6.7711 7.66041
125 5 13.3183 7.29354 6.98733
126 5 13.5376 6.33011 8.50634
127 5 14.4819 5.93361 7.13736
128 6 7.59669 6.05217 1.2514
129 7 9.04131 5.00464 1.1385
130 5 8.74315 4.00455 1.42206
131 5 9.80077 5.36395 1.85354
132 5 9.41043 4.96289 0.0949173
133 7 7.67144 7.39727 2.46977
134 5 7.22177 8.31204 2.03994
135 5 8.72585 7.59334 2.7521
136 5 7.08157 7.1367 3.36311
137 6 12.8467 0.453886 9.35088
138 7 13.164 10.0351 0.921484
139 5 12.8564 8.99159 0.784523
140 5 12.5062 10.5059 1.67635
141 5 14.1758 10.0037 1.34342
142 7 11.8979 1.98833 9.31189
143 5 12.1403 2.46591 0.280552
144 5 10.852 1.8182 9.00747
145 5 12.3483 2.63106 8.53398
146 6 9.4486 1.98863 3.71474
147 7 9.52268 2.23297 5.52673
148 5 8.91341 3.08039 5.84977
149 5 10.5614 2.44886 5.84474
150 5 9.12093 1.34348 6.04779
151 7 10.7509 2.62225 2.64261
152 5 11.5542 1.87597 2.57186
153 5 11.0942 3.61555 2.99431
154 5 10.3761 2.69513 1.6123
155 6 6.99545 8.23633 7.39853
156 7 6.4826 8.62345 9.08203
157 5 7.31023 8.44517 9.78195
158 5 6.223 9.68781 9.11478
159 5 5.66189 7.99464 9.41038
160 7 5.62977 7.69057 6.34878
161 5 5.36544 6.64035 6.57364
162 5 4.76253 8.3191 6.56391
163 5 5.90808 7.79473 5.28272
164 6 15.6249 4.5434 0.0643701
165 7 0.582582 4.58148 0.987323
166 5 0.537543 5.38014 1.75138
167 5 0.784577 3.61059 1.46864
168 5 1.39937 4.78486 0.271988
169 7 15.5935 3.72997 8.48365
170 5 15.9626 4.45449 7.7354
171 5 16.397 2.98194 8.59192
172 5 14.6411 3.26832 8.15663
