ITEM: TIMESTEP
0
ITEM: NUMBER OF ATOMS
172
ITEM: BOX BOUNDS xy xz yz pp pp pp
-2.2759399999999999e-01 1.2505599999999999e+01 0.0000000000000000e+00
0.0000000000000000e+00 1.2523400000000001e+01 -2.2759399999999999e-01
0.0000000000000000e+00 1.0274279000000000e+01 0.0000000000000000e+00
ITEM: ATOMS id type x y z
1 1 2.51026 9.67745 8.55676
2 1 6.11553 3.15676 3.38442
3 2 1.30689 4.30725 4.27358
4 2 3.63291 8.27681 8.7792
5 2 4.77459 1.9643 3.67315
6 2 1.42085 11.1419 8.55746
7 2 5.69786 4.44849 4.63891
8 2 3.63308 8.27696 8.77911
9 2 0.312094 2.05462 5.35125
10 2 2.98878 10.5076 9.9683
11 3 3.90039 10.6621 7.38245
12 3 0.962822 1.88853 2.6696
13 3 1.67142 8.70784 7.07319
14 3 5.26736 4.2943 1.91805
15 4 4.71003 11.4551 5.16031
16 4 0.940762 0.87985 0.471234
17 5 4.64697 11.3364 4.08803
18 5 7.49366 0.95048 9.12653
19 4 5.21691 0.130228 5.66744
20 4 1.74744 12.365 0.725428
21 4 5.38435 0.124061 7.09718
22 4 2.17866 12.3147 2.14285
23 5 12.0039 0.688727 7.71532
24 5 2.76258 11.4811 2.50019
25 4 1.81437 6.98944 5.32185
26 4 4.82979 5.17163 9.94384
27 5 2.33672 6.63381 4.4414
28 5 10.8585 4.7114 9.3026
29 4 2.32073 8.10392 5.99042
30 4 5.82212 4.51781 0.666351
31 5 3.14431 8.49022 5.52324
32 4 3.87299 10.6342 5.98614
33 4 0.274164 1.50966 1.55235
34 5 2.95571 10.3988 5.51012
35 5 6.20054 2.35502 0.160339
36 4 4.80002 11.5744 7.93701
37 4 1.87557 0.934882 3.05641
38 4 0.676291 8.00488 7.64989
39 4 4.40421 5.30311 2.32576
40 5 3.98322 5.28854 3.31647
41 4 0.104005 6.82758 6.96517
42 4 4.03057 6.37431 1.44059
43 5 7.59353 4.66874 6.94298
44 5 3.56081 7.22998 1.87159
45 4 0.753063 6.28133 5.81075
46 4 4.30834 6.29332 0.0386549
47 4 5.52509 1.41687 4.70399
48 4 2.06626 11.4356 9.77101
49 4 0.476241 4.88239 5.18729
50 4 3.26503 7.08801 9.24074
51 1 9.13266 9.08641 8.65254
52 1 0.0207503 3.1326 3.92942
53 2 7.45827 4.25054 3.39793
54 2 10.4847 7.96254 8.89987
55 2 11.3134 1.86809 3.922
56 2 7.74364 10.3545 8.71578
57 2 11.7743 4.26895 5.13746
58 2 8.52911 7.79998 9.78073
59 2 6.59779 2.14607 4.7889
60 2 9.33485 10.0647 10.1154
61 3 10.0826 10.4245 7.48737
62 3 6.91582 1.79475 2.08136
63 3 8.57177 7.9097 7.06623
64 3 11.9085 4.41337 2.35261
65 4 10.1905 11.7078 5.37912
66 4 7.40636 0.821189 10.1936
67 5 9.89605 11.7324 4.35044
68 5 0.532167 1.16196 9.72259
69 4 11.194 0.0544402 5.85026
70 4 8.07295 12.1366 0.510573
71 4 11.5432 12.3863 7.19617
72 4 8.18106 12.2124 1.93235
73 5 6.04841 0.846166 7.53926
74 5 8.78547 11.4886 2.44297
75 4 8.54434 7.01961 4.78298
76 4 11.1238 4.97752 0.0787316
77 5 8.75902 7.16513 3.74994
78 5 4.80111 4.78584 8.93239
79 4 9.05981 7.95467 5.76848
80 4 11.9969 4.23404 0.947916
81 5 9.93078 8.53444 5.52402
82 4 9.50697 10.823 6.28893
83 4 6.94429 1.83584 0.696448
84 5 8.51859 10.4709 6.02531
85 5 11.8334 1.87262 1.39617
86 4 11.1082 11.2441 7.97018
87 4 7.76005 0.894707 2.65056
88 4 7.83595 6.75263 7.35632
89 4 11.3526 5.65075 2.73338
90 5 11.4266 6.01156 3.73098
91 4 7.96719 5.615 6.56602
92 4 10.6878 6.5274 1.82531
93 5 11.7348 6.33299 7.36074
94 5 10.4321 7.52724 2.15409
95 4 7.85715 5.84741 5.22727
96 4 10.5144 6.18484 0.484391
97 4 11.8206 1.27095 4.9882
98 4 8.27265 10.8134 9.89422
99 4 6.93413 4.98319 4.32789
100 4 9.73117 7.21688 9.71551
101 6 5.32454 11.4055 9.6869
102 7 5.52872 10.1228 0.802421
103 5 5.1102 9.14742 0.553626
104 5 4.84099 10.426 1.6202
105 5 6.51139 10.0006 1.29415
106 7 4.84554 0.195776 0.354533
107 5 4.32417 1.07199 10.0238
108 5 5.34097 0.257106 1.32577
109 5 4.05343 12.3447 0.844626
110 6 2.55976 0.997775 4.71883
111 7 3.00794 2.58855 5.58294
112 5 3.36259 3.36524 4.88136
113 5 2.19413 3.01715 6.1781
114 5 3.79643 2.41108 6.33651
115 7 1.80773 0.00581812 5.97944
116 5 1.26706 11.6577 5.5451
117 5 2.53418 12.4019 6.75424
118 5 1.24809 0.604976 6.65525
119 6 0.515772 8.2385 9.49723
120 7 1.57633 8.80123 0.780758
121 5 1.44122 9.82541 1.02093
122 5 2.64132 8.6277 0.757795
123 5 1.18696 8.3169 1.70031
124 7 0.588422 6.63909 10.0944
125 5 0.206328 6.03062 9.29263
126 5 0.345972 6.62882 0.784357
127 5 1.75518 6.2694 0.174196
128 6 7.46402 4.98496 0.608825
129 7 8.28881 4.00433 9.74759
130 5 9.30502 3.72012 0.10622
131 5 8.34455 2.93346 9.67417
132 5 8.63796 4.48689 8.83419
133 7 7.37262 6.60044 1.46054
134 5 6.74378 7.29092 0.910693
135 5 8.31373 7.0794 1.66231
136 5 6.84516 6.51959 2.41252
137 6 11.4059 11.4526 9.74434
138 7 11.6027 10.5469 1.12429
139 5 11.5767 9.44327 1.01127
140 5 10.6993 10.7836 1.70214
141 5 12.3778 10.8681 1.83303
142 7 10.4497 0.438661 9.94448
143 5 10.9521 1.35815 9.62453
144 5 10.3729 0.505222 0.726758
145 5 9.63916 0.398564 9.21627
146 6 8.86907 1.61998 3.78156
147 7 8.95079 2.2754 5.56493
148 5 8.20736 1.86564 6.27617
149 5 8.90108 3.37444 5.5449
150 5 9.87496 2.12035 6.11306
151 7 9.51266 3.00264 2.78499
152 5 10.1889 2.62505 2.0634
153 5 9.88908 3.77563 3.48199
154 5 8.88059 3.44795 2.07605
155 6 6.19577 6.94681 7.68949
156 7 6.19207 8.38769 8.60733
157 5 5.69572 7.94719 9.41792
158 5 5.80056 9.22201 8.01875
159 5 6.69709 8.68985 9.47578
160 7 5.38721 7.33296 6.12544
161 5 4.6937 6.52427 5.81762
162 5 4.90429 8.27048 6.32328
163 5 6.0684 7.61047 5.30727
164 6 1.04479 3.76309 0.125379
165 7 2.53169 3.44312 1.01484
166 5 2.42635 3.83658 2.03708
167 5 2.8651 2.39839 0.993792
168 5 3.24609 3.92576 0.407029
169 7 1.01566 3.60544 8.59567
170 5 1.4724 4.52774 8.18187
171 5 1.71961 2.77275 8.39938
172 5 0.0469258 3.39914 8.09755
