172
Atoms. Timestep: 0
Ni 2.89857 9.41116 8.59265
Ni 6.17525 3.10579 3.48481
O 1.44827 4.35425 3.93374
O 4.4416 8.15245 9.05464
O 4.63665 1.84729 3.87523
O 1.36499 10.6744 9.00295
O 5.80609 4.46033 4.96242
O 2.54244 8.0327 10.0675
O 0.25117 1.69264 4.94273
O 3.23722 10.8047 10.0626
N 3.69677 10.6606 7.2416
N 0.71256 1.8642 2.11704
N 2.17217 8.14409 7.25198
N 5.44023 4.39481 2.13747
C 3.48546 12.1483 5.36301
C 0.47488 0.38955 0.2292
H 2.86453 12.5181 4.55267
H 5.86971 0.03371 9.69377
C 4.76073 0.1474 5.61481
C 1.74333 12.3699 0.47412
C 5.50345 12.1502 6.68209
C 2.49852 0.35508 1.54004
H 0.24768 12.5084 6.91993
H 3.49155 12.5067 1.77336
C 2.48363 6.6337 5.40822
C 5.72803 5.90364 0.28669
H 3.13294 6.27291 4.61605
H -0.10828 6.26667 9.7662
C 2.92756 7.68099 6.23068
C 6.1883 4.86756 1.11596
H 3.89994 8.14655 6.0889
C 2.98256 11.1359 6.19748
C -0.01036 1.40553 1.07106
H 1.99392 10.709 6.04703
H 5.26093 1.85011 0.92351
C 4.93641 11.1381 7.47507
C 1.94823 1.3719 2.3406
C 0.94573 7.62654 7.47302
C 4.21083 4.90458 2.35686
H 3.63605 4.47744 3.17528
C 0.43859 6.57577 6.69176
C 3.68763 5.945 1.56944
H 5.70774 6.17693 6.91975
H 2.69824 6.32683 1.80071
C 1.22745 6.06471 5.65205
C 4.46338 6.45777 0.52027
C 5.3126 1.24381 4.79419
C 2.0502 11.2675 9.92158
C 0.73548 4.94016 4.83586
C 3.73174 7.56629 9.95688
Ni 9.15137 9.41116 8.59265
Ni 12.4281 3.10579 3.48481
O 7.70109 4.35425 3.93374
O 10.6944 8.15245 9.05464
O 10.8895 1.84729 3.87523
O 7.61779 10.6744 9.00295
O 12.0589 4.46033 4.96242
O 8.79524 8.0327 10.0675
O 6.50397 1.69264 4.94273
O 9.49002 10.8047 10.0626
N 9.94957 10.6606 7.2416
N 6.96536 1.8642 2.11704
N 8.42499 8.14409 7.25198
N 11.693 4.39481 2.13747
C 9.73826 12.1483 5.36301
C 6.72768 0.38955 0.2292
H 9.11733 12.5181 4.55267
H 12.1225 0.03371 9.69377
C 11.0135 0.1474 5.61481
C 7.99613 12.3699 0.47412
C 11.7562 12.1502 6.68209
C 8.75132 0.35508 1.54004
H 6.50047 12.5084 6.91993
H 9.74435 12.5067 1.77336
C 8.73644 6.6337 5.40822
C 11.9808 5.90364 0.28669
H 9.38574 6.27291 4.61605
H 6.14452 6.26667 9.7662
C 9.18036 7.68099 6.23068
C 12.4411 4.86756 1.11596
H 10.1527 8.14655 6.0889
C 9.23536 11.1359 6.19748
C 6.24244 1.40553 1.07106
H 8.24672 10.709 6.04703
H 11.5137 1.85011 0.92351
C 11.1892 11.1381 7.47507
C 8.20102 1.3719 2.3406
C 7.19853 7.62654 7.47302
C 10.4636 4.90458 2.35686
H 9.88885 4.47744 3.17528
C 6.69139 6.57577 6.69176
C 9.94043 5.945 1.56944
H 11.9605 6.17693 6.91975
H 8.95104 6.32683 1.80071
C 7.48025 6.06471 5.65205
C 10.7162 6.45777 0.52027
C 11.5654 1.24381 4.79419
C 8.303 11.2675 9.92158
C 6.98827 4.94016 4.83586
C 9.98454 7.56629 9.95688
P 5.93967 10.4041 8.92702
C 4.70978 9.30306 9.80751
H 4.48931 8.41153 9.18511
H 3.77153 9.85157 10.0336
H 5.38042 8.96342 0.49185
C 5.77031 11.8477 10.1017
H 6.33815 0.19917 9.72924
H 6.40048 11.5597 0.82026
H 4.70415 12.1362 10.2084
P 2.97005 2.08942 3.78751
C 1.75907 3.20178 4.67991
H 1.54457 4.09773 4.0618
H 0.81614 2.66339 4.91087
H 2.21263 3.5333 5.63646
C 2.79225 0.64419 4.95891
H 3.34738 12.2874 4.57983
H 3.20498 0.92449 5.9498
H 1.7236 0.3677 5.07218
P -0.11509 8.35494 8.88386
C 1.05232 9.52292 9.76321
H 1.2525 10.4074 9.12413
H 2.00549 9.01638 10.0224
H 0.80319 9.86768 0.42938
C 0.0829 6.94693 10.0966
H 12.0627 6.04238 9.7336
H 12.381 7.24255 0.79913
H 1.15663 6.70235 10.2329
P 7.90559 4.0953 0.80445
C 8.16109 2.96554 2.27368
H 7.48152 2.09175 2.19964
H 7.98637 3.50449 3.22831
H 9.2083 2.59963 2.26836
C 8.93658 5.50378 1.47208
H 8.85871 6.39073 0.81345
H 9.99918 5.18829 1.51861
H 8.59339 5.78582 2.4889
P 12.1925 10.4041 8.92702
C 10.9626 9.30306 9.80751
H 10.7421 8.41153 9.18511
H 10.0243 9.85157 10.0336
H 11.6332 8.96342 0.49185
C 12.0231 11.8477 10.1017
H 0.08535 0.19917 9.72924
H 0.14768 11.5597 0.82026
H 10.9569 12.1362 10.2084
P 9.21947 2.08336 3.79287
C 8.19761 3.53424 4.38532
H 7.27779 3.16782 4.88579
H 7.93127 4.2068 3.54327
H 8.79111 4.11622 5.11994
C 10.4176 3.10084 2.78211
H 11.0975 2.44392 2.20524
H 11.0259 3.73122 3.46281
H 9.86788 3.75309 2.07245
P 6.14116 8.34914 8.88942
C 7.11518 9.84228 9.45698
H 8.0366 9.51419 9.98058
H 7.3765 10.4989 8.60091
H 6.49536 10.4276 10.1668
C 4.93214 9.30665 7.834
H 4.27877 8.6165 7.26538
H 4.29705 9.93852 8.48835
H 5.47525 9.95414 7.11492
P 1.6564 4.10119 0.80982
C 1.71 2.64105 1.97832
H 1.78325 2.99929 3.02574
H 0.81316 1.99817 1.85718
H 2.60786 2.03069 1.75049
C 0.99118 3.10618 9.56393
H 0.7802 3.77528 8.707
H 1.84501 2.44903 9.29947
H 0.09414 2.48182 9.7557
172
Atoms. Timestep: 277
Ni 2.51026 9.67745 8.55676
Ni 6.11553 3.15676 3.38442
O 1.30689 4.30725 4.27358
O 3.63291 8.27681 8.7792
O 4.77459 1.9643 3.67315
O 1.42085 11.1419 8.55746
O 5.69786 4.44849 4.63891
O 3.63308 8.27696 8.77911
O 0.312094 2.05462 5.35125
O 2.98878 10.5076 9.9683
N 3.90039 10.6621 7.38245
N 0.962822 1.88853 2.6696
N 1.67142 8.70784 7.07319
N 5.26736 4.2943 1.91805
C 4.71003 11.4551 5.16031
C 0.940762 0.87985 0.471234
H 4.64697 11.3364 4.08803
H 7.49366 0.95048 9.12653
C 5.21691 0.130228 5.66744
C 1.74744 12.365 0.725428
C 5.38435 0.124061 7.09718
C 2.17866 12.3147 2.14285
H 12.0039 0.688727 7.71532
H 2.76258 11.4811 2.50019
C 1.81437 6.98944 5.32185
C 4.82979 5.17163 9.94384
H 2.33672 6.63381 4.4414
H 10.8585 4.7114 9.3026
C 2.32073 8.10392 5.99042
C 5.82212 4.51781 0.666351
H 3.14431 8.49022 5.52324
C 3.87299 10.6342 5.98614
C 0.274164 1.50966 1.55235
H 2.95571 10.3988 5.51012
H 6.20054 2.35502 0.160339
C 4.80002 11.5744 7.93701
C 1.87557 0.934882 3.05641
C 0.676291 8.00488 7.64989
C 4.40421 5.30311 2.32576
H 3.98322 5.28854 3.31647
C 0.104005 6.82758 6.96517
C 4.03057 6.37431 1.44059
H 7.59353 4.66874 6.94298
H 3.56081 7.22998 1.87159
C 0.753063 6.28133 5.81075
C 4.08075 6.29332 10.3129
C 5.52509 1.41687 4.70399
C 2.06626 11.4356 9.77101
C 0.476241 4.88239 5.18729
C 3.26503 7.08801 9.24074
Ni 9.13266 9.08641 8.65254
Ni 0.0207503 3.1326 3.92942
O 7.45827 4.25054 3.39793
O 10.4847 7.96254 8.89987
O 11.3134 1.86809 3.922
O 7.74364 10.3545 8.71578
O 11.7743 4.26895 5.13746
O 8.52911 7.79998 9.78073
O 6.59779 2.14607 4.7889
O 9.33485 10.0647 10.1154
N 10.0826 10.4245 7.48737
N 6.91582 1.79475 2.08136
N 8.57177 7.9097 7.06623
N 11.9085 4.41337 2.35261
C 10.1905 11.7078 5.37912
C 7.40636 0.821189 10.1936
H 9.89605 11.7324 4.35044
H 0.532167 1.16196 9.72259
C 11.194 0.0544402 5.85026
C 8.07295 12.1366 0.510573
C 11.5432 12.3863 7.19617
C 8.18106 12.2124 1.93235
H 6.04841 0.846166 7.53926
H 8.78547 11.4886 2.44297
C 8.54434 7.01961 4.78298
C 11.1238 4.97752 0.0787316
H 8.75902 7.16513 3.74994
H 4.80111 4.78584 8.93239
C 9.05981 7.95467 5.76848
C 11.9969 4.23404 0.947916
H 9.93078 8.53444 5.52402
C 9.50697 10.823 6.28893
C 6.94429 1.83584 0.696448
H 8.51859 10.4709 6.02531
H 11.8334 1.87262 1.39617
C 11.1082 11.2441 7.97018
C 7.76005 0.894707 2.65056
C 7.83595 6.75263 7.35632
C 11.3526 5.65075 2.73338
H 11.4266 6.01156 3.73098
C 7.96719 5.615 6.56602
C 10.6878 6.5274 1.82531
H 11.7348 6.33299 7.36074
H 10.4321 7.52724 2.15409
C 7.85715 5.84741 5.22727
C 10.5144 6.18484 0.484391
C 11.8206 1.27095 4.9882
C 8.27265 10.8134 9.89422
C 6.93413 4.98319 4.32789
C 9.73117 7.21688 9.71551
P 5.32454 11.4055 9.6869
C 5.52872 10.1228 0.802421
H 5.1102 9.14742 0.553626
H 4.84099 10.426 1.6202
H 6.51139 10.0006 1.29415
C 4.84554 0.195776 0.354533
H 4.32417 1.07199 10.0238
H 5.34097 0.257106 1.32577
H 4.05343 12.3447 0.844626
P 2.55976 0.997775 4.71883
C 3.00794 2.58855 5.58294
H 3.36259 3.36524 4.88136
H 2.19413 3.01715 6.1781
H 3.79643 2.41108 6.33651
C 1.80773 12.5292 5.97944
H 1.26706 11.6577 5.5451
H 2.53418 12.4019 6.75424
H 1.24809 0.604976 6.65525
P 0.515772 8.2385 9.49723
C 1.57633 8.80123 0.780758
H 1.44122 9.82541 1.02093
H 2.64132 8.6277 0.757795
H 1.18696 8.3169 1.70031
C 0.588422 6.63909 10.0944
H 0.206328 6.03062 9.29263
H 0.345972 6.62882 0.784357
H 1.75518 6.2694 0.174196
P 7.46402 4.98496 0.608825
C 8.28881 4.00433 9.74759
H 9.30502 3.72012 0.10622
H 8.57214 2.93346 -0.600109
H 8.63796 4.48689 8.83419
C 7.37262 6.60044 1.46054
H 6.74378 7.29092 0.910693
H 8.31373 7.0794 1.66231
H 6.84516 6.51959 2.41252
P 11.4059 11.4526 9.74434
C 11.6027 10.5469 1.12429
H 11.5767 9.44327 1.01127
H 10.6993 10.7836 1.70214
H 12.3778 10.8681 1.83303
C 10.4497 0.438661 9.94448
H 10.9521 1.35815 9.62453
H 10.3729 0.505222 0.726758
H 9.63916 0.398564 9.21627
P 8.86907 1.61998 3.78156
C 8.95079 2.2754 5.56493
H 8.20736 1.86564 6.27617
H 8.90108 3.37444 5.5449
H 9.87496 2.12035 6.11306
C 9.51266 3.00264 2.78499
H 10.1889 2.62505 2.0634
H 9.88908 3.77563 3.48199
H 8.88059 3.44795 2.07605
P 6.19577 6.94681 7.68949
C 6.19207 8.38769 8.60733
H 5.69572 7.94719 9.41792
H 5.80056 9.22201 8.01875
H 6.69709 8.68985 9.47578
C 5.38721 7.33296 6.12544
H 4.6937 6.52427 5.81762
H 4.90429 8.27048 6.32328
H 6.0684 7.61047 5.30727
P 1.04479 3.76309 0.125379
C 2.53169 3.44312 1.01484
H 2.42635 3.83658 2.03708
H 2.8651 2.39839 0.993792
H 3.24609 3.92576 0.407029
C 1.01566 3.60544 8.59567
H 1.4724 4.52774 8.18187
H 1.71961 2.77275 8.39938
H 0.0469258 3.39914 8.09755
172
Atoms. Timestep: 278
Ni 2.51026 9.67745 8.55676
Ni 6.11553 3.15676 3.38442
O 1.30689 4.30725 4.27358
O 3.63291 8.27681 8.7792
O 4.77459 1.9643 3.67315
O 1.42085 11.1419 8.55746
O 5.69786 4.44849 4.63891
O 3.63308 8.27696 8.77911
O 0.312094 2.05462 5.35125
O 2.98878 10.5076 9.9683
N 3.90039 10.6621 7.38245
N 0.962822 1.88853 2.6696
N 1.67142 8.70784 7.07319
N 5.26736 4.2943 1.91805
C 4.71003 11.4551 5.16031
C 0.940762 0.87985 0.471234
H 4.64697 11.3364 4.08803
H 7.49366 0.95048 9.12653
C 5.21691 0.130228 5.66744
C 1.74744 12.365 0.725428
C 5.38435 0.124061 7.09718
C 2.17866 12.3147 2.14285
H 12.0039 0.688727 7.71532
H 2.76258 11.4811 2.50019
C 1.81437 6.98944 5.32185
C 4.82979 5.17163 9.94384
H 2.33672 6.63381 4.4414
H 10.8585 4.7114 9.3026
C 2.32073 8.10392 5.99042
C 5.82212 4.51781 0.666351
H 3.14431 8.49022 5.52324
C 3.87299 10.6342 5.98614
C 0.274164 1.50966 1.55235
H 2.95571 10.3988 5.51012
H 6.20054 2.35502 0.160339
C 4.80002 11.5744 7.93701
C 1.87557 0.934882 3.05641
C 0.676291 8.00488 7.64989
C 4.40421 5.30311 2.32576
H 3.98322 5.28854 3.31647
C 0.104005 6.82758 6.96517
C 4.03057 6.37431 1.44059
H 7.59353 4.66874 6.94298
H 3.56081 7.22998 1.87159
C 0.753063 6.28133 5.81075
C 4.30834 6.29332 0.0386549
C 5.52509 1.41687 4.70399
C 2.06626 11.4356 9.77101
C 0.476241 4.88239 5.18729
C 3.26503 7.08801 9.24074
Ni 9.13266 9.08641 8.65254
Ni 0.0207503 3.1326 3.92942
O 7.45827 4.25054 3.39793
O 10.4847 7.96254 8.89987
O 11.3134 1.86809 3.922
O 7.74364 10.3545 8.71578
O 11.7743 4.26895 5.13746
O 8.52911 7.79998 9.78073
O 6.59779 2.14607 4.7889
O 9.33485 10.0647 10.1154
N 10.0826 10.4245 7.48737
N 6.91582 1.79475 2.08136
N 8.57177 7.9097 7.06623
N 11.9085 4.41337 2.35261
C 10.1905 11.7078 5.37912
C 7.40636 0.821189 10.1936
H 9.89605 11.7324 4.35044
H 0.532167 1.16196 9.72259
C 11.194 0.0544402 5.85026
C 8.07295 12.1366 0.510573
C 11.5432 12.3863 7.19617
C 8.18106 12.2124 1.93235
H 6.04841 0.846166 7.53926
H 8.78547 11.4886 2.44297
C 8.54434 7.01961 4.78298
C 11.1238 4.97752 0.0787316
H 8.75902 7.16513 3.74994
H 4.80111 4.78584 8.93239
C 9.05981 7.95467 5.76848
C 11.9969 4.23404 0.947916
H 9.93078 8.53444 5.52402
C 9.50697 10.823 6.28893
C 6.94429 1.83584 0.696448
H 8.51859 10.4709 6.02531
H 11.8334 1.87262 1.39617
C 11.1082 11.2441 7.97018
C 7.76005 0.894707 2.65056
C 7.83595 6.75263 7.35632
C 11.3526 5.65075 2.73338
H 11.4266 6.01156 3.73098
C 7.96719 5.615 6.56602
C 10.6878 6.5274 1.82531
H 11.7348 6.33299 7.36074
H 10.4321 7.52724 2.15409
C 7.85715 5.84741 5.22727
C 10.5144 6.18484 0.484391
C 11.8206 1.27095 4.9882
C 8.27265 10.8134 9.89422
C 6.93413 4.98319 4.32789
C 9.73117 7.21688 9.71551
P 5.32454 11.4055 9.6869
C 5.52872 10.1228 0.802421
H 5.1102 9.14742 0.553626
H 4.84099 10.426 1.6202
H 6.51139 10.0006 1.29415
C 4.84554 0.195776 0.354533
H 4.32417 1.07199 10.0238
H 5.34097 0.257106 1.32577
H 4.05343 12.3447 0.844626
P 2.55976 0.997775 4.71883
C 3.00794 2.58855 5.58294
H 3.36259 3.36524 4.88136
H 2.19413 3.01715 6.1781
H 3.79643 2.41108 6.33651
C 1.80773 0.00581812 5.97944
H 1.26706 11.6577 5.5451
H 2.53418 12.4019 6.75424
H 1.24809 0.604976 6.65525
P 0.515772 8.2385 9.49723
C 1.57633 8.80123 0.780758
H 1.44122 9.82541 1.02093
H 2.64132 8.6277 0.757795
H 1.18696 8.3169 1.70031
C 0.588422 6.63909 10.0944
H 0.206328 6.03062 9.29263
H 0.345972 6.62882 0.784357
H 1.75518 6.2694 0.174196
P 7.46402 4.98496 0.608825
C 8.28881 4.00433 9.74759
H 9.30502 3.72012 0.10622
H 8.34455 2.93346 9.67417
H 8.63796 4.48689 8.83419
C 7.37262 6.60044 1.46054
H 6.74378 7.29092 0.910693
H 8.31373 7.0794 1.66231
H 6.84516 6.51959 2.41252
P 11.4059 11.4526 9.74434
C 11.6027 10.5469 1.12429
H 11.5767 9.44327 1.01127
H 10.6993 10.7836 1.70214
H 12.3778 10.8681 1.83303
C 10.4497 0.438661 9.94448
H 10.9521 1.35815 9.62453
H 10.3729 0.505222 0.726758
H 9.63916 0.398564 9.21627
P 8.86907 1.61998 3.78156
C 8.95079 2.2754 5.56493
H 8.20736 1.86564 6.27617
H 8.90108 3.37444 5.5449
H 9.87496 2.12035 6.11306
C 9.51266 3.00264 2.78499
H 10.1889 2.62505 2.0634
H 9.88908 3.77563 3.48199
H 8.88059 3.44795 2.07605
P 6.19577 6.94681 7.68949
C 6.19207 8.38769 8.60733
H 5.69572 7.94719 9.41792
H 5.80056 9.22201 8.01875
H 6.69709 8.68985 9.47578
C 5.38721 7.33296 6.12544
H 4.6937 6.52427 5.81762
H 4.90429 8.27048 6.32328
H 6.0684 7.61047 5.30727
P 1.04479 3.76309 0.125379
C 2.53169 3.44312 1.01484
H 2.42635 3.83658 2.03708
H 2.8651 2.39839 0.993792
H 3.24609 3.92576 0.407029
C 1.01566 3.60544 8.59567
H 1.4724 4.52774 8.18187
H 1.71961 2.77275 8.39938
H 0.0469258 3.39914 8.09755
