172
Atoms. Timestep: 0
Ni 2.89857 9.41116 8.59265
Ni 6.17525 3.10579 3.48481
O 1.44827 4.35425 3.93374
O 4.4416 8.15245 9.05464
O 4.63665 1.84729 3.87523
O 1.36499 10.6744 9.00295
O 5.80609 4.46033 4.96242
O 2.54244 8.0327 10.0675
O 0.25117 1.69264 4.94273
O 3.23722 10.8047 10.0626
N 3.69677 10.6606 7.2416
N 0.71256 1.8642 2.11704
N 2.17217 8.14409 7.25198
N 5.44023 4.39481 2.13747
C 3.48546 12.1483 5.36301
C 0.47488 0.38955 0.2292
H 2.86453 12.5181 4.55267
H 5.86971 0.03371 9.69377
C 4.76073 0.1474 5.61481
C 1.74333 12.3699 0.47412
C 5.50345 12.1502 6.68209
C 2.49852 0.35508 1.54004
H 0.24768 12.5084 6.91993
H 3.49155 12.5067 1.77336
C 2.48363 6.6337 5.40822
C 5.72803 5.90364 0.28669
C 2.92756 7.68099 6.23068
C 6.1883 4.86756 1.11596
H 3.89994 8.14655 6.0889
H 0.91589 4.41889 0.97634
C 2.98256 11.1359 6.19748
C -0.01036 1.40553 1.07106
H 1.99392 10.709 6.04703
H 5.26093 1.85011 0.92351
C 4.93641 11.1381 7.47507
C 1.94823 1.3719 2.3406
H 5.48559 10.7097 8.30944
H 2.50886 1.79214 3.17267
C 0.94573 7.62654 7.47302
C 4.21083 4.90458 2.35686
H 0.36328 8.05184 8.28732
H 3.63605 4.47744 3.17528
C 0.43859 6.57577 6.69176
C 3.68763 5.945 1.56944
C 1.22745 6.06471 5.65205
C 4.46338 6.45777 0.52027
C 5.3126 1.24381 4.79419
C 2.0502 11.2675 9.92158
C 0.73548 4.94016 4.83586
C 3.73174 7.56629 9.95688
Ni 9.15137 9.41116 8.59265
Ni 12.4281 3.10579 3.48481
O 7.70109 4.35425 3.93374
O 10.6944 8.15245 9.05464
O 10.8895 1.84729 3.87523
O 7.61779 10.6744 9.00295
O 12.0589 4.46033 4.96242
O 8.79524 8.0327 10.0675
O 6.50397 1.69264 4.94273
O 9.49002 10.8047 10.0626
N 9.94957 10.6606 7.2416
N 6.96536 1.8642 2.11704
N 8.42499 8.14409 7.25198
N 11.693 4.39481 2.13747
C 9.73826 12.1483 5.36301
C 6.72768 0.38955 0.2292
C 11.0135 0.1474 5.61481
C 7.99613 12.3699 0.47412
C 11.7562 12.1502 6.68209
C 8.75132 0.35508 1.54004
C 8.73644 6.6337 5.40822
C 11.9808 5.90364 0.28669
H 9.38574 6.27291 4.61605
H 6.14452 6.26667 9.7662
C 9.18036 7.68099 6.23068
C 12.4411 4.86756 1.11596
H 10.1527 8.14655 6.0889
H 7.16869 4.41889 0.97634
C 9.23536 11.1359 6.19748
C 6.24244 1.40553 1.07106
H 8.24672 10.709 6.04703
H 11.5137 1.85011 0.92351
C 11.1892 11.1381 7.47507
C 8.20102 1.3719 2.3406
H 11.7384 10.7097 8.30944
H 8.76167 1.79214 3.17267
C 7.19853 7.62654 7.47302
C 10.4636 4.90458 2.35686
H 6.61608 8.05184 8.28732
H 9.88885 4.47744 3.17528
C 6.69139 6.57577 6.69176
C 9.94043 5.945 1.56944
H 11.9605 6.17693 6.91975
H 8.95104 6.32683 1.80071
C 7.48025 6.06471 5.65205
C 10.7162 6.45777 0.52027
C 11.5654 1.24381 4.79419
C 8.303 11.2675 9.92158
C 6.98827 4.94016 4.83586
C 9.98454 7.56629 9.95688
P 7.23811 0.23669 7.08513
C 7.66018 11.9279 8.70675
H 7.81999 10.8424 8.54271
H 6.85868 12.0859 9.45837
H 8.59881 12.3669 9.10282
C 6.75076 1.87573 7.83914
H 6.33157 2.55087 7.06777
H 7.64814 2.35548 8.28113
H 5.98827 1.72534 8.63114
P 11.6719 12.3192 9.07919
C 10.2315 0.98959 9.05784
H 9.58291 0.81321 9.9405
H 10.5839 2.04219 9.04802
H 9.63332 0.8153 8.13997
C 0.11212 0.62177 7.69509
H 1.10952 0.15639 7.5721
H 12.0528 0.50641 6.74728
H 0.24871 1.70159 7.91095
P 3.59808 6.03445 4.01348
C 5.00647 7.26558 3.98061
H 5.64765 7.12844 4.87552
H 4.62636 8.30777 3.9401
H 5.62117 7.08494 3.07501
C 2.64915 6.80039 2.59739
H 1.66618 6.30549 2.47344
H 3.2295 6.67699 1.65996
H 2.48107 7.88114 2.78452
P 1.97001 6.60852 1.95944
C 1.30133 5.4378 3.25657
H 1.84002 5.58947 4.21449
H 1.39585 4.38129 2.92923
H 0.22577 5.65617 3.41813
C 1.07302 5.82286 0.52047
H 1.16844 6.27793 9.83815
H 12.4873 5.98303 0.6392
H 1.28145 4.73361 0.48333
P 8.67102 0.24245 3.93823
C 7.2129 11.594 3.90587
H 6.56416 11.7755 4.78735
H 7.54953 10.5363 3.8916
H 6.6205 11.7821 2.98701
C 9.60893 11.9331 2.55283
H 10.6136 12.3841 2.43556
H 9.04894 12.0619 1.60383
H 9.72857 10.8502 2.76338
P 10.4772 12.2402 1.93637
C 11.1108 0.87666 3.26065
H 10.5654 0.69812 4.21012
H 10.9998 1.93686 2.95086
H 12.1885 0.67547 3.4295
C 11.3737 0.54432 0.52075
H 10.8413 0.1003 9.82732
H 12.4666 0.40235 0.64798
H 11.1453 1.63 0.50049
P 4.97911 5.89598 7.07512
C 4.28897 7.0688 8.35905
H 4.82297 6.93024 9.32158
H 4.37396 8.12383 8.02442
H 3.21486 6.83969 8.51523
C 4.08299 6.66091 5.62449
H 4.41734 6.20236 4.67345
H 2.99272 6.48951 5.7373
H 4.27959 7.75211 5.58054
P 0.35892 6.51053 9.16437
C 1.78535 5.30009 9.1439
H 2.42163 5.45251 10.0398
H 1.42074 4.25217 9.10911
H 2.40018 5.48385 8.23903
C 11.9314 5.72144 7.75045
H 10.9417 6.20099 7.62025
H 0.00725 5.84724 6.81403
H 11.7787 4.63959 7.9442
172
Atoms. Timestep: 565
Ni 2.46849 9.61221 8.96174
Ni 6.15284 3.56887 2.86372
O 0.209345 4.53676 4.35906
O 4.04202 8.73116 8.98253
O 4.5484 2.75781 3.01806
O 1.00068 10.4548 9.23479
O 5.81735 4.75808 4.07232
O 2.2539 8.51284 10.2628
O -1.01658 2.35179 5.29863
O 2.94586 10.8525 10.2002
N 2.95492 10.8186 7.49545
N -0.516298 2.44588 2.67047
N 1.62478 8.32095 7.72466
N 5.64479 4.84145 1.47757
C 3.14415 11.202 5.10348
C -0.28421 1.75977 0.332793
H 2.83265 10.9134 4.11604
H 6.21328 9.91686 -0.286485
C 4.31103 1.54725 5.26889
C 1.06788 1.39357 0.529293
C 4.72203 1.81705 6.61098
C 1.57964 1.48985 1.83483
H -1.33769 10.3162 6.72053
H 2.6186 1.25652 2.023
C 1.50301 7.06163 5.64477
C 5.81083 7.05986 0.476831
C 2.26412 7.7256 6.67254
C 6.39586 5.95922 1.17072
H 3.3024 7.96724 6.48973
H -0.511496 4.58129 1.13977
C 2.43431 10.7061 6.23365
C -1.07097 2.20559 1.43101
H 1.47559 10.2556 6.09697
H 5.13893 11.3107 1.51814
C 3.97215 1.2945 7.69345
C 0.752901 1.97115 2.90452
H 4.31121 1.50118 8.69514
H 1.19434 2.13024 3.88356
C 0.255363 8.13153 7.83683
C 4.40141 4.74357 0.929426
H -0.279877 8.58287 8.65024
H 3.88001 3.79397 0.955316
C -0.463082 7.26124 6.96558
C 3.70878 5.9074 0.505667
C 0.210225 6.54806 5.97464
C 4.42563 7.05465 0.159615
C 5.11189 2.04561 4.03962
C 1.62457 11.1882 10.1609
C -0.426787 5.27944 5.27068
C 3.5158 8.13056 10.0831
Ni 9.75064 8.22996 8.84914
Ni -1.30165 3.63979 4.0522
O 7.74861 4.37281 3.10094
O 11.2104 7.33493 9.16657
O 12.3263 2.70201 4.09015
O 8.21884 9.15625 8.81768
O 13.4345 4.84433 5.3669
O 9.26328 7.07875 10.1838
O 6.41416 2.37723 4.13038
O 10.0188 9.45325 10.0689
N 10.6397 9.39793 7.52569
N 6.74214 2.30934 1.50079
N 9.15529 6.95962 7.47859
N 13.2348 4.96192 2.67494
C 10.7326 10.8404 5.56699
C 6.80696 10.6169 0.275477
C 12.0892 11.2084 5.8372
C 8.18748 10.8225 -0.0475417
C 12.7501 10.3733 6.73108
C 8.72686 1.62517 0.370078
C 9.11083 6.23332 5.15257
C 12.8725 5.43161 0.291437
H 9.58962 6.22861 4.19322
H 6.45553 7.83492 0.111173
C 9.77431 6.82939 6.26904
C 13.6825 4.96372 1.37108
H 10.7833 7.1694 6.16212
H 7.44817 5.9925 1.41622
C 10.0064 10.0113 6.49554
C 6.14701 1.10647 1.18571
H 9.04461 9.63132 6.20907
H 13.1159 2.53329 1.22606
C 12.0126 9.54671 7.62322
C 7.8581 2.63375 0.808081
H 12.5429 9.0794 8.4332
H 8.08186 3.66762 0.604102
C 7.89202 6.43162 7.62558
C 12.0817 5.67634 2.93796
H 7.426 6.49945 8.59382
H 11.6735 5.65183 3.93369
C 7.13172 5.94 6.50606
C 11.2588 6.20163 1.87764
H -1.52939 7.17534 7.06585
H 10.2528 6.50832 2.08849
C 7.79039 5.75979 5.2566
C 11.6332 6.06056 0.536821
C 12.8741 1.91224 5.03381
C 8.75327 9.87479 9.81999
C 7.10266 5.10837 4.04874
C 10.5827 6.68949 10.152
P 6.3969 2.34671 6.9588
C 7.15091 11.164 7.04493
H 7.11478 10.6869 6.04736
H 6.57006 10.539 7.74834
H 8.16361 11.3337 7.43911
C 6.77018 3.07036 8.57954
H 6.84601 4.15646 8.51569
H 7.78367 2.75732 8.87854
H 6.0196 2.76234 9.33258
P -1.26419 1.63423 9.46263
C 12.1712 2.01448 9.1129
H 11.5097 1.15323 9.26311
H 11.8367 2.87575 9.70245
H 12.0633 2.22223 8.04175
C -0.213355 2.19694 8.08648
H 0.034467 1.36424 7.40523
H -0.791114 2.93765 7.5167
H 0.745652 2.6224 8.44828
P 1.70439 7.71657 4.00498
C 3.39857 8.21049 3.51423
H 3.98892 7.32556 3.20422
H 3.92673 8.69382 4.35719
H 3.36408 8.91083 2.65405
C 0.386547 8.94173 3.72445
H -0.515318 8.41181 3.36198
H 0.714604 9.67593 2.97142
H 0.112783 9.46777 4.65395
P 1.9326 5.95233 0.704978
C 1.76742 5.04411 2.18414
H 2.6342 5.16591 2.8541
H 1.65853 4.01591 1.86543
H 0.881923 5.47861 2.5984
C 0.698325 7.32409 0.848943
H 0.0771831 7.69537 10.6668
H 1.141 8.15879 1.38822
H -0.19132 7.03954 1.42051
P 10.3365 10.5304 3.90518
C 8.55536 10.4184 3.66467
H 8.15038 11.3228 4.1292
H 8.13812 9.50835 4.13769
H 8.31432 10.4036 2.59082
C 11.1325 8.93289 3.61387
H 12.1559 9.03951 3.19506
H 10.472 8.39198 2.93084
H 11.2456 8.38198 4.54511
P 10.4378 1.81718 0.760582
C 10.4651 3.12621 1.98739
H 9.95866 2.83377 2.9313
H 9.99526 4.03025 1.57491
H 11.4905 3.37057 2.14697
C 11.5533 10.8391 1.14526
H 12.2608 10.6131 0.334979
H 10.9726 9.93148 1.325
H 12.1697 11.0456 2.03538
P 5.29376 5.91855 6.6531
C 4.74057 5.85509 8.33584
H 4.89244 4.88001 8.82061
H 5.31796 6.64593 8.80676
H 3.65498 6.06272 8.38727
C 3.91574 5.11214 5.7693
H 4.14709 4.07516 5.54985
H 3.00568 5.0859 6.39828
H 3.70889 5.6649 4.83679
P 13.2461 5.27827 9.39499
C -0.157905 5.08889 9.0929
H 0.33082 6.05164 9.22847
H 0.257002 4.32767 9.7818
H 0.0217441 4.85098 8.03791
C 12.0851 4.92216 8.03554
H 11.9508 5.81853 7.4204
H 12.4956 4.14798 7.38216
H 11.1004 4.59279 8.42256
172
Atoms. Timestep: 10568
Ni 2.253 9.2821 8.96361
Ni 6.18989 3.51772 3.09883
O 0.0539462 4.55446 4.00674
O 3.70109 8.28552 9.13012
O 4.60583 2.71591 3.30321
O 0.838402 10.269 9.07249
O 5.93588 4.66098 4.3957
O 1.79814 8.17836 10.2652
O -1.23757 2.45885 5.03129
O 2.71132 10.4944 10.2269
N 3.02277 10.3913 7.551
N -0.830581 2.38981 2.40302
N 1.45058 8.08302 7.66977
N 5.59215 4.85853 1.78481
C 3.0812 11.2911 5.28443
C -0.453691 1.76716 0.0733494
H 2.59682 11.3965 4.33028
H 6.72332 9.5 0.479104
C 4.42274 1.30672 5.43539
C 0.793861 1.16874 0.394649
C 5.01615 1.11349 6.70401
C 1.07084 11.3952 1.75545
H -1.4628 10.5213 6.4035
H 1.98619 10.8984 2.05523
C 1.53068 6.76209 5.65684
C 5.09002 7.16758 1.15073
C 2.17924 7.38362 6.76514
C 5.86762 6.21257 1.88016
H 3.24337 7.55333 6.73069
H -0.668293 4.60621 0.937768
C 2.385 10.6542 6.36448
C -1.28151 2.30637 1.10814
H 1.37174 10.3149 6.21653
H 5.59584 10.9545 2.18383
C 4.36077 10.6974 7.65531
C 0.197476 1.53057 2.74915
H 4.89234 10.4264 8.55735
H 0.472864 1.4228 3.78195
C 0.0693954 8.02848 7.59691
C 4.71209 4.47611 0.820677
H -0.527945 8.52437 8.34151
H 4.56894 3.42295 0.637189
C -0.59207 7.24644 6.61964
C 3.71405 5.37798 0.385174
C 0.149596 6.41586 5.78475
C 4.00049 6.7435 0.367867
C 5.19945 1.95996 4.26317
C 1.42355 10.9435 10.0639
C -0.554523 5.30718 4.93693
C 3.05866 7.67516 10.1329
Ni 9.79847 8.50109 8.74219
Ni 13.6879 3.69538 3.77763
O 7.79461 4.31071 3.24182
O 11.2988 7.72442 9.11098
O 12.1061 2.84363 3.85681
O 8.19671 9.3344 8.65919
O 13.3402 4.9129 5.0662
O 9.32544 7.36108 10.0617
O 6.52451 2.25807 4.31848
O 9.95985 9.74931 9.9395
N 10.6036 9.67954 7.42573
N 6.6941 2.3044 1.63982
N 9.39477 7.15148 7.37507
N 13.1038 5.01591 2.43363
C 10.5695 11.0317 5.42394
C 7.00224 10.5312 0.57284
C 11.936 11.3902 5.61756
C 8.07341 11.0274 -0.201504
C 12.6582 10.5709 6.47147
C 8.42867 1.96061 0.0239727
C 9.16754 6.48958 5.04422
C 12.8744 5.69263 0.115783
H 9.49028 6.58672 4.02436
H 5.25543 8.21664 1.3039
C 9.82084 7.24327 6.07234
C 13.6056 5.08186 1.16416
H 10.716 7.78929 5.8381
H 6.7042 6.5688 2.45695
C 9.88936 10.3597 6.4817
C 6.36255 11.3749 1.55244
H 8.8264 10.1746 6.39291
H 12.9842 2.74904 0.84141
C 11.9831 9.78799 7.42069
C 7.50866 2.8013 0.674975
H 12.5646 9.36316 8.21563
H 7.61851 3.86998 0.579208
C 8.5095 6.15271 7.65529
C 12.0377 5.83992 2.74404
H 8.50453 5.68972 8.62552
H 11.6609 5.86914 3.75018
C 7.57461 5.74597 6.68027
C 11.2717 6.46668 1.7253
H 13.5392 7.34141 6.48634
H 10.3433 6.96435 1.97375
C 8.01192 5.73382 5.34541
C 11.6489 6.33853 0.389207
C 12.6715 2.07262 4.80818
C 8.688 10.1064 9.66204
C 7.23152 4.99526 4.26792
C 10.6548 7.04464 10.0552
P 6.10749 2.36843 7.35701
C 7.91266 2.32161 7.27066
H 8.32934 3.25523 7.69248
H 8.24174 2.2209 6.22002
H 8.27954 1.4915 7.87884
C 5.42449 2.92506 8.92217
H 6.08601 3.69806 9.32577
H 5.35784 2.07551 9.6247
H 4.40502 3.33586 8.7646
P -1.30473 1.71249 9.14871
C 12.2097 2.24234 8.81508
H 11.5107 1.41518 9.00006
H 11.9941 3.11 9.44961
H 12.0938 2.50354 7.75654
C -0.139096 2.25321 7.86548
H 0.0823264 1.42191 7.18991
H -0.614108 3.04231 7.26742
H 0.818845 2.6034 8.30326
P 2.0486 7.3692 4.08619
C 3.70589 8.12344 4.03318
H 4.47695 7.33006 3.99887
H 3.88942 8.7447 4.92436
H 3.78391 8.76658 3.13541
C 0.771231 8.56381 3.5732
H -0.230656 8.08344 3.57894
H 0.975936 8.90865 2.54966
H 0.756523 9.4256 4.25881
P 2.06039 4.91273 0.704635
C 2.22767 3.87568 2.13275
H 2.73214 4.41623 2.96006
H 2.73888 2.94129 1.85561
H 1.22685 3.65321 2.39581
C 1.09939 6.34056 1.26777
H 0.393096 6.71374 0.508838
H 1.78636 7.14392 1.51673
H 0.533961 6.08954 2.17377
P 10.1247 10.5012 3.80611
C 8.49107 9.71461 3.66146
H 7.70238 10.4763 3.79451
H 8.35597 8.94501 4.43689
H 8.39785 9.24085 2.66505
C 11.4615 9.37225 3.27835
H 12.4385 9.9009 3.29382
H 11.2814 9.02423 2.25113
H 11.5253 8.50011 3.94658
P 10.1301 2.39771 0.214592
C 10.1613 3.58669 1.53886
H 9.73434 3.13197 2.45219
H 9.63466 4.51338 1.24881
H 11.2096 3.75627 1.72048
C 11.0748 11.4655 0.954753
H 11.8575 11.0614 0.288192
H 10.3514 10.6893 1.21238
H 11.5702 1.3875 1.87703
P 5.85835 6.12179 7.04561
C 5.7737 6.38705 8.80973
H 6.50352 5.80125 9.38908
H 5.94197 7.45655 9.03811
H 4.78852 6.00697 9.06574
C 4.37993 5.17846 6.50236
H 4.57237 4.13664 6.25741
H 3.59932 5.18414 7.2889
H 3.98026 5.63183 5.58243
P 13.3247 5.72727 9.22603
C -0.17302 5.18088 8.97894
H 0.53231 5.98154 9.2465
H -0.00445934 4.2815 9.5821
H 0.0115965 4.96203 7.92302
C 12.1724 5.25492 7.90525
H 11.9438 6.11943 7.26998
H 12.6538 4.49544 7.2802
H 11.2151 4.87875 8.3214
172
Atoms. Timestep: 16995
Ni 2.25031 9.28355 8.96503
Ni 6.18825 3.51703 3.09684
O 0.0515649 4.55082 4.00941
O 3.69493 8.28583 9.13055
O 4.6081 2.7153 3.30095
O 0.839633 10.2705 9.07397
O 5.93516 4.66255 4.39514
O 1.79614 8.17714 10.2662
O -1.24104 2.45661 5.03522
O 2.70631 10.4954 10.2318
N 3.01934 10.3956 7.55295
N -0.832635 2.38733 2.40637
N 1.44963 8.08565 7.66901
N 5.59107 4.85738 1.78068
C 3.0828 11.2935 5.28309
C -0.455431 1.76334 0.0754211
H 2.6001 11.4011 4.32776
H 6.73403 9.49194 0.485083
C 4.42152 1.30796 5.43581
C 0.791157 1.16818 0.397962
C 5.01048 1.11764 6.70743
C 1.06657 11.3945 1.76001
H -1.46869 10.515 6.4018
H 1.98007 10.8985 2.06065
C 1.52829 6.7603 5.65676
C 5.0842 7.16742 1.14838
C 2.17596 7.38379 6.76478
C 5.86394 6.21271 1.87567
H 3.23715 7.5551 6.7287
H -0.669428 4.60372 0.937753
C 2.38607 10.6569 6.36322
C -1.28262 2.30205 1.11066
H 1.37574 10.317 6.21303
H 5.60049 10.9496 2.18368
C 4.35295 10.7061 7.66205
C 0.194236 1.52941 2.75387
H 4.88022 10.4384 8.56785
H 0.470395 1.42443 3.78788
C 0.0716019 8.03169 7.59691
C 4.70919 4.4732 0.819537
H -0.524063 8.5289 8.34202
H 4.56609 3.41889 0.638072
C -0.588972 7.24863 6.62016
C 3.71134 5.37464 0.385516
C 0.14995 6.41548 5.78594
C 3.99453 6.74194 0.368975
C 5.19879 1.95928 4.26259
C 1.42144 10.9448 10.0672
C -0.553988 5.30535 4.94009
C 3.05352 7.67292 10.1327
Ni 9.80131 8.49565 8.7432
Ni 13.6879 3.6942 3.78045
O 7.78897 4.31022 3.23915
O 11.298 7.71999 9.11094
O 12.1083 2.84489 3.85839
O 8.20293 9.32816 8.66034
O 13.3429 4.91344 5.06976
O 9.33093 7.35393 10.0643
O 6.52115 2.25696 4.31877
O 9.96115 9.74515 9.94249
N 10.6046 9.67535 7.4259
N 6.6927 2.30227 1.63729
N 9.39865 7.145 7.3748
N 13.1072 5.01553 2.4359
C 10.5709 11.0335 5.42576
C 7.00772 10.5257 0.574666
C 11.9352 11.3889 5.61879
C 8.07693 11.0228 -0.199527
C 12.6549 10.5654 6.47024
C 8.42789 1.95851 0.0232455
C 9.16604 6.48534 5.0413
C 12.8771 5.69209 0.116228
H 9.48969 6.5784 4.02045
H 5.25043 8.21771 1.29849
C 9.82129 7.23765 6.0699
C 13.6071 5.08069 1.16493
H 10.7144 7.78342 5.83398
H 6.69998 6.57013 2.45042
C 9.89221 10.3598 6.48378
C 6.36527 11.3709 1.55181
H 8.83191 10.1749 6.3946
H 12.9853 2.74522 0.843371
C 11.9811 9.78144 7.41938
C 7.50875 2.79958 0.674084
H 12.562 9.35398 8.21339
H 7.61806 3.86911 0.578533
C 8.5128 6.14773 7.6552
C 12.0439 5.84048 2.74742
H 8.51016 5.6804 8.62475
H 11.6675 5.86914 3.75464
C 7.57561 5.74734 6.68083
C 11.2796 6.46774 1.72842
H 13.5445 7.3427 6.48843
H 10.353 6.96469 1.9775
C 8.00959 5.73443 5.34382
C 11.6535 6.33665 0.390839
C 12.6704 2.0726 4.81113
C 8.69159 10.1012 9.66432
C 7.22841 4.99633 4.26603
C 10.6578 7.03878 10.056
P 6.10611 2.37035 7.35632
C 7.90635 2.31427 7.26769
H 8.32732 3.2475 7.68715
H 8.23305 2.20919 6.2159
H 8.26796 1.4828 7.87797
C 5.43102 2.93715 8.92209
H 6.09269 3.71347 9.31982
H 5.36571 2.08991 9.62897
H 4.41362 3.34756 8.7655
P -1.30588 1.70388 9.14958
C 12.2139 2.23887 8.81651
H 11.5146 1.41237 8.99962
H 12.0005 3.10702 9.4527
H 12.0991 2.50156 7.7573
C -0.143734 2.24663 7.8651
H 0.0766856 1.41554 7.18721
H -0.618106 3.03732 7.26864
H 0.811891 2.59723 8.30315
P 2.04407 7.36666 4.08394
C 3.69656 8.12302 4.02743
H 4.46637 7.32982 3.99066
H 3.88118 8.74444 4.91939
H 3.77178 8.76705 3.12872
C 0.768738 8.56064 3.56964
H -0.230569 8.07959 3.57741
H 0.971517 8.90363 2.54394
H 0.754825 9.42427 4.25464
P 2.06139 4.9044 0.702896
C 2.23003 3.87009 2.13545
H 2.73549 4.41304 2.96095
H 2.73966 2.93435 1.85932
H 1.2322 3.64836 2.40349
C 1.09988 6.33171 1.2654
H 0.39541 6.70518 0.505894
H 1.78376 7.13637 1.5147
H 0.53609 6.0801 2.17237
P 10.125 10.506 3.80606
C 8.49618 9.71694 3.66225
H 7.70857 10.4784 3.79587
H 8.36277 8.94645 4.43842
H 8.40345 9.24253 2.66496
C 11.4585 9.37773 3.27432
H 12.4324 9.90808 3.28653
H 11.2762 9.02899 2.24663
H 11.5251 8.50554 3.94392
P 10.1249 2.40243 0.204478
C 10.1595 3.59983 1.5235
H 9.73459 3.15086 2.44126
H 9.63379 4.52579 1.22869
H 11.2066 3.76855 1.70331
C 11.0691 11.4746 0.952388
H 11.8516 11.0676 0.288873
H 10.3483 10.698 1.2119
H 11.5603 1.40118 1.87551
P 5.86702 6.13669 7.04902
C 5.786 6.40634 8.81541
H 6.51904 5.82611 9.39556
H 5.94389 7.47875 9.04151
H 4.80774 6.01826 9.07662
C 4.3904 5.19338 6.50977
H 4.58108 4.15046 6.26542
H 3.61385 5.20044 7.29932
H 3.98982 5.64602 5.58916
P 13.3266 5.7299 9.22511
C -0.176542 5.17803 8.9782
H 0.529823 5.9777 9.24357
H -0.0101074 4.27846 9.5833
H 0.00654043 4.95721 7.92148
C 12.1766 5.25446 7.90438
H 11.9485 6.11815 7.26609
H 12.6569 4.49281 7.28105
H 11.2219 4.87823 8.32204
172
Atoms. Timestep: 17003
Ni 2.23325 9.27969 8.95891
Ni 6.1883 3.5207 3.09892
O 0.0180878 4.55166 4.01016
O 3.67924 8.2835 9.12398
O 4.60639 2.72094 3.3023
O 0.821038 10.2652 9.06718
O 5.93903 4.66658 4.39725
O 1.78154 8.17297 10.2592
O -1.27952 2.45965 5.03564
O 2.68606 10.4919 10.2252
N 3.00579 10.3913 7.55027
N -0.864932 2.39037 2.41131
N 1.42795 8.08288 7.66576
N 5.58881 4.85877 1.78369
C 3.07087 11.288 5.28218
C -0.485803 1.76847 0.082268
H 2.58489 11.3951 4.3281
H 6.73657 9.48654 0.491344
C 4.41344 1.31413 5.43468
C 0.765483 1.17622 0.404308
C 5.00267 1.12344 6.70491
C 1.04169 11.389 1.76539
H -1.50733 10.5095 6.40027
H 1.95837 10.8937 2.06529
C 1.50505 6.75807 5.65577
C 5.0783 7.16715 1.15365
C 2.15508 7.38127 6.76221
C 5.86144 6.2135 1.8793
H 3.22009 7.55292 6.72663
H -0.702934 4.60784 0.944344
C 2.3717 10.6523 6.3613
C -1.31609 2.30548 1.11633
H 1.35762 10.3128 6.212
H 5.59888 10.9435 2.18691
C 4.3422 10.6997 7.65885
C 0.166212 1.53623 2.75805
H 4.87324 10.4319 8.56334
H 0.443898 1.43132 3.7912
C 0.0472103 8.03008 7.59366
C 4.70055 4.47457 0.827211
H -0.552063 8.52669 8.33804
H 4.55836 3.42125 0.644844
C -0.616363 7.24837 6.61771
C 3.69983 5.37581 0.394967
C 0.122562 6.41551 5.78431
C 3.9834 6.74215 0.378222
C 5.1944 1.96482 4.26394
C 1.39998 10.9395 10.0599
C -0.584816 5.30666 4.94054
C 3.04037 7.67129 10.1263
Ni 9.81912 8.49265 8.73724
Ni 13.7227 3.69756 3.78184
O 7.79108 4.31188 3.24054
O 11.317 7.71853 9.10428
O 12.1413 2.85065 3.85959
O 8.21881 9.32307 8.65415
O 13.3811 4.91716 5.07032
O 9.35223 7.35074 10.0581
O 6.51764 2.2605 4.32072
O 9.9754 9.74234 9.93582
N 10.6264 9.67141 7.4232
N 6.69431 2.30815 1.64101
N 9.41476 7.14209 7.37223
N 13.1391 5.01917 2.44087
C 10.594 11.0287 5.42523
C 7.01236 10.5193 0.580528
C 11.9623 11.3819 5.61747
C 8.08685 11.0155 -0.19012
C 12.6822 10.5586 6.46791
C 8.43857 1.96407 0.0329961
C 9.17898 6.48407 5.0406
C 12.9073 5.69371 0.123057
H 9.50488 6.57734 4.02098
H 5.24595 8.21646 1.30389
C 9.83775 7.23496 6.06799
C 13.6403 5.08425 1.17074
H 10.7339 7.77992 5.83305
H 6.70071 6.56999 2.45291
C 9.913 10.3554 6.48182
C 6.36676 11.3635 1.55609
H 8.84886 10.1702 6.39311
H 13.0186 2.74814 0.850124
C 12.0056 9.77593 7.41623
C 7.51627 2.80504 0.681701
H 12.5901 9.34899 8.20953
H 7.62483 3.87372 0.585402
C 8.52289 6.1493 7.6526
C 12.0716 5.84049 2.75157
H 8.52098 5.68054 8.62082
H 11.6936 5.86893 3.7579
C 7.58279 5.75051 6.67882
C 11.3042 6.4663 1.73371
H 13.5829 7.34094 6.48699
H 10.3744 6.9624 1.98217
C 8.01754 5.73629 5.34308
C 11.6787 6.3353 0.397102
C 12.7008 2.0781 4.81183
C 8.70429 10.0951 9.65875
C 7.23325 4.99835 4.26742
C 10.6798 7.03678 10.0487
P 6.10829 2.37401 7.3524
C 7.91183 2.31952 7.26469
H 8.33741 3.25178 7.68355
H 8.24274 2.21448 6.21377
H 8.27794 1.48885 7.87403
C 5.42786 2.94287 8.91627
H 6.09238 3.71669 9.31385
H 5.36312 2.09493 9.62289
H 4.40859 3.35098 8.76019
P -1.33963 1.70943 9.14216
C 12.2451 2.24279 8.81182
H 11.5411 1.41897 8.99397
H 12.0282 3.11146 9.44698
H 12.1272 2.50665 7.75295
C -0.172117 2.25228 7.86187
H 0.0490647 1.42126 7.1836
H -0.648298 3.04174 7.26516
H 0.785967 2.60171 8.29818
P 2.02592 7.36617 4.08486
C 3.68332 8.11897 4.02905
H 4.45735 7.32853 3.99233
H 3.87081 8.74147 4.92016
H 3.76075 8.76416 3.13113
C 0.743975 8.55616 3.57213
H -0.257632 8.07748 3.57976
H 0.947389 8.9004 2.54721
H 0.730137 9.42066 4.25634
P 2.04531 4.90637 0.708173
C 2.21083 3.87243 2.14087
H 2.71938 4.41558 2.96437
H 2.72369 2.93844 1.86419
H 1.21135 3.65198 2.4075
C 1.07661 6.33143 1.27055
H 0.369424 6.70448 0.512851
H 1.7626 7.135 1.51969
H 0.510487 6.08001 2.1767
P 10.1429 10.4994 3.80729
C 8.50893 9.71401 3.66462
H 7.71725 10.4727 3.79783
H 8.37317 8.94245 4.43988
H 8.41384 9.23825 2.668
C 11.4827 9.37507 3.27727
H 12.4592 9.90296 3.28928
H 11.2999 9.02506 2.25033
H 11.5499 8.502 3.94607
P 10.1396 2.40713 0.210834
C 10.1789 3.60425 1.52946
H 9.75104 3.15495 2.44573
H 9.64974 4.52831 1.23438
H 11.2276 3.77172 1.70814
C 11.0912 1.07013 0.957916
H 11.8763 11.0614 0.29616
H 10.3685 10.6923 1.21761
H 11.5848 1.40799 1.88038
P 5.86836 6.13564 7.04528
C 5.78435 6.4053 8.81113
H 6.52104 5.82694 9.38894
H 5.94325 7.47804 9.03587
H 4.80434 6.01906 9.07074
C 4.384 5.19593 6.50847
H 4.57417 4.15251 6.26356
H 3.60405 5.20206 7.29601
H 3.98051 5.6471 5.58808
P 13.3607 5.73111 9.21769
C -0.207442 5.18095 8.97313
H 0.503626 5.97794 9.23744
H -0.0376447 4.28074 9.57731
H -0.0212118 4.95884 7.91694
C 12.205 5.25544 7.9011
H 11.976 6.11907 7.26238
H 12.687 4.49504 7.27753
H 11.2479 4.88045 8.31711
172
Atoms. Timestep: 20000
Ni 2.22865 9.2782 8.96243
Ni 6.18598 3.51743 3.09981
O 0.0177836 4.54625 4.01549
O 3.67375 8.27922 9.12441
O 4.60559 2.71772 3.30376
O 0.818838 10.264 9.07294
O 5.93481 4.66679 4.39762
O 1.77504 8.16746 10.2598
O -1.2826 2.45743 5.04053
O 2.6831 10.4872 10.2339
N 2.99885 10.3951 7.5542
N -0.867931 2.38757 2.41566
N 1.4264 8.08487 7.66425
N 5.58693 4.85467 1.78109
C 3.07217 11.2882 5.28259
C -0.48679 1.76143 0.0869822
H 2.5908 11.399 4.32653
H 6.75842 9.4683 0.511651
C 4.41121 1.3152 5.43925
C 0.762742 1.17172 0.412016
C 4.99384 1.1311 6.71432
C 1.03564 11.3849 1.77405
H -1.51609 10.502 6.39738
H 1.94867 10.8891 2.07647
C 1.50093 6.75575 5.65515
C 5.06862 7.16272 1.15027
C 2.15095 7.3816 6.76031
C 5.8551 6.21078 1.87468
H 3.21121 7.55725 6.71975
H -0.702721 4.60119 0.944732
C 2.37148 10.6519 6.36029
C -1.31735 2.29857 1.12063
H 1.36255 10.3099 6.20533
H 5.61077 10.9298 2.19679
C 4.32997 10.714 7.67232
C 0.161561 1.53361 2.76575
H 4.85184 10.4527 8.58313
H 0.440404 1.4348 3.80006
C 0.0478662 8.0326 7.59389
C 4.69897 4.46662 0.826426
H -0.54714 8.53204 8.33829
H 4.55535 3.41143 0.65047
C -0.614696 7.24905 6.61988
C 3.69721 5.3653 0.393632
C 0.121897 6.41291 5.78758
C 3.97552 6.73399 0.376857
C 5.19326 1.96289 4.26694
C 1.39771 10.9365 10.0675
C -0.585341 5.30288 4.94524
C 3.03213 7.66197 10.1236
Ni 9.82461 8.48405 8.73996
Ni 13.722 3.69508 3.78617
O 7.78728 4.30944 3.23998
O 11.323 7.71432 9.1053
O 12.1392 2.85133 3.86034
O 8.22348 9.31053 8.6576
O 13.3796 4.91572 5.07464
O 9.35981 7.3399 10.0616
O 6.51669 2.2589 4.32454
O 9.97953 9.73481 9.94132
N 10.6261 9.66609 7.42332
N 6.69218 2.30015 1.6425
N 9.42421 7.1322 7.37138
N 13.1448 5.01595 2.4434
C 10.5923 11.0327 5.42905
C 7.02019 10.5065 0.589291
C 11.9588 11.3817 5.61983
C 8.08597 11.0059 -0.18852
C 12.6774 10.5527 6.46575
C 8.42929 1.95829 0.026816
C 9.17815 6.47864 5.03702
C 12.9169 5.6976 0.126048
H 9.50315 6.56557 4.01588
H 5.23565 8.214 1.29447
C 9.84027 7.22792 6.06433
C 13.6451 5.08152 1.17288
H 10.7321 7.77472 5.82458
H 6.69229 6.57091 2.44639
C 9.91364 10.356 6.48571
C 6.37199 11.3529 1.56187
H 8.8535 10.1714 6.39631
H 13.0208 2.74174 0.852125
C 12.0036 9.76829 7.41349
C 7.51122 2.79822 0.681994
H 12.5864 9.33784 8.20449
H 7.61842 3.86779 0.586679
C 8.53479 6.13773 7.65178
C 12.0813 5.84059 2.75661
H 8.53649 5.66404 8.61853
H 11.7007 5.86338 3.76263
C 7.58828 5.74938 6.68129
C 11.3211 6.4749 1.73986
H 13.5882 7.34205 6.49121
H 10.3928 6.96831 1.98919
C 8.01651 5.73556 5.3423
C 11.6925 6.34126 0.402225
C 12.6975 2.07801 4.81454
C 8.70705 10.0842 9.66291
C 7.22959 4.99861 4.26608
C 10.6889 7.03105 10.0508
P 6.09969 2.37924 7.3558
C 7.89882 2.30564 7.26522
H 8.32954 3.23426 7.6853
H 8.22397 2.19816 6.21328
H 8.25103 1.46895 7.87352
C 5.43448 2.96154 8.91957
H 6.09862 3.74249 9.30747
H 5.3714 2.11887 9.63206
H 4.41628 3.37043 8.76447
P -1.33684 1.69425 9.14571
C 12.2562 2.23873 8.81439
H 11.554 1.41401 8.99349
H 12.0461 3.1059 9.45346
H 12.1431 2.50469 7.75608
C -0.175672 2.238 7.86093
H 0.0437456 1.40714 7.18165
H -0.650823 3.02939 7.26659
H 0.779754 2.58967 8.29856
P 2.01266 7.36067 4.08101
C 3.66415 8.11836 4.01537
H 4.43408 7.32577 3.97256
H 3.85415 8.73865 4.90691
H 3.73358 8.76315 3.11664
C 0.734774 8.55073 3.56447
H -0.264301 8.06939 3.579
H 0.933003 8.88705 2.5354
H 0.724028 9.41835 4.24492
P 2.04666 4.88695 0.706629
C 2.21858 3.86115 2.14634
H 2.72951 4.40878 2.96536
H 2.72656 2.92327 1.87399
H 1.22214 3.64259 2.42532
C 1.08098 6.31204 1.26692
H 0.376869 6.68583 0.50784
H 1.76262 7.11781 1.51688
H 0.517239 6.05976 2.17351
P 10.1401 10.5154 3.80809
C 8.51439 9.71921 3.66911
H 7.72375 10.4768 3.80675
H 8.38757 8.94673 4.44427
H 8.42081 9.24507 2.67191
C 11.4728 9.39156 3.26615
H 12.4449 9.92544 3.26904
H 11.2823 9.04153 2.24031
H 11.5476 8.52062 3.93723
P 10.1256 2.41636 0.174333
C 10.1765 3.64868 1.45957
H 9.75851 3.22832 2.39359
H 9.65049 4.56792 1.14309
H 11.2278 3.81427 1.62616
C 11.0722 1.09615 0.951784
H 11.8618 11.0785 0.30205
H 10.3538 10.7174 1.21651
H 11.5518 1.45094 1.87452
P 5.88675 6.16298 7.05606
C 5.81159 6.43752 8.82365
H 6.55611 5.86987 9.40239
H 5.94803 7.51356 9.04673
H 4.84306 6.03251 9.09408
C 4.40524 5.22514 6.52282
H 4.59147 4.18129 6.27952
H 3.63243 5.23564 7.31591
H 4.00276 5.6777 5.60291
P 13.3665 5.73759 9.21918
C -0.209979 5.17313 8.97234
H 0.503203 5.9685 9.23252
H -0.0475536 4.27433 9.57994
H -0.0304575 4.94845 7.91603
C 12.2145 5.25671 7.90227
H 11.9832 6.11821 7.26136
H 12.6955 4.49423 7.28103
H 11.2619 4.87848 8.32288
172
Atoms. Timestep: 27005
Ni 2.20879 9.06897 9.06179
Ni 6.17013 3.31579 3.23639
O -0.0652512 4.65912 3.98598
O 3.59102 7.97484 9.2122
O 4.62494 2.43087 3.37958
O 0.86956 10.1361 9.18515
O 5.8276 4.45944 4.51985
O 1.71359 7.99167 10.3707
O -1.23131 2.5225 5.00595
O 2.7617 10.2598 10.3154
N 3.00906 10.1253 7.63514
N -0.687371 2.49843 2.43416
N 1.32494 7.93133 7.78149
N 5.52874 4.60837 1.8855
C 3.0533 11.0707 5.38843
C -0.38852 1.61012 0.201832
H 2.56782 11.1794 4.43915
H 7.33426 9.32002 0.834222
C 4.41262 11.4327 5.5225
C 0.941607 1.1985 0.478618
C 5.0004 11.1974 6.7731
C 1.40973 1.40831 1.77709
H -1.44636 10.6143 6.49534
H 2.40221 1.07806 2.05457
C 1.35116 6.86085 5.6554
C 5.09467 6.89916 1.14292
C 2.01626 7.26654 6.83078
C 5.88585 5.94411 1.86613
H 3.08748 7.38899 6.80827
H -0.709573 4.48088 0.883054
C 2.35145 10.4547 6.47794
C -1.23107 2.10315 1.24791
H 1.32431 10.1621 6.35071
H 6.00331 10.6431 2.46347
C 4.36038 10.3294 7.68508
C 0.560687 2.0129 2.75288
H 4.91336 9.97967 8.54369
H 0.911882 2.10979 3.76259
C -0.0568526 7.98385 7.6804
C 4.49177 4.23519 1.07258
H -0.631991 8.50718 8.42324
H 4.26228 3.18478 0.973099
C -0.751782 7.28671 6.65439
C 3.47042 5.17389 0.77993
C -0.0306824 6.51076 5.75602
C 3.86399 6.51025 0.557643
C 5.20936 1.71762 4.36738
C 1.50994 10.7955 10.1477
C -0.715012 5.39892 4.88481
C 2.92601 7.38783 10.2172
Ni 9.8821 8.59705 8.68928
Ni 13.7447 3.72794 3.72791
O 7.73327 4.18243 3.42201
O 11.3276 7.62468 8.86199
O 12.2306 2.7833 3.73458
O 8.41998 9.58341 8.78759
O 13.2705 4.94393 4.99603
O 9.42865 7.44733 9.98461
O 6.51614 2.08341 4.47007
O 10.2903 9.78142 9.96792
N 10.6748 9.7409 7.35002
N 6.79048 2.15152 1.83242
N 9.14734 7.4068 7.33617
N 13.1351 4.97122 2.34308
C 10.7668 10.8449 5.18256
C 7.47875 10.387 0.901437
C 12.0838 11.3032 5.47668
C 8.44866 11.0186 0.0966701
C 12.7542 10.6302 6.47875
C 8.43141 2.03923 0.0788431
C 9.2221 5.98121 5.37213
C 13.0075 5.69326 0.0337315
H 9.79181 5.54487 4.57449
H 5.43968 7.91655 1.04523
C 9.85889 6.86626 6.29957
C 13.6497 4.98673 1.08254
H 10.8725 7.18987 6.11764
H 6.80341 6.27278 2.32677
C 10.0433 10.134 6.20334
C 6.69982 11.1531 1.82116
H 9.04508 9.7739 6.00761
H 12.991 2.19142 1.09378
C 12.0312 9.92937 7.45224
C 7.56191 2.75585 0.905141
H 12.559 9.55626 8.31154
H 7.61962 3.82945 0.902511
C 7.79289 7.19939 7.38086
C 12.0423 5.77101 2.61184
H 7.21535 7.70555 8.12815
H 11.683 5.86583 3.61231
C 7.1544 6.22782 6.58099
C 11.3245 6.42677 1.58455
H 13.4628 7.42989 6.52592
H 10.4142 6.95668 1.82421
C 7.8443 5.68124 5.48503
C 11.7624 6.3504 0.264569
C 12.7952 2.05638 4.71373
C 9.01581 10.2416 9.78543
C 7.11715 4.84785 4.42379
C 10.7156 6.98816 9.85967
P 6.01766 2.07604 7.46979
C 7.77584 1.9601 7.08358
H 8.15761 2.94379 6.75275
H 7.89463 1.24716 6.26068
H 8.34253 1.61188 7.94993
C 5.44637 2.35651 9.15449
H 5.97883 3.20566 9.57209
H 5.61453 1.45735 9.76963
H 4.36073 2.58751 9.14122
P -1.2284 1.58074 9.25026
C 12.3656 2.12356 9.11762
H 11.7389 1.36058 9.60108