172
Atoms. Timestep: 0
Ni 2.89857 9.41116 8.59265
Ni 6.17525 3.10579 3.48481
O 1.44827 4.35425 3.93374
O 4.4416 8.15245 9.05464
O 4.63665 1.84729 3.87523
O 1.36499 10.6744 9.00295
O 5.80609 4.46033 4.96242
O 2.54244 8.0327 10.0675
O 0.25117 1.69264 4.94273
O 3.23722 10.8047 10.0626
N 3.69677 10.6606 7.2416
N 0.71256 1.8642 2.11704
N 2.17217 8.14409 7.25198
N 5.44023 4.39481 2.13747
C 3.48546 12.1483 5.36301
C 0.47488 0.38955 0.2292
H 2.86453 12.5181 4.55267
H 5.86971 0.03371 9.69377
C 4.76073 0.1474 5.61481
C 1.74333 12.3699 0.47412
C 5.50345 12.1502 6.68209
C 2.49852 0.35508 1.54004
H 0.24768 12.5084 6.91993
H 3.49155 12.5067 1.77336
C 2.48363 6.6337 5.40822
C 5.72803 5.90364 0.28669
H 3.13294 6.27291 4.61605
H -0.10828 6.26667 9.7662
C 2.92756 7.68099 6.23068
C 6.1883 4.86756 1.11596
H 3.89994 8.14655 6.0889
C 2.98256 11.1359 6.19748
C -0.01036 1.40553 1.07106
H 1.99392 10.709 6.04703
H 5.26093 1.85011 0.92351
C 4.93641 11.1381 7.47507
C 1.94823 1.3719 2.3406
C 0.94573 7.62654 7.47302
C 4.21083 4.90458 2.35686
H 3.63605 4.47744 3.17528
C 0.43859 6.57577 6.69176
C 3.68763 5.945 1.56944
H 5.70774 6.17693 6.91975
H 2.69824 6.32683 1.80071
C 1.22745 6.06471 5.65205
C 4.46338 6.45777 0.52027
C 5.3126 1.24381 4.79419
C 2.0502 11.2675 9.92158
C 0.73548 4.94016 4.83586
C 3.73174 7.56629 9.95688
Ni 9.15137 9.41116 8.59265
Ni 12.4281 3.10579 3.48481
O 7.70109 4.35425 3.93374
O 10.6944 8.15245 9.05464
O 10.8895 1.84729 3.87523
O 7.61779 10.6744 9.00295
O 12.0589 4.46033 4.96242
O 8.79524 8.0327 10.0675
O 6.50397 1.69264 4.94273
O 9.49002 10.8047 10.0626
N 9.94957 10.6606 7.2416
N 6.96536 1.8642 2.11704
N 8.42499 8.14409 7.25198
N 11.693 4.39481 2.13747
C 9.73826 12.1483 5.36301
C 6.72768 0.38955 0.2292
H 9.11733 12.5181 4.55267
H 12.1225 0.03371 9.69377
C 11.0135 0.1474 5.61481
C 7.99613 12.3699 0.47412
C 11.7562 12.1502 6.68209
C 8.75132 0.35508 1.54004
H 6.50047 12.5084 6.91993
H 9.74435 12.5067 1.77336
C 8.73644 6.6337 5.40822
C 11.9808 5.90364 0.28669
H 9.38574 6.27291 4.61605
H 6.14452 6.26667 9.7662
C 9.18036 7.68099 6.23068
C 12.4411 4.86756 1.11596
H 10.1527 8.14655 6.0889
C 9.23536 11.1359 6.19748
C 6.24244 1.40553 1.07106
H 8.24672 10.709 6.04703
H 11.5137 1.85011 0.92351
C 11.1892 11.1381 7.47507
C 8.20102 1.3719 2.3406
C 7.19853 7.62654 7.47302
C 10.4636 4.90458 2.35686
H 9.88885 4.47744 3.17528
C 6.69139 6.57577 6.69176
C 9.94043 5.945 1.56944
H 11.9605 6.17693 6.91975
H 8.95104 6.32683 1.80071
C 7.48025 6.06471 5.65205
C 10.7162 6.45777 0.52027
C 11.5654 1.24381 4.79419
C 8.303 11.2675 9.92158
C 6.98827 4.94016 4.83586
C 9.98454 7.56629 9.95688
P 5.93967 10.4041 8.92702
C 4.70978 9.30306 9.80751
H 4.48931 8.41153 9.18511
H 3.77153 9.85157 10.0336
H 5.38042 8.96342 0.49185
C 5.77031 11.8477 10.1017
H 6.33815 0.19917 9.72924
H 6.40048 11.5597 0.82026
H 4.70415 12.1362 10.2084
P 2.97005 2.08942 3.78751
C 1.75907 3.20178 4.67991
H 1.54457 4.09773 4.0618
H 0.81614 2.66339 4.91087
H 2.21263 3.5333 5.63646
C 2.79225 0.64419 4.95891
H 3.34738 12.2874 4.57983
H 3.20498 0.92449 5.9498
H 1.7236 0.3677 5.07218
P -0.11509 8.35494 8.88386
C 1.05232 9.52292 9.76321
H 1.2525 10.4074 9.12413
H 2.00549 9.01638 10.0224
H 0.80319 9.86768 0.42938
C 0.0829 6.94693 10.0966
H 12.0627 6.04238 9.7336
H 12.381 7.24255 0.79913
H 1.15663 6.70235 10.2329
P 7.90559 4.0953 0.80445
C 8.16109 2.96554 2.27368
H 7.48152 2.09175 2.19964
H 7.98637 3.50449 3.22831
H 9.2083 2.59963 2.26836
C 8.93658 5.50378 1.47208
H 8.85871 6.39073 0.81345
H 9.99918 5.18829 1.51861
H 8.59339 5.78582 2.4889
P 12.1925 10.4041 8.92702
C 10.9626 9.30306 9.80751
H 10.7421 8.41153 9.18511
H 10.0243 9.85157 10.0336
H 11.6332 8.96342 0.49185
C 12.0231 11.8477 10.1017
H 0.08535 0.19917 9.72924
H 0.14768 11.5597 0.82026
H 10.9569 12.1362 10.2084
P 9.21947 2.08336 3.79287
C 8.19761 3.53424 4.38532
H 7.27779 3.16782 4.88579
H 7.93127 4.2068 3.54327
H 8.79111 4.11622 5.11994
C 10.4176 3.10084 2.78211
H 11.0975 2.44392 2.20524
H 11.0259 3.73122 3.46281
H 9.86788 3.75309 2.07245
P 6.14116 8.34914 8.88942
C 7.11518 9.84228 9.45698
H 8.0366 9.51419 9.98058
H 7.3765 10.4989 8.60091
H 6.49536 10.4276 10.1668
C 4.93214 9.30665 7.834
H 4.27877 8.6165 7.26538
H 4.29705 9.93852 8.48835
H 5.47525 9.95414 7.11492
P 1.6564 4.10119 0.80982
C 1.71 2.64105 1.97832
H 1.78325 2.99929 3.02574
H 0.81316 1.99817 1.85718
H 2.60786 2.03069 1.75049
C 0.99118 3.10618 9.56393
H 0.7802 3.77528 8.707
H 1.84501 2.44903 9.29947
H 0.09414 2.48182 9.7557
172
Atoms. Timestep: 654
Ni 2.06785 8.89761 8.75895
Ni 6.43286 3.34188 3.52308
O -0.478511 4.41931 4.0097
O 3.47217 7.86287 8.83095
O 4.95669 2.39744 3.72717
O 0.665746 9.97131 8.88317
O 6.13984 4.52151 4.84209
O 1.58194 7.60005 9.92111
O -1.76631 2.419 5.2581
O 2.61535 9.91179 0.18329
N 2.98448 10.174 7.50645
N -1.09523 2.20024 2.74951
N 1.25702 7.8749 7.35273
N 5.55202 4.6009 2.26036
C 3.763 10.5559 5.2055
C -0.823436 11.4114 0.744146
H 3.55579 10.4548 4.14197
H 7.61855 1.74368 8.87764
C 4.84215 11.3361 5.63282
C 0.55455 11.227 0.982874
C 5.01116 0.974913 6.99779
C 1.07752 1.21928 2.14102
H 14.3582 11.2589 7.32463
H 2.13883 1.12363 2.33875
C 1.1966 6.22187 5.59441
C 5.09016 5.65393 0.141132
H 1.72263 5.72801 4.80069
H 12.7364 4.6626 9.18483
C 1.92636 7.00451 6.53008
C 6.03121 5.18557 1.10515
H 3.00547 6.94867 6.54932
C 2.89318 9.93831 6.14093
C -1.64808 1.61847 1.65872
H 2.05688 9.39683 5.73526
H 6.28424 2.90874 0.424648
C 4.06418 10.9891 7.92756
C 0.220907 1.80892 3.09537
C -0.14091 7.89444 7.2893
C 4.31051 5.03301 2.69321
H 3.98423 4.79318 3.68896
C -0.78536 7.3659 6.17184
C 3.44589 5.80561 1.86739
H 7.27462 4.98942 7.23382
H 2.52172 6.18944 2.27681
C -0.221322 6.27268 5.5825
C 3.81156 6.09297 0.553938
C 5.59548 1.67403 4.64018
C 1.20244 10.5186 9.94793
C -1.04845 5.23054 4.85881
C 2.83357 7.09707 9.69228
Ni 10.2919 8.5256 8.53758
Ni -1.97852 3.54941 3.88846
O 7.893 4.25589 3.52355
O 11.6693 7.52536 8.7997
O 13.2709 2.64572 3.96496
O 8.87039 9.57466 8.45886
O 14.4304 4.85289 5.09925
O 9.73119 7.29745 9.77521
O 6.87409 2.12777 4.79069
O 10.4964 9.62841 9.8853
N 11.3151 9.73678 7.34247
N 7.15072 2.10847 2.18522
N 9.62367 7.37296 7.15038
N 14.1386 4.78136 2.40008
C 11.8655 10.7175 5.16492
C 7.63457 1.5239 9.93142
H 11.6434 10.7949 4.11367
H -1.44569 11.0622 9.81778
C 13.0465 11.3007 5.67773
C 8.67445 11.0131 0.430541
C 13.467 10.8393 6.90883
C 8.67667 10.7984 1.8002
H 5.80025 1.63003 7.35103
H 9.33951 10.0492 2.21384
C 9.602 6.13019 5.0947
C 12.9712 4.92757 0.235439
H 9.99518 5.969 4.09618
H 5.20095 5.86055 9.13299
C 10.2847 6.97971 6.01239
C 14.1023 4.49243 1.04559
H 11.2818 7.3309 5.79654
C 10.9808 9.97406 6.02672
C 7.02824 2.27322 0.827155
H 10.0246 9.65746 5.65566
H 14.1211 1.82131 1.4254
C 12.565 10.2066 7.7935
C 8.2213 1.30556 2.62414
C 8.38014 6.79099 7.41849
C 13.2655 5.80196 2.82435
H 13.3133 6.19633 3.82257
C 8.08607 5.58671 6.84018
C 12.2412 6.34918 1.99588
H -1.79052 7.66542 5.91588
H 11.6432 7.16328 2.37536
C 8.39443 5.50731 5.51422
C 12.0408 5.90609 0.698206
C 13.7701 1.96241 4.98581
C 9.338 10.2031 9.51704
C 7.42318 4.92704 4.54156
C 11.0213 6.79367 9.66713
P 4.20003 1.14412 9.58443
C 4.99908 10.6378 1.00921
H 4.63045 9.594 1.06375
H 4.7552 11.1419 1.95782
H 6.07404 10.475 0.93758
C 3.19464 2.63035 9.87962
H 3.61269 3.47041 9.29734
H 3.40256 2.90001 0.956418
H 2.1606 2.46641 9.5258
P 0.837217 1.86299 4.79979
C 2.00418 3.1101 5.34376
H 2.25101 3.71338 4.46184
H 1.55138 3.7051 6.16205
H 2.91691 2.63673 5.73514
C 0.239821 11.3332 6.139
H -0.0800713 10.3446 5.76009
H 0.999111 11.3098 6.91342
H -0.547584 1.25731 6.71535
P -1.18544 8.06611 8.76372
C -0.73018 8.005 0.590148
H -1.60212 8.42286 1.08333
H 0.0944947 8.59737 0.999688
H -0.688314 6.96797 0.930284
C 14.238 7.00275 8.46729
H 13.6327 7.40311 7.62983
H 13.7389 7.0382 9.42858
H -2.23375 5.97755 8.23901
P 7.6003 6.01679 1.10167
C 9.00498 4.94275 0.918587
H 8.70128 3.94091 1.17786
H 9.76821 5.24833 1.65461
H 9.16102 4.95766 9.8771
C 7.86621 7.37642 2.28206
H 7.28961 8.2725 1.98422
H 8.96063 7.60735 2.33298
H 7.51272 7.11947 3.28666
P 12.8043 10.7452 9.48517
C 12.9833 9.77846 1.0664
H 12.9158 8.70242 0.852975
H 12.1164 10.0794 1.68655
H 13.8447 9.95621 1.72417
C 11.8314 1.72069 9.54427
H 12.4553 2.49993 9.95997
H 11.1772 1.56962 0.179943
H 11.5073 2.01466 8.52458
P 9.53817 2.01851 3.66015
C 9.68102 2.59461 5.40151
H 8.72983 2.90245 5.85055
H 10.3816 3.45362 5.41722
H 10.0895 1.81941 6.05963
C 10.8381 2.70492 2.62464
H 11.5962 1.92616 2.44792
H 11.2463 3.62974 3.07723
H 10.4457 2.94412 1.63835
P 6.93034 7.80469 7.58392
C 6.4557 8.64052 9.10198
H 7.27215 8.59043 9.82868
H 6.25762 9.68834 8.83802
H 5.60603 8.17206 9.59954
C 6.15091 8.22181 6.01121
H 6.33414 7.39868 5.29719
H 5.06177 8.31641 6.16102
H 6.59528 9.14926 5.59849
P -1.14655 4.14004 0.164563
C 0.483444 4.632 0.75629
H 0.413684 5.17045 1.71366
H 1.09498 3.73678 0.916172
H 0.718361 5.25931 9.97167
C -1.40078 3.33544 8.53451
H -1.0861 4.041 7.739
H -0.674117 2.5032 8.54943
H 14.3695 2.95648 8.31577
172
Atoms. Timestep: 10665
Ni 2.02963 8.79472 8.75683
Ni 6.40708 3.35767 3.64623
O -0.318808 4.32267 3.92384
O 3.45642 7.80035 8.84544
O 4.92234 2.41432 3.83119
O 0.591542 9.80753 8.87568
O 6.11067 4.53774 4.97087
O 1.54607 7.46742 9.88871
O -1.71556 2.43879 5.20065
O 2.5488 9.77994 0.195454
N 2.92949 10.1224 7.5551
N -1.10047 2.14894 2.70191
N 1.29542 7.78913 7.28363
N 5.55644 4.62173 2.37501
C 3.72787 10.5274 5.26678
C -0.699088 1.19988 0.519986
H 3.55818 10.4106 4.2051
H 7.63969 1.80822 8.98541
C 4.8159 11.2848 5.71227
C 0.517272 11.1486 0.921792
C 4.99241 11.4007 7.08063
C 0.860593 11.242 2.24976
H -2.23205 11.0727 7.14644
H 1.76288 10.7605 2.60225
C 1.38521 6.16206 5.50768
C 5.13009 5.62519 0.22946
H 1.97718 5.64168 4.78007
H 12.6245 4.65313 9.26034
C 2.02335 6.89909 6.53317
C 6.05588 5.17913 1.21567
H 3.078 6.77783 6.69311
C 2.80257 9.96239 6.18195
C -1.54336 1.86221 1.45791
H 1.95046 9.463 5.76742
H 6.22637 2.89449 0.516057
C 4.03237 10.8903 7.99631
C 0.0850074 1.50081 3.13554
C -0.0661351 7.9304 6.98708
C 4.31182 5.06019 2.78151
H 3.98723 4.85739 3.78764
C -0.542642 7.47077 5.76106
C 3.47263 5.83822 1.94124
H 7.03986 5.40681 7.36034
H 2.56432 6.26504 2.3389
C -0.000714002 6.30577 5.31211
C 3.84517 6.07948 0.619187
C 5.56045 1.68348 4.74747
C 1.12385 10.3473 9.9491
C -0.838043 5.17457 4.76334
C 2.8276 7.0109 9.69741
Ni 10.3599 8.63451 8.63518
Ni -1.86836 3.5592 3.82357
O 7.88051 4.27033 3.67795
O 11.7673 7.64227 8.87136
O 13.2326 2.74395 3.92987
O 8.94546 9.66769 8.60805
O -2.17785 4.90061 4.99677
O 9.82525 7.4011 9.87681
O 6.83084 2.14195 4.91364
O 10.5971 9.75914 10.0012
N 11.3151 9.84761 7.38441
N 7.10695 2.12229 2.29581
N 9.65543 7.48713 7.23592
N 14.2519 4.82677 2.34285
C 11.818 10.7417 5.15138
C 7.65919 1.59648 10.0469
H 11.6032 10.7408 4.09754
H -1.2336 1.08742 9.49732
C 13.0176 11.3232 5.6206
C 8.72584 11.0954 0.551086
C 13.4821 10.8187 6.81823
C 8.61447 10.7969 1.89495
H 5.81397 1.48424 7.45152
H 9.21814 9.99926 2.31213
C 9.65743 5.9999 5.32689
C 12.9606 4.95438 0.285971
H 10.1057 5.69129 4.39138
H 5.24907 5.79104 9.21662
C 10.352 6.90197 6.20548
C 14.1568 4.55044 0.998786
H 11.3704 7.18424 6.00038
C 10.9739 9.99102 6.05244
C 7.00842 2.30418 0.932028
H 10.0475 9.57762 5.68384
H 14.1626 2.12024 1.19499
C 12.5747 10.3196 7.76971
C 8.14 1.2892 2.73708
C 8.32596 7.10856 7.39328
C 13.5693 5.9725 2.75118
H 13.9292 6.55746 3.58001
C 7.932 5.86523 6.95321
C 12.4472 6.48935 2.03894
H -1.5113 7.78809 5.39663
H 11.9273 7.35487 2.43016
C 8.35551 5.53685 5.69789
C 12.1299 6.01169 0.765897
C 13.7195 2.03325 4.95234
C 9.40991 10.3003 9.65072
C 7.39988 4.94103 4.69792
C 11.119 6.9132 9.75694
P 4.16912 1.04629 9.66647
C 4.8963 10.5116 1.09525
H 4.6871 9.43787 0.928345
H 4.38347 10.8606 2.01278
H 5.97633 10.5335 1.25616
C 3.14149 2.50013 9.99664
H 3.5768 3.36709 9.46634
H 3.32579 2.69648 1.08611
H 2.12066 2.34121 9.60147
P 0.828107 1.75663 4.77693
C 2.05463 3.02667 5.0131
H 2.20273 3.54644 4.04956
H 1.69841 3.67272 5.83201
H 2.98865 2.58753 5.37043
C 0.295227 1.04251 6.35743
H -0.0715639 10.5259 6.21154
H 1.11701 1.12081 7.08012
H -0.455288 1.65071 6.85298
P -1.34155 7.96602 8.26848
C -1.2717 7.88334 10.0883
H -2.04855 7.61778 0.467937
H -0.760924 8.84295 0.525355
H -0.378528 7.11382 0.45587
C 14.0936 6.84215 7.67167
H 13.3946 7.38853 7.01256
H 13.624 6.41099 8.53082
H -2.17246 5.9959 7.13493
P 7.60536 6.04211 1.2447
C 9.04362 4.99074 1.11761
H 8.74734 3.99395 1.41575
H 9.8159 5.35786 1.81495
H 9.1715 4.94377 10.0695
C 7.6817 7.37873 2.46861
H 7.28104 8.30664 2.0198
H 8.73159 7.53832 2.78676
H 7.05357 7.13527 3.34229
P 12.8374 10.9994 9.38468
C 13.2028 10.0233 0.938462
H 12.9121 8.97711 0.773615
H 12.5573 10.4653 1.72375
H 14.226 9.99616 1.32911
C 11.8701 2.00706 9.40074
H 12.1733 2.49076 0.379007
H 10.8095 1.82749 9.16881
H 12.2583 2.64686 8.58817
P 9.43495 1.9772 3.76936
C 9.48695 2.19937 5.58504
H 8.87787 3.04944 5.91039
H 10.5222 2.40821 5.91571
H 9.08312 1.29988 6.08881
C 10.7461 2.63317 2.72603
H 11.5427 1.88143 2.64319
H 11.0898 3.61476 3.10822
H 10.3859 2.73039 1.69371
P 7.03436 8.33763 7.30741
C 6.48809 8.65741 8.99521
H 7.28695 8.42046 9.71366
H 6.24984 9.72418 9.07422
H 5.65154 8.02636 9.26257
C 5.67329 7.84249 6.22769
H 5.47095 6.75956 6.30979
H 4.77773 8.37125 6.56236
H 5.90509 8.11417 5.17928
P -1.23739 4.54313 10.0432
C 0.540987 4.56931 0.954948
H 0.498378 5.35514 1.73262
H 0.744168 3.59101 1.41911
H 1.35068 4.78847 0.235961
C -1.10131 3.66963 8.47341
H -0.815911 4.37329 7.67167
H -0.26501 2.95588 8.57129
H -2.04984 3.15325 8.22528
172
Atoms. Timestep: 17539
Ni 2.0233 8.79047 8.75357
Ni 6.40644 3.36253 3.64731
O -0.323089 4.31769 3.93089
O 3.45071 7.79417 8.84267
O 4.92277 2.41783 3.83262
O 0.584589 9.80304 8.87316
O 6.11528 4.53702 4.97829
O 1.53834 7.46484 9.88568
O -1.71606 2.43144 5.20523
O 2.5458 9.7767 0.189313
N 2.92805 10.1161 7.54938
N -1.10311 2.14577 2.70817
N 1.28484 7.78441 7.28249
N 5.5516 4.63352 2.38489
C 3.73272 10.5153 5.26203
C -0.696065 1.21425 0.520996
H 3.56399 10.3936 4.20155
H 7.62835 1.84297 8.97451
C 4.82097 11.2748 5.70686
C 0.514278 11.1474 0.922548
C 4.99909 11.3883 7.07513
C 0.852968 11.2263 2.25327
H -2.2057 11.013 7.10675
H 1.75044 10.7322 2.60509
C 1.38052 6.17602 5.49249
C 5.12234 5.61942 0.234523
H 1.97761 5.65507 4.76904
H 12.5916 4.64548 9.28727
C 2.01302 6.89712 6.53116
C 6.04986 5.18505 1.22525
H 3.06107 6.75455 6.71076
C 2.8037 9.95342 6.17816
C -1.54532 1.86437 1.46463
H 1.95003 9.45452 5.76415
H 6.20646 2.90345 0.517026
C 4.03389 10.8827 7.99206
C 0.084198 1.49337 3.14142
C -0.0800123 7.92571 6.98635
C 4.30805 5.08132 2.79412
H 3.98672 4.89073 3.80288
C -0.555446 7.47343 5.75707
C 3.46862 5.85546 1.94815
H 7.08683 5.33286 7.38052
H 2.56427 6.29583 2.345
C -0.0061921 6.31499 5.29742
C 3.83716 6.07837 0.62195
C 5.56304 1.68051 4.74266
C 1.11805 10.3437 9.94628
C -0.839256 5.17082 4.76995
C 2.82061 7.00523 9.69536
Ni 10.359 8.64216 8.63595
Ni -1.87138 3.55558 3.83208
O 7.87814 4.2742 3.67726
O 11.7661 7.65214 8.88921
O 13.2293 2.74112 3.93859
O 8.94202 9.67627 8.58854
O -2.17946 4.89676 5.00445
O 9.82176 7.42604 9.8943
O 6.83576 2.14015 4.90602
O 10.5946 9.78952 9.98102
N 11.322 9.83315 7.37289
N 7.10483 2.13419 2.28769
N 9.65815 7.473 7.25532
N 14.2451 4.82701 2.35484
C 11.8136 10.7331 5.14239
C 7.64867 1.6202 10.0329
H 11.5902 10.7353 4.0904
H -1.2216 1.1275 9.49434
C 13.0249 11.2985 5.60432
C 8.7159 11.1144 0.527414
C 13.499 10.7746 6.78977
C 8.61034 10.8095 1.87055
H 5.8217 1.47313 7.44453
H 9.21862 10.0111 2.27998
C 9.65241 6.0324 5.31289
C 12.9444 4.95895 0.305942
H 10.093 5.75306 4.36469
H 5.24243 5.77505 9.221
C 10.346 6.92635 6.1992
C 14.1467 4.5533 1.01263
H 11.3563 7.23345 5.98234
C 10.9671 9.98956 6.04862
C 6.99887 2.32169 0.926343
H 10.0289 9.59083 5.68991
H 14.1552 2.1167 1.20483
C 12.5928 10.2874 7.74989
C 8.14399 1.30081 2.71918
C 8.33599 7.06398 7.43156
C 13.5703 5.97868 2.76519
H 13.9412 6.56486 3.58733
C 7.96101 5.8228 6.96785
C 12.4466 6.50138 2.05722
H -1.5291 7.78683 5.3987
H 11.9329 7.37117 2.44825
C 8.36405 5.53976 5.69485
C 12.1211 6.02314 0.787273
C 13.7159 2.02741 4.95882
C 9.40679 10.3281 9.62281
C 7.40325 4.94321 4.70021
C 11.1154 6.93234 9.78032
P 4.157 1.05545 9.65558
C 4.8851 10.5418 1.10065
H 4.67403 9.46581 0.955214
H 4.37281 10.9077 2.01112
H 5.9659 10.5584 1.26059
C 3.12991 2.51808 9.95775
H 3.5553 3.37213 9.39768
H 3.3307 2.74664 1.04062
H 2.1023 2.3475 9.58561
P 0.838344 1.75589 4.77922
C 2.06306 3.03218 5.01183
H 2.21947 3.54395 4.0456
H 1.69241 3.68664 5.81713
H 2.99737 2.60494 5.38834
C 0.313657 1.05958 6.37078
H -0.0444392 10.5378 6.24087
H 1.13932 1.15231 7.08881
H -0.444209 1.66579 6.85931
P -1.35769 7.94518 8.26639
C -1.29512 7.88086 10.0859
H -2.07249 7.61339 0.463626
H -0.787454 8.84664 0.511202
H -0.396175 7.12128 0.464155
C 14.079 6.81347 7.66634
H 13.3756 7.3515 7.00526
H 13.6029 6.37497 8.51874
H -2.17852 5.97123 7.13124
P 7.60405 6.04742 1.25099
C 9.04951 4.9999 1.13044
H 8.75419 4.00053 1.421
H 9.81713 5.36268 1.83571
H 9.18918 4.95581 10.0863
C 7.68563 7.39338 2.46763
H 7.24386 8.31069 2.03513
H 8.74069 7.58196 2.75265
H 7.09146 7.13782 3.35966
P 12.8673 10.9798 9.35765
C 13.205 10.0296 0.930029
H 12.9029 8.98511 0.782938
H 12.5528 10.4907 1.69674
H 14.2227 9.99955 1.33778
C 11.9112 1.99555 9.34056
H 12.1762 2.47435 0.322796
H 10.8592 1.82284 9.06211
H 12.3396 2.63852 8.55069
P 9.45079 1.98992 3.7377
C 9.51667 2.21914 5.55176
H 8.90629 3.06633 5.87759
H 10.5544 2.4312 5.87564
H 9.11379 1.32427 6.06328
C 10.7634 2.62843 2.68027
H 11.5638 1.87925 2.60517
H 11.1096 3.61616 3.04492
H 10.3968 2.71349 1.64832
P 7.01517 8.26781 7.37037
C 6.49088 8.64296 9.05327
H 7.30786 8.44107 9.75982
H 6.24632 9.7111 9.09719
H 5.6556 8.0228 9.36172
C 5.64234 7.72363 6.32631
H 5.38083 6.67119 6.54408
H 4.77243 8.34489 6.55485
H 5.91094 7.8383 5.25882
P -1.24182 4.54615 10.0576
C 0.539137 4.57719 0.971802
H 0.497293 5.36723 1.74506
H 0.743892 3.60178 1.44269
H 1.35421 4.79028 0.256464
C -1.07649 3.70419 8.4727
H -0.750257 4.42047 7.69771
H -0.253602 2.97582 8.57518
H -2.02666 3.21288 8.18437
172
Atoms. Timestep: 17541
Ni 2.02976 8.78927 8.75373
Ni 6.40607 3.36391 3.64724
O -0.31269 4.31861 3.93084
O 3.45488 7.79344 8.84283
O 4.92477 2.41965 3.83257
O 0.593354 9.80137 8.87333
O 6.11532 4.53784 4.97829
O 1.54553 7.46427 9.8859
O -1.70348 2.43325 5.20524
O 2.55174 9.77504 0.189089
N 2.93311 10.1143 7.54949
N -1.09141 2.14772 2.70806
N 1.29254 7.78368 7.28259
N 5.55264 4.63429 2.38476
C 3.73657 10.5132 5.26204
C -0.684943 1.21664 0.520787
H 3.56815 10.3917 4.20151
H 7.62582 1.84506 8.97469
C 4.82306 11.2725 5.70689
C 0.523446 11.1451 0.922358
C 5.00085 11.3859 7.07521
C 0.861544 11.224 2.25314
H -2.1924 11.0108 7.10684
H 1.75756 10.7301 2.60498
C 1.38814 6.17606 5.49251
C 5.12414 5.61972 0.234302
H 1.98429 5.65536 4.76902
H 12.5811 4.64624 9.28746
C 2.01958 6.89682 6.53123
C 6.05015 5.18556 1.22507
H 3.06594 6.75432 6.71083
C 2.80901 9.95168 6.17821
C -1.53287 1.86645 1.46447
H 1.95672 9.45301 5.76418
H 6.20652 2.90504 0.516817
C 4.03716 10.8805 7.99219
C 0.0939739 1.49563 3.14133
C -0.0701136 7.92492 6.98644
C 4.31107 5.08188 2.79402
H 3.99022 4.89137 3.80282
C -0.54474 7.47285 5.7571
C 3.47301 5.85565 1.948
H 7.08523 5.3333 7.38062
H 2.5701 6.29581 2.34488
C 0.00364996 6.31496 5.29743
C 3.84102 6.07846 0.621746
C 5.56397 1.68268 4.74264
C 1.12592 10.3418 9.94649
C -0.828059 5.17134 4.76993
C 2.82576 7.00487 9.69557
Ni 10.3521 8.64104 8.6361
Ni -1.8585 3.55686 3.83202
O 7.87541 4.27514 3.67719
O 11.757 7.65148 8.88938
O 13.218 2.74278 3.93854
O 8.93741 9.67466 8.5887
O -2.16612 4.89741 5.00445
O 9.81568 7.42549 9.89451
O 6.83466 2.1421 4.90601
O 10.5873 9.78785 9.98124
N 11.3136 9.83146 7.37299
N 7.10339 2.13615 2.28756
N 9.65244 7.47243 7.25541
N 14.2322 4.82769 2.35472
C 11.8045 10.731 5.14239
C 7.64607 1.62239 10.0332
H 11.5815 10.7332 4.09035
H -1.20996 1.12993 9.49453
C 13.0139 11.2961 5.60434
C 8.71194 11.1121 0.527206
C 13.4871 10.7724 6.78984
C 8.6065 10.8073 1.8704
H 5.82213 1.4754 7.44463
H 9.21379 10.0094 2.27985
C 9.64678 6.03251 5.3129
C 12.9337 4.95956 0.305724
H 10.0867 5.7533 4.36465
H 5.24372 5.77528 9.22119
C 10.3392 6.92604 6.19925
C 14.1341 4.55411 1.01244
H 11.3479 7.23299 5.98238
C 10.9593 9.98779 6.04866
C 6.99764 2.32356 0.926153
H 10.0226 9.58926 5.68994
H 14.1425 2.11866 1.20465
C 12.5824 10.2855 7.75
C 8.14087 1.30315 2.71907
C 8.33238 7.0636 7.43166
C 13.5584 5.97882 2.76508
H 13.9288 6.56472 3.58726
C 7.95803 5.823 6.96793
C 12.4366 6.50126 2.05708
H -1.51682 7.78611 5.39871
H 11.9238 7.37064 2.44813
C 8.36046 5.54011 5.69488
C 12.1117 6.02325 0.787077
C 13.7038 2.02941 4.95881
C 9.40139 10.3262 9.62302
C 7.40124 4.94383 4.70019
C 11.1072 6.93202 9.78053
P 4.16001 1.05791 9.65578
C 4.88726 10.5398 1.10046
H 4.67653 9.46429 0.955025
H 4.37576 10.9055 2.01098
H 5.96632 10.5564 1.26042
C 3.13456 2.51985 9.95797
H 3.55928 3.3735 9.39787
H 3.33535 2.7483 1.04043
H 2.1086 2.34936 9.58581
P 0.846851 1.75802 4.77921
C 2.0696 3.03371 5.01182
H 2.22579 3.54524 4.04555
H 1.69951 3.68786 5.81716
H 3.00239 2.60667 5.38836
C 0.322947 1.06204 6.37084
H -0.0345703 10.5357 6.24091
H 1.14726 1.15473 7.0889
H -0.433722 1.66797 6.85939
P -1.34579 7.94438 8.26653
C -1.28339 7.8801 10.0861
H -2.05916 7.61275 0.463415
H -0.776185 8.84542 0.510993
H -0.385531 7.12087 0.463944
C 14.0661 6.81321 7.66645
H 13.3639 7.35098 7.00534
H 13.5908 6.37491 8.51889
H -2.16527 5.97137 7.13133
P 7.60185 6.04752 1.25082
C 9.04499 5.0005 1.13026
H 8.75013 4.0016 1.42084
H 9.81136 5.3631 1.83556
H 9.18411 4.95643 10.0865
C 7.68325 7.39284 2.46751
H 7.2422 8.30972 2.03499
H 8.73661 7.58134 2.75255
H 7.08999 7.13741 3.35958
P 12.8563 10.9776 9.35785
C 13.1938 10.0279 0.929839
H 12.8922 8.98382 0.782741
H 12.5427 10.4887 1.69658
H 14.2099 9.99778 1.33761
C 11.9018 1.99756 9.34075
H 12.1667 2.47615 0.322578
H 10.8515 1.82494 9.06229
H 12.3296 2.64024 8.55085
P 9.44554 1.99194 3.73764
C 9.51124 2.22105 5.55178
H 8.90183 3.06784 5.87762
H 10.5473 2.43302 5.87567
H 9.10899 1.3266 6.06332
C 10.7561 2.63015 2.68016
H 11.5552 1.88132 2.60505
H 11.1017 3.61741 3.04482
H 10.3902 2.71516 1.64816
P 7.01369 8.26686 7.37047
C 6.49017 8.64183 9.05345
H 7.30582 8.44003 9.76003
H 6.246 9.70947 9.09737
H 5.65622 8.02197 9.36191
C 5.6431 7.72293 6.32636
H 5.382 6.671 6.54414
H 4.77457 8.3439 6.55492
H 5.9113 7.83756 5.25882
P -1.23017 4.54696 10.0578
C 0.548263 4.57798 0.971613
H 0.506458 5.36765 1.74491
H 0.752673 3.60304 1.44253
H 1.36206 4.79097 0.256244
C -1.06504 3.7054 8.47285
H -0.73931 4.42134 7.69783
H -0.243484 2.97738 8.57534
H -2.01368 3.21432 8.18451
172
Atoms. Timestep: 20000
Ni 2.02747 8.78745 8.75358
Ni 6.40576 3.36408 3.64748
O -0.31209 4.31832 3.9328
O 3.45424 7.79083 8.84264
O 4.92285 2.41871 3.83239
O 0.588962 9.80075 8.8736
O 6.11427 4.53625 4.97998
O 1.54146 7.46294 9.88532
O -1.70299 2.43316 5.20764
O 2.5511 9.77268 0.188207
N 2.93209 10.1122 7.54897
N -1.09269 2.14692 2.71121
N 1.28958 7.78204 7.28311
N 5.55129 4.63616 2.38741
C 3.73707 10.5091 5.26155
C -0.684736 1.22123 0.52241
H 3.56906 10.3859 4.20114
H 7.62374 1.85299 8.97208
C 4.82412 11.27 5.70586
C 0.522444 11.1441 0.923946
C 5.00218 11.3849 7.0741
C 0.859787 11.2183 2.25558
H -2.18326 10.9969 7.0982
H 1.75508 10.7203 2.6073
C 1.38838 6.18121 5.48767
C 5.12224 5.61659 0.235784
H 1.98611 5.66029 4.76487
H 12.5732 4.64249 9.2941
C 2.01843 6.89638 6.53083
C 6.04955 5.18579 1.2273
H 3.06438 6.74822 6.71542
C 2.80801 9.94839 6.1778
C -1.53488 1.86746 1.46739
H 1.95422 9.44993 5.76377
H 6.20113 2.90749 0.516874
C 4.0372 10.8795 7.99132
C 0.0936528 1.49264 3.14412
C -0.0746686 7.92416 6.98669
C 4.30957 5.08724 2.79758
H 3.98972 4.90028 3.80735
C -0.549285 7.47508 5.756
C 3.47098 5.86078 1.95062
H 7.08909 5.32174 7.3833
H 2.56896 6.30576 2.3476
C 0.00220456 6.31918 5.29247
C 3.83829 6.0779 0.622986
C 5.56454 1.68065 4.74113
C 1.1239 10.3404 9.94692
C -0.828506 5.17157 4.77146
C 2.82314 7.00266 9.69536
Ni 10.3522 8.6421 8.63558
Ni -1.85973 3.55655 3.83502
O 7.87654 4.27596 3.67768
O 11.7583 7.65243 8.89281
O 13.2149 2.74227 3.94243
O 8.93583 9.67744 8.58373
O -2.16834 4.89746 5.00655
O 9.81277 7.4305 9.8968
O 6.83696 2.14062 4.90397
O 10.5877 9.79297 9.9763
N 11.3159 9.82733 7.37045
N 7.10301 2.13835 2.28565
N 9.65353 7.4692 7.25882
N 14.2299 4.82745 2.35839
C 11.8045 10.727 5.14013
C 7.6442 1.62791 10.03
H 11.5799 10.7302 4.08831
H -1.20702 1.14164 9.49484
C 13.0171 11.2896 5.60084
C 8.71023 11.1155 0.521569
C 13.4934 10.7617 6.78346
C 8.60658 10.8089 1.86455
H 5.82394 1.47608 7.44294
H 9.2153 10.01 2.27215
C 9.64784 6.03553 5.31218
C 12.9291 4.95907 0.310757
H 10.0871 5.76013 4.36223
H 5.24213 5.76969 9.22223
C 10.3404 6.9285 6.19911
C 14.1317 4.55369 1.01649
H 11.3485 7.24039 5.97974
C 10.9581 9.9856 6.04734
C 6.99564 2.32795 0.924674
H 10.0178 9.58982 5.69065
H 14.138 2.11795 1.2086
C 12.5884 10.2773 7.74529
C 8.14221 1.30443 2.71484
C 8.33332 7.05604 7.43755
C 13.5571 5.98027 2.76849
H 13.9296 6.56687 3.58955
C 7.96106 5.81559 6.97057
C 12.4344 6.50401 2.06068
H -1.52365 7.78765 5.39891
H 11.922 7.3748 2.45119
C 8.36182 5.53901 5.69543
C 12.1085 6.02549 0.791164
C 13.7023 2.02905 4.9624
C 9.40122 10.332 9.61645
C 7.40145 4.94359 4.70129
C 11.1058 6.93537 9.78449
P 4.15778 1.06028 9.65358
C 4.88499 10.5454 1.10165
H 4.67467 9.4688 0.960114
H 4.37277 10.9142 2.01097
H 5.96554 10.5609 1.26144
C 3.12972 2.52329 9.95023
H 3.55354 3.37516 9.3856
H 3.33152 2.75677 1.03161
H 2.10193 2.35004 9.57994
P 0.851168 1.75702 4.7806
C 2.07231 3.03676 5.01157
H 2.22994 3.54542 4.04395
H 1.69772 3.69302 5.81345
H 3.00618 2.61279 5.3933
C 0.328484 1.06757 6.37593
H -0.0265676 10.5392 6.25093
H 1.15461 1.16564 7.093
H -0.431039 1.67329 6.86264
P -1.35175 7.93779 8.26645
C -1.29066 7.87908 10.086
H -2.06752 7.60995 0.462665
H -0.785038 8.84675 0.507417
H -0.39064 7.12276 0.467972
C 14.0627 6.80223 7.66482
H 13.3599 7.33767 7.00146
H 13.5851 6.36285 8.51541
H -2.16399 5.96125 7.13193
P 7.60176 6.05078 1.25302
C 9.04695 5.00325 1.13486
H 8.75121 4.00379 1.42395
H 9.81216 5.36539 1.8428
H 9.1887 4.95929 10.0919
C 7.68118 7.39591 2.47081
H 7.23643 8.31248 2.03981
H 8.73606 7.58697 2.75488
H 7.08866 7.13817 3.36319
P 12.8658 10.972 9.35149
C 13.1945 10.0287 0.928724
H 12.8904 8.98451 0.785854
H 12.5399 10.4943 1.69031
H 14.2097 9.99857 1.34244
C 11.9127 1.99427 9.32577
H 12.1669 2.47145 0.30858
H 10.8636 1.82291 9.03482
H 12.3512 2.63769 8.54182
P 9.45098 1.99309 3.7304
C 9.51942 2.22452 5.54413
H 8.90913 3.07107 5.87026
H 10.5574 2.43756 5.86655
H 9.11672 1.33073 6.0574
C 10.7612 2.62934 2.66863
H 11.5621 1.88069 2.59504
H 11.107 3.6186 3.02941
H 10.3926 2.71092 1.63692
P 7.00979 8.25655 7.37941
C 6.48916 8.63899 9.06175
H 7.30905 8.44405 9.76667
H 6.24211 9.70662 9.10045
H 5.65653 8.01855 9.37697
C 5.63818 7.70992 6.33592
H 5.3742 6.65952 6.56049
H 4.77009 8.33593 6.55747
H 5.90988 7.81631 5.26842
P -1.22946 4.54786 10.0625
C 0.54962 4.58001 0.978785
H 0.506932 5.37209 1.74986
H 0.753287 3.60563 1.45223
H 1.36546 4.7904 0.263805
C -1.05506 3.71563 8.47355
H -0.715678 4.43523 7.70717
H -0.237428 2.98194 8.57813
H -2.00546 3.23264 8.1725
172
Atoms. Timestep: 21900
Ni 2.02748 8.78745 8.75357
Ni 6.40576 3.36409 3.64748
O -0.312102 4.31829 3.93281
O 3.45424 7.79082 8.84263
O 4.92286 2.41871 3.83239
O 0.588974 9.80076 8.87359
O 6.11426 4.53625 4.98
O 1.54147 7.46295 9.88531
O -1.70301 2.43311 5.20763
O 2.55112 9.77268 0.188186
N 2.93211 10.1122 7.54895
N -1.09269 2.1469 2.7112
N 1.28957 7.78203 7.28311
N 5.55128 4.63618 2.38743
C 3.7371 10.5091 5.26153
C -0.684718 1.22124 0.522389
H 3.56909 10.3858 4.20112
H 7.62374 1.85305 8.97206
C 4.82415 11.27 5.70584
C 0.522459 11.1441 0.923927
C 5.00221 11.3849 7.07409
C 0.859789 11.2183 2.25556
H -2.18323 10.9967 7.09809
H 1.75508 10.7203 2.60729
C 1.38836 6.18118 5.48769
C 5.12225 5.61662 0.235802
H 1.98609 5.66025 4.76489
H 12.5731 4.6425 9.29414
C 2.01842 6.89635 6.53084
C 6.04955 5.18582 1.22733
H 3.06436 6.74818 6.71543
C 2.80803 9.94837 6.17778
C -1.53487 1.86745 1.46738
H 1.95424 9.4499 5.76374
H 6.20112 2.90753 0.51687
C 4.03722 10.8795 7.9913
C 0.093649 1.49262 3.14411
C -0.0746775 7.92414 6.98669
C 4.30955 5.08725 2.79758
H 3.98969 4.90028 3.80735
C -0.549305 7.47505 5.75602
C 3.47095 5.86078 1.95062
H 7.08916 5.32163 7.38336
H 2.56892 6.30573 2.34758
C 0.00218431 6.31914 5.29249
C 3.83828 6.0779 0.622991
C 5.56456 1.68065 4.74113
C 1.12391 10.3404 9.9469
C -0.828522 5.17153 4.77149
C 2.82314 7.00267 9.69536
Ni 10.3522 8.64211 8.6356
Ni -1.85974 3.55652 3.83502
O 7.87653 4.27599 3.67769
O 11.7583 7.65245 8.89285
O 13.2149 2.74224 3.94241
O 8.93583 9.67746 8.58372
O -2.16836 4.89742 5.00656
O 9.81276 7.43056 9.89686
O 6.83697 2.14063 4.90396
O 10.5877 9.79304 9.97628
N 11.3158 9.82731 7.37044
N 7.10301 2.13839 2.28564
N 9.65352 7.46917 7.25888
N 14.2299 4.82743 2.3584
C 11.8044 10.727 5.14011
C 7.6442 1.62797 10.03
H 11.5798 10.7302 4.08829
H -1.20699 1.14167 9.49482
C 13.0171 11.2896 5.6008
C 8.71023 11.1155 0.521544
C 13.4934 10.7616 6.78338
C 8.60659 10.8089 1.86452
H 5.82398 1.47603 7.44293
H 9.21531 10.01 2.27212
C 9.6478 6.0356 5.31217
C 12.9291 4.95908 0.310786
H 10.087 5.76025 4.36219
H 5.24216 5.76974 9.22225
C 10.3404 6.92855 6.19912
C 14.1317 4.55368 1.0165
H 11.3485 7.24046 5.97973
C 10.958 9.98561 6.04734
C 6.99564 2.328 0.924664
H 10.0177 9.58986 5.69067
H 14.138 2.11793 1.20858
C 12.5884 10.2772 7.74524
C 8.14222 1.30447 2.71482
C 8.33333 7.05597 7.43765
C 13.5571 5.98027 2.76851
H 13.9297 6.56686 3.58956
C 7.96109 5.81554 6.97062
C 12.4344 6.50403 2.06072
H -1.52367 7.78761 5.39893
H 11.9221 7.37483 2.45124
C 8.36181 5.53903 5.69544
C 12.1085 6.02551 0.791208
C 13.7023 2.029 4.96238
C 9.40122 10.3321 9.61642
C 7.40143 4.94361 4.7013
C 11.1058 6.93542 9.78454
P 4.15777 1.06032 9.65355
C 4.88497 10.5455 1.10166
H 4.67465 9.46888 0.960172
H 4.37276 10.9144 2.01096
H 5.96553 10.561 1.26144
C 3.12971 2.52333 9.95014
H 3.55353 3.37519 9.38549
H 3.33149 2.75684 1.03151
H 2.10192 2.35007 9.57983
P 0.85116 1.757 4.78059
C 2.07232 3.03673 5.01156
H 2.22994 3.5454 4.04394
H 1.69773 3.69298 5.81345