units           real
atom_style      full
boundary        p p p

pair_style      lj/cut 12.500
bond_style      harmonic
angle_style     hybrid fourier cosine/periodic
dihedral_style  harmonic
improper_style  fourier

pair_modify     tail yes mix arithmetic
special_bonds   lj/coul 0.0 0.0 1.0
dielectric      1.0
box tilt        large
read_data       data.IRMOF-1_clean_meta_functonalized_F
  triclinic box = (0 0 0) to (25.832 25.832 25.832) with tilt (0 0 0)
  1 by 1 by 1 MPI processor grid
  reading atoms ...
  424 atoms
  scanning bonds ...
  4 = max bonds/atom
  scanning angles ...
  6 = max angles/atom
  scanning dihedrals ...
  8 = max dihedrals/atom
  scanning impropers ...
  3 = max impropers/atom
  reading bonds ...
  512 bonds
  reading angles ...
  912 angles
  reading dihedrals ...
  960 dihedrals
  reading impropers ...
  576 impropers
  4 = max # of 1-2 neighbors
  12 = max # of 1-3 neighbors
  16 = max # of special neighbors
  special bonds CPU = 0.000148204 secs
  read_data CPU = 0.00496525 secs

#### Atom Groupings ####
group           fram     id   1:424
424 atoms in group fram
#### END Atom Groupings ####

Total wall time: 0:00:00
