/apps/openmpi/3.1_intel-19/bin/mpiexec
/apps/qe/6.5/bin/pw.x
starting QE Wed Jul 29 11:44:53 PDT 2020

     Program PWSCF v.6.5 starts on 29Jul2020 at 11:44:56 

     This program is part of the open-source Quantum ESPRESSO suite
     for quantum simulation of materials; please cite
         "P. Giannozzi et al., J. Phys.:Condens. Matter 21 395502 (2009);
         "P. Giannozzi et al., J. Phys.:Condens. Matter 29 465901 (2017);
          URL http://www.quantum-espresso.org", 
     in publications or presentations arising from this work. More details at
     http://www.quantum-espresso.org/quote

     Parallel version (MPI & OpenMP), running on      16 processor cores
     Number of MPI processes:                16
     Threads/MPI process:                     1

     MPI processes distributed on     1 nodes
     K-points division:     npool     =       2
     R & G space division:  proc/nbgrp/npool/nimage =       8
     Reading input from ./QE_input_scripts/pw.NiPyC2_relax_sc211_meta_functionalized_CH-O_vdw-df2_relax.in
Warning: card &CELL ignored
Warning: card    CELL_DYNAMICS = 'BFGS' ignored
Warning: card    CELL_DOFREE = 'XYZ' ignored
Warning: card / ignored

     Current dimensions of program PWSCF are:
     Max number of different atomic species (ntypx) = 10
     Max number of k-points (npk) =  40000
     Max angular momentum in pseudopotentials (lmaxx) =  3

     IMPORTANT: XC functional enforced from input :
     Exchange-correlation= VDW-DF2
                           (   1   4  13   0   2   0   0)
     Any further DFT definition will be discarded
     Please, verify this is what you really want


     -------------------------------------------------
     Parameters for Dispersion (Grimme-D2) Correction:
     -------------------------------------------------
       atom      VdW radius       C_6     

        C          2.744         60.710
        H          1.892          4.857
        N          2.640         42.670
        Ni         2.952        374.666
        O          2.536         24.284

     gamma-point specific algorithms are used

     Subspace diagonalization in iterative solution of the eigenvalue problem:
     a serial algorithm will be used

 
     Parallelization info
     --------------------
     sticks:   dense  smooth     PW     G-vecs:    dense   smooth      PW
     Min        2228    2228    556               183376   183376   22914
     Max        2230    2230    558               183380   183380   22917
     Sum       17829   17829   4453              1467017  1467017  183325
 


     bravais-lattice index     =            0
     lattice parameter (alat)  =      23.6322  a.u.
     unit-cell volume          =   10858.6228 (a.u.)^3
     number of atoms/cell      =          124
     number of atomic types    =            5
     number of electrons       =       480.00 (up: 244.00, down: 236.00)
     number of Kohn-Sham states=          293
     kinetic-energy cutoff     =     100.0000  Ry
     charge density cutoff     =     400.0000  Ry
     convergence threshold     =      1.0E-06
     mixing beta               =       0.7000
     number of iterations used =            8  local-TF  mixing
     Exchange-correlation= VDW-DF2
                           (   1   4  13   0   2   0   0)
     nstep                     =          200


     celldm(1)=  23.632159  celldm(2)=   0.000000  celldm(3)=   0.000000
     celldm(4)=   0.000000  celldm(5)=   0.000000  celldm(6)=   0.000000

     crystal axes: (cart. coord. in units of alat)
               a(1) = (   1.000000   0.000000   0.000000 )  
               a(2) = (   0.000000   1.001423   0.000000 )  
               a(3) = (  -0.018199   0.000000   0.821574 )  

     reciprocal axes: (cart. coord. in units 2 pi/alat)
               b(1) = (  1.000000  0.000000  0.022152 )  
               b(2) = (  0.000000  0.998579  0.000000 )  
               b(3) = (  0.000000  0.000000  1.217175 )  


     PseudoPot. # 1 for C  read from file:
     ./pseudo/C.pbesol-nc.UPF
     MD5 check sum: ce26087537ded160c8d400e183a8bf42
     Pseudo is Norm-conserving, Zval =  4.0
     Generated using "atomic" code by A. Dal Corso v.6.5
     Using radial grid of 1073 points,  1 beta functions with: 
                l(1) =   1

     PseudoPot. # 2 for H  read from file:
     ./pseudo/H.pbesol-n-nc.UPF
     MD5 check sum: 7995ef24074557c85b430109caaacc09
     Pseudo is Norm-conserving, Zval =  1.0
     Generated using "atomic" code by A. Dal Corso v.6.5
     Using radial grid of  929 points,  0 beta functions with: 

     PseudoPot. # 3 for N  read from file:
     ./pseudo/N.pbesol-nc.UPF
     MD5 check sum: e18cc5e4b8a5600c1a19b30c2cab1ca0
     Pseudo is Norm-conserving, Zval =  5.0
     Generated using "atomic" code by A. Dal Corso v.6.5
     Using radial grid of 1085 points,  1 beta functions with: 
                l(1) =   1

     PseudoPot. # 4 for Ni read from file:
     ./pseudo/Ni.pbesol-n-nc.UPF
     MD5 check sum: 623411631e0c2eb7c0b2b9815547d2d9
     Pseudo is Norm-conserving + core correction, Zval = 10.0
     Generated using "atomic" code by A. Dal Corso v.6.5
     Using radial grid of 1195 points,  2 beta functions with: 
                l(1) =   1
                l(2) =   2

     PseudoPot. # 5 for O  read from file:
     ./pseudo/O.pbesol-nc.UPF
     MD5 check sum: 73d10e7e91dbfcbe8a7e362101007f84
     Pseudo is Norm-conserving, Zval =  6.0
     Generated using "atomic" code by A. Dal Corso v.6.5
     Using radial grid of 1095 points,  1 beta functions with: 
                l(1) =   1

     atomic species   valence    mass     pseudopotential
        C              4.00    12.01070     C ( 1.00)
        H              1.00     1.00794     H ( 1.00)
        N              5.00    14.00670     N ( 1.00)
        Ni            10.00    58.69340     Ni( 1.00)
        O              6.00    15.99940     O ( 1.00)

     Starting magnetic structure 
     atomic species   magnetization
        C            0.000
        H            0.000
        N            0.000
        Ni           0.250
        O            0.000

     No symmetry found



   Cartesian axes

     site n.     atom                  positions (alat units)
         1           C   tau(   1) = (   0.2787122   0.9714307   0.4288486  )
         2           C   tau(   2) = (   0.0379730   0.0311503   0.0183277  )
         3           C   tau(   3) = (   0.3806882   0.0117868   0.4489838  )
         4           C   tau(   4) = (   0.1394042   0.9891499   0.0379124  )
         5           C   tau(   5) = (   0.4400787   0.9715829   0.5343281  )
         6           C   tau(   6) = (   0.1997920   0.0283934   0.1231482  )
         7           C   tau(   7) = (   0.1986011   0.5304580   0.4324635  )
         8           C   tau(   8) = (   0.4580372   0.4720800   0.0229252  )
         9           C   tau(   9) = (   0.2341003   0.6142040   0.4982314  )
        10           C   tau(  10) = (   0.4948422   0.3892302   0.0892369  )
        11           C   tau(  11) = (   0.2384981   0.8904717   0.4955761  )
        12           C   tau(  12) = (  -0.0008282   0.1123917   0.0856467  )
        13           C   tau(  13) = (   0.3947360   0.8906489   0.5977380  )
        14           C   tau(  14) = (   0.1557890   0.1097029   0.1871645  )
        15           C   tau(  15) = (   0.0756247   0.6098498   0.5975737  )
        16           C   tau(  16) = (   0.3367152   0.3921904   0.1884642  )
        17           C   tau(  17) = (   0.0350715   0.5258264   0.5351012  )
        18           C   tau(  18) = (   0.2948780   0.4753867   0.1254988  )
        19           C   tau(  19) = (   0.0981522   0.4849593   0.4519611  )
        20           C   tau(  20) = (   0.3569104   0.5163900   0.0416029  )
        21           C   tau(  21) = (   0.4248178   0.0994604   0.3833638  )
        22           C   tau(  22) = (   0.1639424   0.9010006   0.7933713  )
        23           C   tau(  23) = (   0.0588120   0.3950355   0.3866953  )
        24           C   tau(  24) = (   0.2984059   0.6050320   0.7961934  )
        25           C   tau(  25) = (   0.7787122   0.9714307   0.4288486  )
        26           C   tau(  26) = (   0.5379730   0.0311503   0.0183277  )
        27           C   tau(  27) = (   0.8806882   0.0117868   0.4489838  )
        28           C   tau(  28) = (   0.6394042   0.9891499   0.0379124  )
        29           C   tau(  29) = (   0.9400787   0.9715829   0.5343281  )
        30           C   tau(  30) = (   0.6997920   0.0283934   0.1231482  )
        31           C   tau(  31) = (   0.6986021   0.5304580   0.4324635  )
        32           C   tau(  32) = (   0.9580382   0.4720800   0.0229252  )
        33           C   tau(  33) = (   0.7341003   0.6142040   0.4982314  )
        34           C   tau(  34) = (   0.9948422   0.3892302   0.0892369  )
        35           C   tau(  35) = (   0.7384981   0.8904717   0.4955761  )
        36           C   tau(  36) = (   0.4991718   0.1123917   0.0856467  )
        37           C   tau(  37) = (   0.8947360   0.8906489   0.5977380  )
        38           C   tau(  38) = (   0.6557880   0.1097029   0.1871645  )
        39           C   tau(  39) = (   0.5756247   0.6098498   0.5975737  )
        40           C   tau(  40) = (   0.8367152   0.3921904   0.1884642  )
        41           C   tau(  41) = (   0.5350715   0.5258264   0.5351012  )
        42           C   tau(  42) = (   0.7948780   0.4753867   0.1254988  )
        43           C   tau(  43) = (   0.5981522   0.4849593   0.4519611  )
        44           C   tau(  44) = (   0.8569104   0.5163900   0.0416029  )
        45           C   tau(  45) = (   0.9248178   0.0994604   0.3833638  )
        46           C   tau(  46) = (   0.6639424   0.9010006   0.7933713  )
        47           C   tau(  47) = (   0.5588110   0.3950355   0.3866953  )
        48           C   tau(  48) = (   0.7984059   0.6050320   0.7961934  )
        49           C   tau(  49) = (   0.5511701   0.0060656   0.5641948  )
        50           C   tau(  50) = (   0.9470955   0.9981277   0.7499815  )
        51           C   tau(  51) = (   0.2732959   0.4957787   0.3443990  )
        52           C   tau(  52) = (   0.5144000   0.5073121   0.7563273  )
        53           C   tau(  53) = (   0.7068575   0.0060266   0.3388641  )
        54           C   tau(  54) = (   0.8106003   0.9924656   0.1522550  )
        55           C   tau(  55) = (   0.4249755   0.4858916   0.5632713  )
        56           C   tau(  56) = (   0.0144010   0.5073121   0.7563281  )
        57           H   tau(  57) = (   0.2290596   1.0009978   0.3640502  )
        58           H   tau(  58) = (   0.4693669   0.0026958   0.7751545  )
        59           H   tau(  59) = (   0.0198054   1.0002267   0.5533467  )
        60           H   tau(  60) = (   0.2791988   1.0000865   0.1418054  )
        61           H   tau(  61) = (   0.3118554   0.6514319   0.4868937  )
        62           H   tau(  62) = (   0.0732386   0.3533532   0.0780726  )
        63           H   tau(  63) = (   0.1594426   0.8563401   0.4835457  )
        64           H   tau(  64) = (   0.4206861   0.1479423   0.0738480  )
        65           H   tau(  65) = (   0.4386511   0.8563902   0.6644572  )
        66           H   tau(  66) = (   0.2006191   0.1433067   0.2536997  )
        67           H   tau(  67) = (   0.0290492   0.6438591   0.6626884  )
        68           H   tau(  68) = (   0.2907535   0.3580349   0.2539083  )
        69           H   tau(  69) = (   0.2157623   0.5059201   0.1439924  )
        70           H   tau(  70) = (   0.7505234   0.5016080   0.3691185  )
        71           H   tau(  71) = (   0.8118554   0.6514319   0.4868937  )
        72           H   tau(  72) = (   0.5732386   0.3533532   0.0780726  )
        73           H   tau(  73) = (   0.6594426   0.8563401   0.4835457  )
        74           H   tau(  74) = (   0.9206861   0.1479423   0.0738480  )
        75           H   tau(  75) = (   0.9386511   0.8563902   0.6644572  )
        76           H   tau(  76) = (   0.7006201   0.1433067   0.2536997  )
        77           H   tau(  77) = (   0.5290492   0.6438591   0.6626884  )
        78           H   tau(  78) = (   0.7907535   0.3580349   0.2539083  )
        79           H   tau(  79) = (   0.9564147   0.4939330   0.5533319  )
        80           H   tau(  80) = (   0.7157623   0.5059201   0.1439924  )
        81           H   tau(  81) = (   0.5928638   0.0672716   0.5209611  )
        82           H   tau(  82) = (   0.9689601   0.9368546   0.6941128  )
        83           H   tau(  83) = (   0.2538113   0.4325859   0.2898029  )
        84           H   tau(  84) = (   0.4941599   0.5698520   0.7012563  )
        85           H   tau(  85) = (   0.7298243   0.0672576   0.2833938  )
        86           H   tau(  86) = (   0.8513079   0.9309151   0.1085719  )
        87           H   tau(  87) = (   0.3868580   0.4220869   0.5204969  )
        88           H   tau(  88) = (  -0.0058391   0.5698530   0.7012572  )
        89           N   tau(  89) = (   0.2956096   0.8524646   0.5790685  )
        90           N   tau(  90) = (   0.0569790   0.1490689   0.1692870  )
        91           N   tau(  91) = (   0.1736962   0.6512356   0.5798983  )
        92           N   tau(  92) = (   0.4350238   0.3514275   0.1709211  )
        93           N   tau(  93) = (   0.7956096   0.8524646   0.5790685  )
        94           N   tau(  94) = (   0.5569790   0.1490689   0.1692870  )
        95           N   tau(  95) = (   0.6736972   0.6512356   0.5798983  )
        96           N   tau(  96) = (   0.9350238   0.3514275   0.1709211  )
        97           Ni  tau(  97) = (   0.2317814   0.7525556   0.6871039  )
        98           Ni  tau(  98) = (   0.4937992   0.2483520   0.2786599  )
        99           Ni  tau(  99) = (   0.7317814   0.7525556   0.6871039  )
       100           Ni  tau( 100) = (   0.9937992   0.2483520   0.2786599  )
       101           O   tau( 101) = (   0.1158100   0.3481839   0.3145586  )
       102           O   tau( 102) = (   0.3551690   0.6519036   0.7240468  )
       103           O   tau( 103) = (   0.3707656   0.1477170   0.3098797  )
       104           O   tau( 104) = (   0.1091506   0.8535652   0.7199135  )
       105           O   tau( 105) = (   0.4642788   0.3566669   0.3968154  )
       106           O   tau( 106) = (   0.2033039   0.6423280   0.8050417  )
       107           O   tau( 107) = (   0.0200847   0.1353504   0.3952413  )
       108           O   tau( 108) = (   0.2588616   0.8639860   0.8046490  )
       109           O   tau( 109) = (   0.6158110   0.3481839   0.3145586  )
       110           O   tau( 110) = (   0.8551690   0.6519036   0.7240468  )
       111           O   tau( 111) = (   0.8707656   0.1477170   0.3098797  )
       112           O   tau( 112) = (   0.6091506   0.8535652   0.7199135  )
       113           O   tau( 113) = (   0.9642788   0.3566669   0.3968154  )
       114           O   tau( 114) = (   0.7033039   0.6423280   0.8050417  )
       115           O   tau( 115) = (   0.5200847   0.1353504   0.3952413  )
       116           O   tau( 116) = (   0.7588616   0.8639860   0.8046490  )
       117           O   tau( 117) = (   0.5978619   0.9671697   0.6399521  )
       118           O   tau( 118) = (   0.8595599   0.0383916   0.7379552  )
       119           O   tau( 119) = (   0.3598457   0.5394958   0.3324451  )
       120           O   tau( 120) = (   0.6016205   0.4647976   0.7449263  )
       121           O   tau( 121) = (   0.6187451   0.9671486   0.3263334  )
       122           O   tau( 122) = (   0.8582019   0.0305254   0.2278866  )
       123           O   tau( 123) = (   0.3749393   0.5257963   0.6370889  )
       124           O   tau( 124) = (   0.1016215   0.4647986   0.7449271  )

     number of k points=     1  Marzari-Vanderbilt smearing, width (Ry)=  0.2000
                       cart. coord. in units 2pi/alat
        k(    1) = (   0.0000000   0.0000000   0.0000000), wk =   1.0000000

     Dense  grid:   733509 G-vectors     FFT dimensions: ( 160, 160, 125)

     Estimated max dynamical RAM per process >     670.34 MB

     Estimated total dynamical RAM >      10.47 GB
     Generating pointlists ...
     new r_m :   0.0354 (alat units)  0.8359 (a.u.) for type    1
     new r_m :   0.0354 (alat units)  0.8359 (a.u.) for type    2
     new r_m :   0.0445 (alat units)  1.0514 (a.u.) for type    3
     new r_m :   0.0654 (alat units)  1.5454 (a.u.) for type    4
     new r_m :   0.0403 (alat units)  0.9524 (a.u.) for type    5

     Check: negative core charge=   -0.000145

     Initial potential from superposition of free atoms

     starting charge  479.99635, renormalised to  480.00000


     %%%%%%%%%%%%%%%%%%%%%%%%%%%%%%%%%%%%%%%%%%%%%%%%%%%%%%%%%%%%%%%%%%%%%%%%
     %                                                                      %
     % You are using vdW-DF, which was implemented by the Thonhauser group. %
     % Please cite the following two papers that made this development      %
     % possible and the two reviews that describe the various versions:     %
     %                                                                      %
     %   T. Thonhauser et al., PRL 115, 136402 (2015).                      %
     %   T. Thonhauser et al., PRB 76, 125112 (2007).                       %
     %   K. Berland et al., Rep. Prog. Phys. 78, 066501 (2015).             %
     %   D.C. Langreth et al., J. Phys.: Condens. Matter 21, 084203 (2009). %
     %                                                                      %
     %                                                                      %
     % If you are calculating the stress with vdW-DF, please also cite:     %
     %                                                                      %
     %   R. Sabatini et al., J. Phys.: Condens. Matter 24, 424209 (2012).   %
     %                                                                      %
     %%%%%%%%%%%%%%%%%%%%%%%%%%%%%%%%%%%%%%%%%%%%%%%%%%%%%%%%%%%%%%%%%%%%%%%%


     Starting wfcs are  420 randomized atomic wfcs

     total cpu time spent up to now is      110.5 secs

     Self-consistent Calculation

     iteration #  1     ecut=   100.00 Ry     beta= 0.70
     Davidson diagonalization with overlap
     ethr =  1.00E-02,  avg # of iterations =  5.0

     total cpu time spent up to now is      375.7 secs

     total energy              =   -1987.87890547 Ry
     Harris-Foulkes estimate   =   -1999.05429777 Ry
     estimated scf accuracy    <      28.83084800 Ry

     total magnetization       =     8.00 Bohr mag/cell
     absolute magnetization    =     9.19 Bohr mag/cell

     iteration #  2     ecut=   100.00 Ry     beta= 0.70
     Davidson diagonalization with overlap
     ethr =  6.01E-03,  avg # of iterations =  2.0

     total cpu time spent up to now is      544.3 secs

     total energy              =   -1993.40577448 Ry
     Harris-Foulkes estimate   =   -1998.21786310 Ry
     estimated scf accuracy    <      22.23190894 Ry

     total magnetization       =     8.00 Bohr mag/cell
     absolute magnetization    =     8.33 Bohr mag/cell

     iteration #  3     ecut=   100.00 Ry     beta= 0.70
     Davidson diagonalization with overlap
     ethr =  4.63E-03,  avg # of iterations =  1.0

     total cpu time spent up to now is      695.0 secs

     total energy              =   -1992.26275125 Ry
     Harris-Foulkes estimate   =   -1994.18520859 Ry
     estimated scf accuracy    <       6.36055255 Ry

     total magnetization       =     8.00 Bohr mag/cell
     absolute magnetization    =     8.28 Bohr mag/cell

     iteration #  4     ecut=   100.00 Ry     beta= 0.70
     Davidson diagonalization with overlap
     ethr =  1.33E-03,  avg # of iterations =  7.0

     total cpu time spent up to now is      874.4 secs

     total energy              =   -1992.48075647 Ry
     Harris-Foulkes estimate   =   -1994.63438292 Ry
     estimated scf accuracy    <      25.02888996 Ry

     total magnetization       =     8.00 Bohr mag/cell
     absolute magnetization    =     8.32 Bohr mag/cell

     iteration #  5     ecut=   100.00 Ry     beta= 0.70
     Davidson diagonalization with overlap
     ethr =  1.33E-03,  avg # of iterations =  1.0

     total cpu time spent up to now is     1023.9 secs

     total energy              =   -1993.17205663 Ry
     Harris-Foulkes estimate   =   -1993.35442231 Ry
     estimated scf accuracy    <       0.61144503 Ry

     total magnetization       =     8.00 Bohr mag/cell
     absolute magnetization    =     8.34 Bohr mag/cell

     iteration #  6     ecut=   100.00 Ry     beta= 0.70
     Davidson diagonalization with overlap
     ethr =  1.27E-04,  avg # of iterations =  5.0

     total cpu time spent up to now is     1197.8 secs

     total energy              =   -1993.30329500 Ry
     Harris-Foulkes estimate   =   -1993.35853964 Ry
     estimated scf accuracy    <       1.54289305 Ry

     total magnetization       =     8.00 Bohr mag/cell
     absolute magnetization    =     8.33 Bohr mag/cell

     iteration #  7     ecut=   100.00 Ry     beta= 0.70
     Davidson diagonalization with overlap
     ethr =  1.27E-04,  avg # of iterations =  1.0

     total cpu time spent up to now is     1342.7 secs

     total energy              =   -1993.20839506 Ry
     Harris-Foulkes estimate   =   -1993.32356214 Ry
     estimated scf accuracy    <       1.10553246 Ry

     total magnetization       =     8.00 Bohr mag/cell
     absolute magnetization    =     8.33 Bohr mag/cell

     iteration #  8     ecut=   100.00 Ry     beta= 0.70
     Davidson diagonalization with overlap
     ethr =  1.27E-04,  avg # of iterations =  1.0

     total cpu time spent up to now is     1494.4 secs

     total energy              =   -1993.23348827 Ry
     Harris-Foulkes estimate   =   -1993.25385068 Ry
     estimated scf accuracy    <       0.06435071 Ry

     total magnetization       =     8.00 Bohr mag/cell
     absolute magnetization    =     8.33 Bohr mag/cell

     iteration #  9     ecut=   100.00 Ry     beta= 0.70
     Davidson diagonalization with overlap
     ethr =  1.34E-05,  avg # of iterations =  6.0

     total cpu time spent up to now is     1671.6 secs

     total energy              =   -1993.22260679 Ry
     Harris-Foulkes estimate   =   -1993.25184158 Ry
     estimated scf accuracy    <       0.23846516 Ry

     total magnetization       =     8.00 Bohr mag/cell
     absolute magnetization    =     8.33 Bohr mag/cell

     iteration # 10     ecut=   100.00 Ry     beta= 0.70
     Davidson diagonalization with overlap
     ethr =  1.34E-05,  avg # of iterations =  3.0

     total cpu time spent up to now is     1827.4 secs

     total energy              =   -1993.23304455 Ry
     Harris-Foulkes estimate   =   -1993.23534548 Ry
     estimated scf accuracy    <       0.01751418 Ry

     total magnetization       =     8.00 Bohr mag/cell
     absolute magnetization    =     8.30 Bohr mag/cell

     iteration # 11     ecut=   100.00 Ry     beta= 0.70
     Davidson diagonalization with overlap
     ethr =  3.65E-06,  avg # of iterations =  3.0

     total cpu time spent up to now is     1981.1 secs

     total energy              =   -1993.23233135 Ry
     Harris-Foulkes estimate   =   -1993.23577695 Ry
     estimated scf accuracy    <       0.03528387 Ry

     total magnetization       =     8.00 Bohr mag/cell
     absolute magnetization    =     8.30 Bohr mag/cell

     iteration # 12     ecut=   100.00 Ry     beta= 0.70
     Davidson diagonalization with overlap
     ethr =  3.65E-06,  avg # of iterations =  3.0

     total cpu time spent up to now is     2135.7 secs

     total energy              =   -1993.23333837 Ry
     Harris-Foulkes estimate   =   -1993.23379494 Ry
     estimated scf accuracy    <       0.00307484 Ry

     total magnetization       =     8.00 Bohr mag/cell
     absolute magnetization    =     8.28 Bohr mag/cell

     iteration # 13     ecut=   100.00 Ry     beta= 0.70
     Davidson diagonalization with overlap
     ethr =  6.41E-07,  avg # of iterations =  6.0

     total cpu time spent up to now is     2305.3 secs

     total energy              =   -1993.23367490 Ry
     Harris-Foulkes estimate   =   -1993.23358358 Ry
     estimated scf accuracy    <       0.00083729 Ry

     total magnetization       =     8.00 Bohr mag/cell
     absolute magnetization    =     8.27 Bohr mag/cell

     iteration # 14     ecut=   100.00 Ry     beta= 0.70
     Davidson diagonalization with overlap
     ethr =  1.74E-07,  avg # of iterations =  4.5

     total cpu time spent up to now is     2468.3 secs

     total energy              =   -1993.23378149 Ry
     Harris-Foulkes estimate   =   -1993.23374649 Ry
     estimated scf accuracy    <       0.00039729 Ry

     total magnetization       =     8.00 Bohr mag/cell
     absolute magnetization    =     8.26 Bohr mag/cell

     iteration # 15     ecut=   100.00 Ry     beta= 0.70
     Davidson diagonalization with overlap
     ethr =  8.28E-08,  avg # of iterations =  5.0

     total cpu time spent up to now is     2627.6 secs

     total energy              =   -1993.23378211 Ry
     Harris-Foulkes estimate   =   -1993.23385376 Ry
     estimated scf accuracy    <       0.00122993 Ry

     total magnetization       =     8.00 Bohr mag/cell
     absolute magnetization    =     8.26 Bohr mag/cell

     iteration # 16     ecut=   100.00 Ry     beta= 0.70
     Davidson diagonalization with overlap
     ethr =  8.28E-08,  avg # of iterations =  4.0

     total cpu time spent up to now is     2786.1 secs

     total energy              =   -1993.23383950 Ry
     Harris-Foulkes estimate   =   -1993.23383995 Ry
     estimated scf accuracy    <       0.00026479 Ry

     total magnetization       =     8.00 Bohr mag/cell
     absolute magnetization    =     8.26 Bohr mag/cell

     iteration # 17     ecut=   100.00 Ry     beta= 0.70
     Davidson diagonalization with overlap
     ethr =  5.52E-08,  avg # of iterations =  4.0

     total cpu time spent up to now is     2939.5 secs

     total energy              =   -1993.23386180 Ry
     Harris-Foulkes estimate   =   -1993.23385254 Ry
     estimated scf accuracy    <       0.00005316 Ry

     total magnetization       =     8.00 Bohr mag/cell
     absolute magnetization    =     8.26 Bohr mag/cell

     iteration # 18     ecut=   100.00 Ry     beta= 0.70
     Davidson diagonalization with overlap
     ethr =  1.11E-08,  avg # of iterations =  5.0

     total cpu time spent up to now is     3105.7 secs

     total energy              =   -1993.23386428 Ry
     Harris-Foulkes estimate   =   -1993.23386860 Ry
     estimated scf accuracy    <       0.00002931 Ry

     total magnetization       =     8.00 Bohr mag/cell
     absolute magnetization    =     8.26 Bohr mag/cell

     iteration # 19     ecut=   100.00 Ry     beta= 0.70
     Davidson diagonalization with overlap
     ethr =  6.11E-09,  avg # of iterations =  4.0

     total cpu time spent up to now is     3267.6 secs

     total energy              =   -1993.23386586 Ry
     Harris-Foulkes estimate   =   -1993.23386647 Ry
     estimated scf accuracy    <       0.00002509 Ry

     total magnetization       =     8.00 Bohr mag/cell
     absolute magnetization    =     8.26 Bohr mag/cell

     iteration # 20     ecut=   100.00 Ry     beta= 0.70
     Davidson diagonalization with overlap
     ethr =  5.23E-09,  avg # of iterations =  4.0

     total cpu time spent up to now is     3430.2 secs

     total energy              =   -1993.23387117 Ry
     Harris-Foulkes estimate   =   -1993.23386812 Ry
     estimated scf accuracy    <       0.00000849 Ry

     total magnetization       =     8.00 Bohr mag/cell
     absolute magnetization    =     8.26 Bohr mag/cell

     iteration # 21     ecut=   100.00 Ry     beta= 0.70
     Davidson diagonalization with overlap
     ethr =  1.77E-09,  avg # of iterations =  4.0

     total cpu time spent up to now is     3629.9 secs

     total energy              =   -1993.23386986 Ry
     Harris-Foulkes estimate   =   -1993.23387303 Ry
     estimated scf accuracy    <       0.00000980 Ry

     total magnetization       =     8.00 Bohr mag/cell
     absolute magnetization    =     8.26 Bohr mag/cell

     iteration # 22     ecut=   100.00 Ry     beta= 0.70
     Davidson diagonalization with overlap
     ethr =  1.77E-09,  avg # of iterations =  4.0

     total cpu time spent up to now is     3809.0 secs

     total energy              =   -1993.23387234 Ry
     Harris-Foulkes estimate   =   -1993.23387088 Ry
     estimated scf accuracy    <       0.00000599 Ry

     total magnetization       =     8.00 Bohr mag/cell
     absolute magnetization    =     8.26 Bohr mag/cell

     iteration # 23     ecut=   100.00 Ry     beta= 0.70
     Davidson diagonalization with overlap
     ethr =  1.25E-09,  avg # of iterations =  4.5

     total cpu time spent up to now is     3996.6 secs

     total energy              =   -1993.23387289 Ry
     Harris-Foulkes estimate   =   -1993.23387347 Ry
     estimated scf accuracy    <       0.00000417 Ry

     total magnetization       =     8.00 Bohr mag/cell
     absolute magnetization    =     8.26 Bohr mag/cell

     iteration # 24     ecut=   100.00 Ry     beta= 0.70
     Davidson diagonalization with overlap
     ethr =  8.68E-10,  avg # of iterations =  4.0

     total cpu time spent up to now is     4187.5 secs

     total energy              =   -1993.23387312 Ry
     Harris-Foulkes estimate   =   -1993.23387367 Ry
     estimated scf accuracy    <       0.00000102 Ry

     total magnetization       =     8.00 Bohr mag/cell
     absolute magnetization    =     8.26 Bohr mag/cell

     iteration # 25     ecut=   100.00 Ry     beta= 0.70
     Davidson diagonalization with overlap
     ethr =  2.13E-10,  avg # of iterations =  4.5

     total cpu time spent up to now is     4389.6 secs

     total energy              =   -1993.23387383 Ry
     Harris-Foulkes estimate   =   -1993.23387345 Ry
     estimated scf accuracy    <       0.00000172 Ry

     total magnetization       =     8.00 Bohr mag/cell
     absolute magnetization    =     8.26 Bohr mag/cell

     iteration # 26     ecut=   100.00 Ry     beta= 0.70
     Davidson diagonalization with overlap
     ethr =  2.13E-10,  avg # of iterations =  5.0
 
     Magnetic moment per site:
     atom:    1    charge:    0.8317    magn:    0.0052    constr:    0.0000
     atom:    2    charge:    0.8318    magn:    0.0084    constr:    0.0000
     atom:    3    charge:    0.8356    magn:    0.0045    constr:    0.0000
     atom:    4    charge:    0.8354    magn:    0.0041    constr:    0.0000
     atom:    5    charge:    0.8321    magn:    0.0059    constr:    0.0000
     atom:    6    charge:    0.8325    magn:    0.0057    constr:    0.0000
     atom:    7    charge:    0.8331    magn:    0.0081    constr:    0.0000
     atom:    8    charge:    0.8304    magn:    0.0083    constr:    0.0000
     atom:    9    charge:    0.8246    magn:    0.0061    constr:    0.0000
     atom:   10    charge:    0.8235    magn:    0.0058    constr:    0.0000
     atom:   11    charge:    0.8233    magn:    0.0051    constr:    0.0000
     atom:   12    charge:    0.8249    magn:    0.0061    constr:    0.0000
     atom:   13    charge:    0.8268    magn:    0.0054    constr:    0.0000
     atom:   14    charge:    0.8236    magn:    0.0050    constr:    0.0000
     atom:   15    charge:    0.8311    magn:    0.0066    constr:    0.0000
     atom:   16    charge:    0.8306    magn:    0.0066    constr:    0.0000
     atom:   17    charge:    0.8337    magn:    0.0063    constr:    0.0000
     atom:   18    charge:    0.8334    magn:    0.0066    constr:    0.0000
     atom:   19    charge:    0.8362    magn:    0.0038    constr:    0.0000
     atom:   20    charge:    0.8338    magn:    0.0038    constr:    0.0000
     atom:   21    charge:    0.8074    magn:   -0.0016    constr:    0.0000
     atom:   22    charge:    0.8083    magn:   -0.0015    constr:    0.0000
     atom:   23    charge:    0.8081    magn:   -0.0014    constr:    0.0000
     atom:   24    charge:    0.8105    magn:   -0.0019    constr:    0.0000
     atom:   25    charge:    0.8322    magn:    0.0082    constr:    0.0000
     atom:   26    charge:    0.8315    magn:    0.0055    constr:    0.0000
     atom:   27    charge:    0.8351    magn:    0.0033    constr:    0.0000
     atom:   28    charge:    0.8342    magn:    0.0038    constr:    0.0000
     atom:   29    charge:    0.8344    magn:    0.0065    constr:    0.0000
     atom:   30    charge:    0.8348    magn:    0.0062    constr:    0.0000
     atom:   31    charge:    0.8324    magn:    0.0051    constr:    0.0000
     atom:   32    charge:    0.8305    magn:    0.0083    constr:    0.0000
     atom:   33    charge:    0.8232    magn:    0.0052    constr:    0.0000
     atom:   34    charge:    0.8241    magn:    0.0058    constr:    0.0000
     atom:   35    charge:    0.8247    magn:    0.0060    constr:    0.0000
     atom:   36    charge:    0.8224    magn:    0.0051    constr:    0.0000
     atom:   37    charge:    0.8328    magn:    0.0066    constr:    0.0000
     atom:   38    charge:    0.8326    magn:    0.0073    constr:    0.0000
     atom:   39    charge:    0.8321    magn:    0.0069    constr:    0.0000
     atom:   40    charge:    0.8245    magn:    0.0050    constr:    0.0000
     atom:   41    charge:    0.8337    magn:    0.0066    constr:    0.0000
     atom:   42    charge:    0.8317    magn:    0.0057    constr:    0.0000
     atom:   43    charge:    0.8359    magn:    0.0044    constr:    0.0000
     atom:   44    charge:    0.8347    magn:    0.0042    constr:    0.0000
     atom:   45    charge:    0.8112    magn:   -0.0011    constr:    0.0000
     atom:   46    charge:    0.8118    magn:   -0.0004    constr:    0.0000
     atom:   47    charge:    0.8076    magn:   -0.0014    constr:    0.0000
     atom:   48    charge:    0.8084    magn:   -0.0016    constr:    0.0000
     atom:   49    charge:    0.8261    magn:    0.0036    constr:    0.0000
     atom:   50    charge:    0.8344    magn:    0.0004    constr:    0.0000
     atom:   51    charge:    0.8334    magn:    0.0002    constr:    0.0000
     atom:   52    charge:    0.8325    magn:    0.0004    constr:    0.0000
     atom:   53    charge:    0.8372    magn:    0.0010    constr:    0.0000
     atom:   54    charge:    0.8288    magn:    0.0036    constr:    0.0000
     atom:   55    charge:    0.8287    magn:    0.0025    constr:    0.0000
     atom:   56    charge:    0.8309    magn:   -0.0001    constr:    0.0000
     atom:   57    charge:    0.4913    magn:   -0.0011    constr:    0.0000
     atom:   58    charge:    0.4928    magn:   -0.0011    constr:    0.0000
     atom:   59    charge:    0.4893    magn:   -0.0010    constr:    0.0000
     atom:   60    charge:    0.4895    magn:   -0.0011    constr:    0.0000
     atom:   61    charge:    0.4928    magn:   -0.0009    constr:    0.0000
     atom:   62    charge:    0.4909    magn:   -0.0009    constr:    0.0000
     atom:   63    charge:    0.4934    magn:   -0.0010    constr:    0.0000
     atom:   64    charge:    0.4926    magn:   -0.0009    constr:    0.0000
     atom:   65    charge:    0.4907    magn:   -0.0008    constr:    0.0000
     atom:   66    charge:    0.4905    magn:   -0.0008    constr:    0.0000
     atom:   67    charge:    0.5096    magn:   -0.0006    constr:    0.0000
     atom:   68    charge:    0.5096    magn:   -0.0006    constr:    0.0000
     atom:   69    charge:    0.4904    magn:   -0.0010    constr:    0.0000
     atom:   70    charge:    0.4900    magn:   -0.0012    constr:    0.0000
     atom:   71    charge:    0.4932    magn:   -0.0010    constr:    0.0000
     atom:   72    charge:    0.4904    magn:   -0.0009    constr:    0.0000
     atom:   73    charge:    0.4933    magn:   -0.0009    constr:    0.0000
     atom:   74    charge:    0.4936    magn:   -0.0009    constr:    0.0000
     atom:   75    charge:    0.5084    magn:   -0.0004    constr:    0.0000
     atom:   76    charge:    0.5105    magn:   -0.0002    constr:    0.0000
     atom:   77    charge:    0.5081    magn:   -0.0005    constr:    0.0000
     atom:   78    charge:    0.4904    magn:   -0.0009    constr:    0.0000
     atom:   79    charge:    0.4891    magn:   -0.0010    constr:    0.0000
     atom:   80    charge:    0.4899    magn:   -0.0011    constr:    0.0000
     atom:   81    charge:    0.4877    magn:    0.0047    constr:    0.0000
     atom:   82    charge:    0.5159    magn:    0.0067    constr:    0.0000
     atom:   83    charge:    0.5147    magn:    0.0065    constr:    0.0000
     atom:   84    charge:    0.5179    magn:    0.0070    constr:    0.0000
     atom:   85    charge:    0.5260    magn:    0.0068    constr:    0.0000
     atom:   86    charge:    0.4894    magn:    0.0046    constr:    0.0000
     atom:   87    charge:    0.4899    magn:    0.0052    constr:    0.0000
     atom:   88    charge:    0.5143    magn:    0.0067    constr:    0.0000
     atom:   89    charge:    2.4975    magn:    0.0106    constr:    0.0000
     atom:   90    charge:    2.4981    magn:    0.0110    constr:    0.0000
     atom:   91    charge:    2.5016    magn:    0.0102    constr:    0.0000
     atom:   92    charge:    2.4978    magn:    0.0106    constr:    0.0000
     atom:   93    charge:    2.4991    magn:    0.0108    constr:    0.0000
     atom:   94    charge:    2.4973    magn:    0.0111    constr:    0.0000
     atom:   95    charge:    2.5008    magn:    0.0104    constr:    0.0000
     atom:   96    charge:    2.4978    magn:    0.0107    constr:    0.0000
     atom:   97    charge:    7.4638    magn:    1.0896    constr:    0.0000
     atom:   98    charge:    7.4606    magn:    1.0858    constr:    0.0000
     atom:   99    charge:    7.4695    magn:    1.0906    constr:    0.0000
     atom:  100    charge:    7.4640    magn:    1.0929    constr:    0.0000
     atom:  101    charge:    3.0655    magn:    0.0425    constr:    0.0000
     atom:  102    charge:    3.0706    magn:    0.0579    constr:    0.0000
     atom:  103    charge:    3.0594    magn:    0.0466    constr:    0.0000
     atom:  104    charge:    3.0670    magn:    0.0426    constr:    0.0000
     atom:  105    charge:    3.0709    magn:    0.0454    constr:    0.0000
     atom:  106    charge:    3.0595    magn:    0.0493    constr:    0.0000
     atom:  107    charge:    3.0565    magn:    0.0437    constr:    0.0000
     atom:  108    charge:    3.0603    magn:    0.0482    constr:    0.0000
     atom:  109    charge:    3.0594    magn:    0.0458    constr:    0.0000
     atom:  110    charge:    3.0658    magn:    0.0436    constr:    0.0000
     atom:  111    charge:    3.0735    magn:    0.0573    constr:    0.0000
     atom:  112    charge:    3.0684    magn:    0.0577    constr:    0.0000
     atom:  113    charge:    3.0616    magn:    0.0470    constr:    0.0000
     atom:  114    charge:    3.0612    magn:    0.0505    constr:    0.0000
     atom:  115    charge:    3.0687    magn:    0.0473    constr:    0.0000
     atom:  116    charge:    3.0677    magn:    0.0399    constr:    0.0000
     atom:  117    charge:    3.0915    magn:    0.0536    constr:    0.0000
     atom:  118    charge:    3.0656    magn:    0.0567    constr:    0.0000
     atom:  119    charge:    3.0650    magn:    0.0557    constr:    0.0000
     atom:  120    charge:    3.0642    magn:    0.0554    constr:    0.0000
     atom:  121    charge:    3.0653    magn:    0.0528    constr:    0.0000
     atom:  122    charge:    3.1010    magn:    0.0490    constr:    0.0000
     atom:  123    charge:    3.0933    magn:    0.0510    constr:    0.0000
     atom:  124    charge:    3.0632    magn:    0.0585    constr:    0.0000

     total cpu time spent up to now is     4602.8 secs

     End of self-consistent calculation

 ------ SPIN UP ------------


          k = 0.0000 0.0000 0.0000 ( 91663 PWs)   bands (ev):

   -22.4304 -22.3345 -21.9489 -21.6412 -21.5718 -21.5636 -21.5562 -21.5148
   -21.3162 -21.2519 -21.2043 -20.8160 -20.8065 -20.8017 -20.7529 -20.7217
   -19.1079 -18.9742 -18.8307 -18.6972 -18.6862 -18.6790 -18.6758 -18.6670
   -18.5671 -18.5331 -18.5175 -18.4696 -18.4275 -18.4219 -18.4015 -18.3287
   -15.1125 -15.0874 -15.0609 -15.0437 -15.0049 -14.9922 -14.9775 -14.9436
   -14.2101 -14.1766 -14.0707 -14.0556 -14.0184 -13.7579 -13.6977 -13.6572
   -12.0014 -11.8425 -11.7502 -11.7202 -11.5383 -11.4544 -11.3596 -11.3210
   -11.2000 -11.1266 -11.0192 -10.9875 -10.9740 -10.9191 -10.8735 -10.8562
   -10.2060 -10.0968  -9.9260  -9.9110  -9.7866  -9.7158  -9.5954  -9.4861
    -8.9951  -8.8475  -8.8051  -8.6967  -8.6602  -8.4765  -8.2711  -8.1599
    -8.0328  -7.7451  -7.6298  -7.5842  -7.4992  -7.4004  -7.3329  -7.3038
    -7.2902  -7.2100  -7.1857  -7.1587  -7.0825  -7.0545  -6.9909  -6.9240
    -6.8941  -6.8674  -6.7637  -6.6243  -6.6048  -6.5457  -6.5193  -6.4889
    -6.3857  -6.3172  -6.2670  -6.2297  -6.1709  -6.0836  -6.0557  -6.0122
    -5.9826  -5.9649  -5.9059  -5.8632  -5.8570  -5.8272  -5.7801  -5.7232
    -5.7113  -5.7001  -5.6857  -5.6642  -5.6299  -5.6243  -5.5812  -5.5510
    -5.5095  -5.4982  -5.4736  -5.4449  -5.4091  -5.3865  -5.3634  -5.2881
    -5.2824  -5.1886  -5.1328  -5.0604  -5.0123  -4.9519  -4.9066  -4.8864
    -4.7996  -4.7270  -4.6891  -4.6615  -4.5744  -4.5022  -4.3945  -4.3660
    -4.2981  -4.2722  -4.2044  -4.1986  -4.1389  -4.0619  -4.0325  -3.9770
    -3.9480  -3.8896  -3.8811  -3.8501  -3.8055  -3.7718  -3.7503  -3.7327
    -3.7153  -3.6498  -3.6352  -3.5638  -3.4353  -3.3889  -3.3214  -3.2625
    -3.1788  -3.1569  -3.0314  -2.9995  -2.8244  -2.6925  -2.6432  -2.6368
    -2.6156  -2.5044  -2.4575  -2.4359  -2.4339  -2.3926  -2.3622  -2.3422
    -2.2974  -2.2627  -2.2438  -2.1412  -2.0504  -1.9827  -1.9511  -1.9488
    -1.8942  -1.8666  -1.8414  -1.8243  -1.7584  -1.7251  -1.7219  -1.6436
    -1.6230  -1.5873  -1.5715  -1.5171  -1.5053  -1.4730  -1.4531  -1.4185
    -1.3980  -1.3711  -1.3268  -1.3171  -1.2901  -1.2781  -1.2337  -1.1893
    -1.1474  -1.1222  -1.0700  -0.9765  -0.8808  -0.8546  -0.7328  -0.6838
    -0.6559  -0.2859  -0.1530  -0.0979   0.4172   0.4682   0.4935   0.5846
     0.7318   0.7594   0.7945   0.8115   1.8799   2.0803   2.1480   2.2660
     2.2878   2.3104   2.4177   2.4577   2.6974   2.7873   2.8597   2.9282
     2.9393   3.0392   3.1614   3.1865   3.5529   4.0377   4.4224   4.4388
     4.5359   4.6151   4.6382   4.6820   4.6982   4.8170   4.8611   4.9564
     5.0615   5.0930   5.1166   5.1655   5.2292   5.2724   5.3195   5.3267
     5.3669   5.4136   5.4562   5.5557   5.6045   5.6454   5.6682   6.0297
     6.1468   6.2320   6.2755   6.4108   6.5457

 ------ SPIN DOWN ----------


          k = 0.0000 0.0000 0.0000 ( 91663 PWs)   bands (ev):

   -22.3255 -22.2325 -21.8481 -21.5564 -21.4897 -21.4779 -21.4727 -21.4304
   -21.2267 -21.1567 -21.1097 -20.7170 -20.7024 -20.6957 -20.6430 -20.6170
   -18.9972 -18.8581 -18.7039 -18.5873 -18.5783 -18.5683 -18.5656 -18.5578
   -18.5323 -18.5015 -18.4857 -18.4376 -18.3973 -18.3916 -18.3722 -18.2990
   -15.0773 -15.0525 -15.0248 -15.0083 -14.9692 -14.9557 -14.9404 -14.9058
   -14.1667 -14.1326 -14.0256 -14.0144 -13.9736 -13.7195 -13.6554 -13.6150
   -11.9549 -11.7964 -11.7093 -11.6769 -11.5004 -11.4133 -11.3195 -11.2788
   -11.1608 -11.0884 -10.9825 -10.9523 -10.9398 -10.8841 -10.8377 -10.8216
   -10.1679 -10.0569  -9.8901  -9.8749  -9.7512  -9.6552  -9.5335  -9.4397
    -8.9644  -8.8183  -8.7737  -8.6624  -8.6275  -8.4414  -8.2292  -8.1238
    -7.9610  -7.6679  -7.5793  -7.5328  -7.4447  -7.3515  -7.2937  -7.2598
    -7.2558  -7.1555  -7.1428  -7.1156  -7.0371  -7.0125  -6.9430  -6.8667
    -6.8435  -6.8070  -6.7055  -6.5716  -6.5453  -6.4893  -6.4610  -6.4286
    -6.3206  -6.2668  -6.2104  -6.1621  -6.1046  -6.0142  -5.9877  -5.9374
    -5.9182  -5.8839  -5.8310  -5.7973  -5.7847  -5.7609  -5.6968  -5.6611
    -5.6266  -5.6078  -5.6034  -5.5892  -5.5529  -5.5487  -5.5119  -5.4670
    -5.4651  -5.4331  -5.3983  -5.3713  -5.3460  -5.3195  -5.3013  -5.2234
    -5.2217  -5.1317  -5.0583  -4.9992  -4.9491  -4.8844  -4.8400  -4.8194
    -4.7237  -4.6532  -4.6073  -4.5827  -4.4955  -4.4233  -4.2920  -4.2822
    -4.2191  -4.1816  -4.1370  -4.1164  -4.0610  -3.9736  -3.9520  -3.8967
    -3.8862  -3.8088  -3.7444  -3.7415  -3.7061  -3.6770  -3.6433  -3.5968
    -3.5581  -3.5248  -3.4876  -3.2871  -3.1202  -3.0328  -2.9695  -2.9185
    -2.9064  -2.8827  -2.8397  -2.5889  -2.5675  -2.4504  -2.4065  -2.3328
    -2.2571  -2.2143  -2.1480  -2.1117  -2.0933  -2.0662  -2.0272  -2.0070
    -1.9750  -1.9057  -1.8677  -1.7987  -1.7678  -1.7368  -1.6930  -1.6743
    -1.6511  -1.6253  -1.6122  -1.5553  -1.5052  -1.4659  -1.4247  -1.2874
    -1.2596  -1.2098  -1.1760  -1.1186  -1.0627  -1.0514  -0.9814  -0.9362
    -0.9178  -0.8396  -0.8101  -0.7438  -0.7053  -0.6832  -0.6232  -0.6191
    -0.5988  -0.5951  -0.5830  -0.5511  -0.5230  -0.4890  -0.4459  -0.3965
    -0.3324   0.0211   0.1827   0.3309   1.2418   1.2481   1.2783   1.3285
     1.4876   1.4962   1.5227   1.5457   1.9751   2.1750   2.2512   2.3523
     2.3845   2.4031   2.5201   2.5661   2.8026   2.8820   2.9605   3.0243
     3.0335   3.1430   3.2615   3.2817   3.5329   4.0142   4.4220   4.4306
     4.5967   4.6790   4.7040   4.7395   4.7720   4.8853   4.9343   5.0269
     5.0916   5.1320   5.1398   5.2053   5.2619   5.3299   5.3664   5.3774
     5.4241   5.4711   5.5084   5.5825   5.6385   5.6686   5.6896   6.0328
     6.1516   6.2316   6.2884   6.4191   6.5574

     the spin up/dw Fermi energies are     0.9617    0.6791 ev

!    total energy              =   -1993.23387395 Ry
     Harris-Foulkes estimate   =   -1993.23387422 Ry
     estimated scf accuracy    <       0.00000093 Ry

     The total energy is the sum of the following terms:

     one-electron contribution =   -2752.21152614 Ry
     hartree contribution      =    1564.96833553 Ry
     xc contribution           =    -604.98159123 Ry
     ewald contribution        =    -203.08104952 Ry
     Dispersion Correction     =      -0.58910050 Ry
     smearing contrib. (-TS)   =       2.66105790 Ry

     total magnetization       =     8.00 Bohr mag/cell
     absolute magnetization    =     8.26 Bohr mag/cell

     convergence has been achieved in  26 iterations

     Forces acting on atoms (cartesian axes, Ry/au):

     atom    1 type  1   force =    -0.01285747    0.00246281   -0.00851797
     atom    2 type  1   force =    -0.02577143   -0.00791750   -0.02696985
     atom    3 type  1   force =     0.00306309    0.01760776   -0.01724961
     atom    4 type  1   force =     0.01180335   -0.01580478   -0.00846530
     atom    5 type  1   force =     0.04661902    0.01169823    0.00820058
     atom    6 type  1   force =     0.01020159    0.00160486    0.00407406
     atom    7 type  1   force =     0.02790249   -0.00652622   -0.02525081
     atom    8 type  1   force =     0.02805601    0.00814835   -0.02109444
     atom    9 type  1   force =     0.00455920    0.02174725    0.00939795
     atom   10 type  1   force =     0.01539663   -0.01260288    0.01388758
     atom   11 type  1   force =    -0.01638924    0.00321983   -0.01095807
     atom   12 type  1   force =    -0.00305652    0.02709282    0.00853180
     atom   13 type  1   force =     0.00560980   -0.01569850    0.01700862
     atom   14 type  1   force =     0.02207168    0.00460409    0.01630977
     atom   15 type  1   force =     0.02700885    0.04825677   -0.07068970
     atom   16 type  1   force =     0.02803797   -0.05137874   -0.07038575
     atom   17 type  1   force =    -0.00834203    0.00667317   -0.01491013
     atom   18 type  1   force =    -0.00848147   -0.00672164   -0.01815901
     atom   19 type  1   force =    -0.01284372   -0.01405621   -0.00731666
     atom   20 type  1   force =    -0.01475111    0.01862072   -0.01151259
     atom   21 type  1   force =    -0.01389976   -0.00699650   -0.00023199
     atom   22 type  1   force =     0.00714061    0.00633885    0.01181592
     atom   23 type  1   force =    -0.00666913    0.00668644    0.01155971
     atom   24 type  1   force =    -0.02704392   -0.00810399    0.04268252
     atom   25 type  1   force =    -0.02979195    0.00628860   -0.02185879
     atom   26 type  1   force =    -0.01853104   -0.00047268   -0.00238868
     atom   27 type  1   force =     0.01648038    0.02030518   -0.01028511
     atom   28 type  1   force =     0.00533309   -0.02243066   -0.01981013
     atom   29 type  1   force =     0.00967696   -0.00864844   -0.02334587
     atom   30 type  1   force =     0.05717388   -0.01245741   -0.01485363
     atom   31 type  1   force =     0.01365678   -0.00117722   -0.00604665
     atom   32 type  1   force =     0.02796572    0.00930717   -0.02589536
     atom   33 type  1   force =     0.01571635   -0.00790728   -0.01147784
     atom   34 type  1   force =     0.01516512   -0.01889413    0.01538679
     atom   35 type  1   force =    -0.00175426   -0.01963884    0.00562715
     atom   36 type  1   force =    -0.01434391   -0.00871748   -0.01047594
     atom   37 type  1   force =    -0.03025245   -0.06342993   -0.08344547
     atom   38 type  1   force =    -0.04405539    0.07798090   -0.08925248
     atom   39 type  1   force =     0.03480582    0.05790465   -0.06620055
     atom   40 type  1   force =    -0.02532827   -0.00298558    0.01461110
     atom   41 type  1   force =    -0.04852610   -0.01241356   -0.00836607
     atom   42 type  1   force =    -0.01142290   -0.00069271    0.00383997
     atom   43 type  1   force =    -0.00242905   -0.01478872   -0.01418523
     atom   44 type  1   force =    -0.01109494    0.01653723   -0.01083377
     atom   45 type  1   force =     0.04692775   -0.01047218    0.06969764
     atom   46 type  1   force =     0.04214228    0.01758039    0.07640986
     atom   47 type  1   force =     0.01190138    0.00991446    0.00159586
     atom   48 type  1   force =    -0.00841799   -0.00846142    0.01297072
     atom   49 type  1   force =    -0.11236011   -0.03938750   -0.02417227
     atom   50 type  1   force =     0.00754439    0.10787420    0.10119214
     atom   51 type  1   force =    -0.01428457    0.09786607    0.09495147
     atom   52 type  1   force =     0.03963213   -0.09306687    0.13056534
     atom   53 type  1   force =    -0.02793960   -0.11109614    0.13683602
     atom   54 type  1   force =    -0.09206518    0.02436624   -0.05399875
     atom   55 type  1   force =     0.06717264    0.02727897   -0.03322415
     atom   56 type  1   force =    -0.00281323   -0.09992430    0.09694918
     atom   57 type  2   force =     0.01105123   -0.00485560    0.01223287
     atom   58 type  2   force =     0.00963572    0.00584707    0.01947588
     atom   59 type  2   force =    -0.01270466    0.00035002   -0.01038373
     atom   60 type  2   force =    -0.01468051    0.00341819   -0.00626809
     atom   61 type  2   force =    -0.01964185   -0.00652664   -0.00251863
     atom   62 type  2   force =    -0.01447235    0.00843795   -0.00084195
     atom   63 type  2   force =     0.01381175    0.00626829    0.00153244
     atom   64 type  2   force =     0.01398467   -0.00686386    0.00272669
     atom   65 type  2   force =    -0.01463265    0.00539140   -0.01370254
     atom   66 type  2   force =    -0.01332701   -0.00754381   -0.01636914
     atom   67 type  2   force =     0.04329573    0.06004795   -0.06465086
     atom   68 type  2   force =     0.04367116   -0.06062858   -0.06346530
     atom   69 type  2   force =     0.01275013   -0.00031533   -0.01145329
     atom   70 type  2   force =    -0.01161620    0.00387101    0.01150873
     atom   71 type  2   force =    -0.01382851   -0.00639296    0.00291034
     atom   72 type  2   force =    -0.01446656    0.00834253   -0.00002764
     atom   73 type  2   force =     0.02182602    0.00356201   -0.00526283
     atom   74 type  2   force =     0.02083579   -0.00597342   -0.00488566
     atom   75 type  2   force =    -0.03739795   -0.06755088   -0.06111455
     atom   76 type  2   force =    -0.04146033    0.08315510   -0.06899682
     atom   77 type  2   force =     0.04125835    0.06153045   -0.06251325
     atom   78 type  2   force =     0.01128849    0.00763569   -0.01506488
     atom   79 type  2   force =     0.01262712    0.00058332   -0.00941947
     atom   80 type  2   force =     0.01424603   -0.00367323   -0.00780616
     atom   81 type  2   force =     0.00182682    0.02123043   -0.01896696
     atom   82 type  2   force =     0.06443092    0.05616996    0.07656847
     atom   83 type  2   force =    -0.06755678    0.04758703    0.06913975
     atom   84 type  2   force =    -0.03892051   -0.03780964    0.09049311
     atom   85 type  2   force =     0.04157184   -0.06099259    0.10350169
     atom   86 type  2   force =    -0.00100369   -0.01864213   -0.02147432
     atom   87 type  2   force =     0.00255527   -0.02028083   -0.02389931
     atom   88 type  2   force =    -0.06502311   -0.04706396    0.06896563
     atom   89 type  3   force =     0.01085601   -0.00096215   -0.00224384
     atom   90 type  3   force =     0.00034223   -0.00141211   -0.01755123
     atom   91 type  3   force =    -0.01052871    0.00087357   -0.01447152
     atom   92 type  3   force =    -0.00817435    0.00092685   -0.01263520
     atom   93 type  3   force =     0.00919528   -0.00215956   -0.01017049
     atom   94 type  3   force =     0.01545905    0.00373709    0.00060051
     atom   95 type  3   force =    -0.01846573    0.00300290   -0.00102841
     atom   96 type  3   force =     0.00102866    0.00244452   -0.01544777
     atom   97 type  4   force =     0.00569658    0.02279163    0.00097892
     atom   98 type  4   force =    -0.00568741   -0.01761988    0.00580945
     atom   99 type  4   force =     0.02056245    0.00479180   -0.00490530
     atom  100 type  4   force =     0.00091978   -0.01080725    0.00569453
     atom  101 type  5   force =     0.01878427   -0.00485421   -0.01037801
     atom  102 type  5   force =     0.01214593    0.12651189    0.06397859
     atom  103 type  5   force =    -0.02025686   -0.00734299   -0.00243075
     atom  104 type  5   force =    -0.02260321   -0.00230482   -0.01287052
     atom  105 type  5   force =    -0.01339768   -0.01390855    0.00679703
     atom  106 type  5   force =     0.00342032    0.00075831    0.01622748
     atom  107 type  5   force =    -0.00728505   -0.01549434    0.00964946
     atom  108 type  5   force =     0.01668214    0.01227534    0.01571192
     atom  109 type  5   force =     0.02206220    0.00497592   -0.00393958
     atom  110 type  5   force =     0.02169590    0.00792845   -0.00906293
     atom  111 type  5   force =    -0.02730006    0.17367076    0.08155833
     atom  112 type  5   force =    -0.04602337   -0.17380530    0.07894707
     atom  113 type  5   force =    -0.01806085    0.01102654    0.01692876
     atom  114 type  5   force =    -0.00805125    0.00295415    0.01944020
     atom  115 type  5   force =     0.00689476    0.01724721    0.00975457
     atom  116 type  5   force =    -0.01787517   -0.01103466    0.00045760
     atom  117 type  5   force =     0.04724453    0.18901731   -0.07910927
     atom  118 type  5   force =     0.00840582    0.00931642    0.00366857
     atom  119 type  5   force =    -0.00363758    0.00689415   -0.00004800
     atom  120 type  5   force =    -0.02153555   -0.00432576   -0.00092645
     atom  121 type  5   force =     0.01691383   -0.01306941   -0.00150098
     atom  122 type  5   force =     0.06816150   -0.17658328   -0.09285532
     atom  123 type  5   force =    -0.04851869   -0.12543159   -0.07786580
     atom  124 type  5   force =    -0.01225228   -0.00343996    0.00099505

     Total force =     0.774141     Total SCF correction =     0.002155

     BFGS Geometry Optimization

     number of scf cycles    =   1
     number of bfgs steps    =   0

     energy   new            =   -1993.2338739537 Ry

     new trust radius        =       0.2108310997 bohr
     new conv_thr            =       0.0000010000 Ry


ATOMIC_POSITIONS (crystal)
C             0.2876599490        0.9701540661        0.5215452815
C             0.0372631960        0.0307714455        0.0209189167
C             0.3907474464        0.0125140174        0.5456035580
C             0.1407355264        0.9870761680        0.0457099946
C             0.4538953811        0.9706963095        0.6507933714
C             0.2029555014        0.0284208136        0.1501028346
C             0.2093380311        0.5294282340        0.5250834556
C             0.4597124230        0.4717533093        0.0268175301
C             0.2453387326        0.6142499316        0.6069190421
C             0.4974835292        0.3881444643        0.1093322803
C             0.2487722142        0.8893420543        0.6026386039
C             0.0009476600        0.1133768091        0.1046864309
C             0.4082303229        0.8887196585        0.7284280297
C             0.1608842563        0.1097415462        0.2286520355
C             0.0899386237        0.6110220933        0.7237111236
C             0.3420104561        0.3894619876        0.2257687785
C             0.0465580292        0.5253609754        0.6505440529
C             0.2972820830        0.4744269764        0.1518187195
C             0.1076136570        0.4836760538        0.5497391552
C             0.3571970121        0.5164428200        0.0500450437
C             0.4327216112        0.0990233622        0.4666090514
C             0.1818302322        0.8999878484        0.9662805794
C             0.0671066297        0.3947565362        0.4712713836
C             0.3149386392        0.6038295653        0.9713053650
C             0.7869308574        0.9703157253        0.5208581619
C             0.5375926159        0.0310860268        0.0221849709
C             0.8913217301        0.0126279970        0.5459622652
C             0.6404511016        0.9867961907        0.0451256781
C             0.9523025993        0.9698365594        0.6491685698
C             0.7049254022        0.0278266112        0.1491279632
C             0.7087542216        0.5296542567        0.5260725669
C             0.9597051024        0.4718022751        0.0265702581
C             0.7457912821        0.6129968772        0.6058438332
C             0.9974751384        0.3878786272        0.1094094973
C             0.7494070428        0.8883761595        0.6034928264
C             0.5004522147        0.1118636420        0.1037074363
C             0.9066186424        0.8867027637        0.7232541373
C             0.6579861248        0.1128420887        0.2232150470
C             0.5902727622        0.6114297653        0.7239423376
C             0.8398319247        0.3915068442        0.2301465456
C             0.5448637655        0.5245544640        0.6508811053
C             0.7971782369        0.4746817294        0.1529517781
C             0.6080479176        0.4836451017        0.5493853890
C             0.8573523599        0.5163547819        0.0500800061
C             0.9353610898        0.0988764972        0.4702107802
C             0.6833718832        0.9004628605        0.9696074934
C             0.5678821053        0.3948929362        0.4707581948
C             0.8156989491        0.6038144621        0.9697750576
C             0.5588907992        0.0043926781        0.6854790063
C             0.9641230960        1.0012672326        0.9180709058
C             0.2804095487        0.4992093380        0.4240844797
C             0.5329534290        0.5026584524        0.9273077739
C             0.7133099940        0.0013236244        0.4195047454
C             0.8100266257        0.9920845972        0.1825397918
C             0.4402642821        0.4863536748        0.6838887888
C             0.0311268338        0.5023686914        0.9255773719
H             0.2376031019        0.9993698264        0.4437430544
H             0.4869639933        0.0029390684        0.9445021063
H             0.0315156661        0.9988197903        0.6729851854
H             0.2817129154        0.9988094360        0.1722791616
H             0.3218074900        0.6502302162        0.5925052780
H             0.0743548103        0.3532075463        0.0949846351
H             0.1707398838        0.8553878671        0.5886389285
H             0.4229163204        0.1474419671        0.0900264385
H             0.4527379722        0.8554008142        0.8080552502
H             0.2056597207        0.1427842357        0.3079539067
H             0.0455004672        0.6454813306        0.8032781543
H             0.2981664648        0.3549641346        0.3057822169
H             0.2194807886        0.5051876759        0.1746740978
H             0.7582192455        0.5010585699        0.4498747574
H             0.8220585716        0.6502358652        0.5927848973
H             0.5743558183        0.3532035143        0.0950265763
H             0.6710726395        0.8552735129        0.5882889375
H             0.9231990915        0.1474795928        0.0896343637
H             0.9517302114        0.8523186325        0.8056132922
H             0.7044209223        0.1466167251        0.3052433156
H             0.5454162586        0.6455439736        0.8033882521
H             0.7968415536        0.3578486469        0.3082750827
H             0.9691974900        0.4932556482        0.6730168496
H             0.7195475067        0.5050457876        0.1748619432
H             0.6044635234        0.0680730936        0.6331241059
H             0.9871341807        0.9378964661        0.8488006627
H             0.2574371289        0.4339817935        0.3563020461
H             0.5081318945        0.5674443509        0.8582128520
H             0.7379581398        0.0645847534        0.3502708594
H             0.8536503994        0.9288042756        0.1310449642
H             0.3984737246        0.4206300321        0.6323050652
H             0.0070081785        0.5670543090        0.8571050780
N             0.3088942710        0.8512123444        0.7047124308
N             0.0607270298        0.1487973312        0.2051480229
N             0.1860829103        0.6503469129        0.7050926436
N             0.4384522567        0.3509671641        0.2073902236
N             0.8088165668        0.8511617477        0.7043041683
N             0.5613837161        0.1490149111        0.2060829293
N             0.6857606547        0.6504368878        0.7057850319
N             0.9388390479        0.3510312933        0.2072453618
Ni            0.2472439695        0.7524490622        0.8363764196
Ni            0.4997367813        0.2472544706        0.3394772159
Ni            0.7478675067        0.7516884778        0.8360733521
Ni            1.0000162585        0.2475423389        0.3394712970
O             0.1235631325        0.3474838852        0.3823384803
O             0.3717819285        0.6563227694        0.8845872204
O             0.3767705480        0.1471967215        0.3770528039
O             0.1241294759        0.8522546098        0.8755981032
O             0.4725084453        0.3555722931        0.4833440813
O             0.2212969427        0.6414470424        0.9807127973
O             0.0285407766        0.1345032853        0.4815749961
O             0.2774066361        0.8632766954        0.9802082434
O             0.6237088738        0.3478992580        0.3826700916
O             0.8721175717        0.6513120172        0.8808252132
O             0.8765512414        0.1548454710        0.3813786653
O             0.6232245129        0.8450078439        0.8803271722
O             0.9723206197        0.3566259273        0.4838659164
O             0.7208145321        0.6415398279        0.9808782683
O             0.5291408970        0.1358867820        0.4815804095
O             0.7759300370        0.8622917298        0.9794225687
O             0.6139630087        0.9737819407        0.7748594732
O             0.8762661330        0.0387306660        0.8984099499
O             0.3670560300        0.5390203130        0.4046415276
O             0.6172098500        0.4639542148        0.9066582830
O             0.6266883054        0.9652217512        0.3971276918
O             0.8660472299        0.0230204604        0.2725954827
O             0.3869259328        0.5197488786        0.7714385185
O             0.1176054746        0.4639926444        0.9067582500



     Writing output data file /nfs/hpc/share/gantzlen/NiPyC2_relax_sc211_meta_functionalized_CH-O_vdw-df2_relax.save/
     NEW-OLD atomic charge density approx. for the potential

     Check: negative core charge=   -0.000145

     total cpu time spent up to now is     4675.5 secs

     Self-consistent Calculation

     iteration #  1     ecut=   100.00 Ry     beta= 0.70
     Davidson diagonalization with overlap
     ethr =  1.00E-06,  avg # of iterations =  8.5

     total cpu time spent up to now is     5394.3 secs

     total energy              =   -1993.58133445 Ry
     Harris-Foulkes estimate   =   -1993.60577172 Ry
     estimated scf accuracy    <       0.11267931 Ry

     total magnetization       =     8.00 Bohr mag/cell
     absolute magnetization    =     8.26 Bohr mag/cell

     iteration #  2     ecut=   100.00 Ry     beta= 0.70
     Davidson diagonalization with overlap
     ethr =  2.35E-05,  avg # of iterations =  2.5

     total cpu time spent up to now is     5552.0 secs

     total energy              =   -1993.58238632 Ry
     Harris-Foulkes estimate   =   -1993.59220490 Ry
     estimated scf accuracy    <       0.04041063 Ry

     total magnetization       =     8.00 Bohr mag/cell
     absolute magnetization    =     8.27 Bohr mag/cell

     iteration #  3     ecut=   100.00 Ry     beta= 0.70
     Davidson diagonalization with overlap
     ethr =  8.42E-06,  avg # of iterations =  2.0

     total cpu time spent up to now is     5710.7 secs

     total energy              =   -1993.57978240 Ry
     Harris-Foulkes estimate   =   -1993.59616794 Ry
     estimated scf accuracy    <       0.18005653 Ry

     total magnetization       =     8.00 Bohr mag/cell
     absolute magnetization    =     8.27 Bohr mag/cell

     iteration #  4     ecut=   100.00 Ry     beta= 0.70
     Davidson diagonalization with overlap
     ethr =  8.42E-06,  avg # of iterations =  2.0

     total cpu time spent up to now is     5870.8 secs

     total energy              =   -1993.58761506 Ry
     Harris-Foulkes estimate   =   -1993.59034880 Ry
     estimated scf accuracy    <       0.02710888 Ry

     total magnetization       =     8.00 Bohr mag/cell
     absolute magnetization    =     8.27 Bohr mag/cell

     iteration #  5     ecut=   100.00 Ry     beta= 0.70
     Davidson diagonalization with overlap
     ethr =  5.65E-06,  avg # of iterations =  1.0

     total cpu time spent up to now is     6027.0 secs

     total energy              =   -1993.58850501 Ry
     Harris-Foulkes estimate   =   -1993.58950674 Ry
     estimated scf accuracy    <       0.01022376 Ry

     total magnetization       =     8.00 Bohr mag/cell
     absolute magnetization    =     8.27 Bohr mag/cell

     iteration #  6     ecut=   100.00 Ry     beta= 0.70
     Davidson diagonalization with overlap
     ethr =  2.13E-06,  avg # of iterations =  8.5

     total cpu time spent up to now is     6187.1 secs

     total energy              =   -1993.58881649 Ry
     Harris-Foulkes estimate   =   -1993.58903231 Ry
     estimated scf accuracy    <       0.00077847 Ry

     total magnetization       =     8.00 Bohr mag/cell
     absolute magnetization    =     8.27 Bohr mag/cell

     iteration #  7     ecut=   100.00 Ry     beta= 0.70
     Davidson diagonalization with overlap
     ethr =  1.62E-07,  avg # of iterations =  3.0

     total cpu time spent up to now is     6345.2 secs

     total energy              =   -1993.58883007 Ry
     Harris-Foulkes estimate   =   -1993.58888841 Ry
     estimated scf accuracy    <       0.00029504 Ry

     total magnetization       =     8.00 Bohr mag/cell
     absolute magnetization    =     8.27 Bohr mag/cell

     iteration #  8     ecut=   100.00 Ry     beta= 0.70
     Davidson diagonalization with overlap
     ethr =  6.15E-08,  avg # of iterations =  2.0

     total cpu time spent up to now is     6494.5 secs

     total energy              =   -1993.58882050 Ry
     Harris-Foulkes estimate   =   -1993.58887925 Ry
     estimated scf accuracy    <       0.00074691 Ry

     total magnetization       =     8.00 Bohr mag/cell
     absolute magnetization    =     8.27 Bohr mag/cell

     iteration #  9     ecut=   100.00 Ry     beta= 0.70
     Davidson diagonalization with overlap
     ethr =  6.15E-08,  avg # of iterations =  2.0

     total cpu time spent up to now is     6643.9 secs

     total energy              =   -1993.58882993 Ry
     Harris-Foulkes estimate   =   -1993.58884882 Ry
     estimated scf accuracy    <       0.00007183 Ry

     total magnetization       =     8.00 Bohr mag/cell
     absolute magnetization    =     8.27 Bohr mag/cell

     iteration # 10     ecut=   100.00 Ry     beta= 0.70
     Davidson diagonalization with overlap
     ethr =  1.50E-08,  avg # of iterations =  3.0

     total cpu time spent up to now is     6805.6 secs

     total energy              =   -1993.58883280 Ry
     Harris-Foulkes estimate   =   -1993.58883796 Ry
     estimated scf accuracy    <       0.00002650 Ry

     total magnetization       =     8.00 Bohr mag/cell
     absolute magnetization    =     8.27 Bohr mag/cell

     iteration # 11     ecut=   100.00 Ry     beta= 0.70
     Davidson diagonalization with overlap
     ethr =  5.52E-09,  avg # of iterations =  3.0

     total cpu time spent up to now is     6965.9 secs

     total energy              =   -1993.58883261 Ry
     Harris-Foulkes estimate   =   -1993.58883597 Ry
     estimated scf accuracy    <       0.00001114 Ry

     total magnetization       =     8.00 Bohr mag/cell
     absolute magnetization    =     8.27 Bohr mag/cell

     iteration # 12     ecut=   100.00 Ry     beta= 0.70
     Davidson diagonalization with overlap
     ethr =  2.32E-09,  avg # of iterations =  3.5

     total cpu time spent up to now is     7153.4 secs

     total energy              =   -1993.58883180 Ry
     Harris-Foulkes estimate   =   -1993.58883415 Ry
     estimated scf accuracy    <       0.00001260 Ry

     total magnetization       =     8.00 Bohr mag/cell
     absolute magnetization    =     8.27 Bohr mag/cell

     iteration # 13     ecut=   100.00 Ry     beta= 0.70
     Davidson diagonalization with overlap
     ethr =  2.32E-09,  avg # of iterations =  3.5

     total cpu time spent up to now is     7320.5 secs

     total energy              =   -1993.58882957 Ry
     Harris-Foulkes estimate   =   -1993.58883318 Ry
     estimated scf accuracy    <       0.00000948 Ry

     total magnetization       =     8.00 Bohr mag/cell
     absolute magnetization    =     8.27 Bohr mag/cell

     iteration # 14     ecut=   100.00 Ry     beta= 0.70
     Davidson diagonalization with overlap
     ethr =  1.98E-09,  avg # of iterations =  4.0

     total cpu time spent up to now is     7504.8 secs

     total energy              =   -1993.58882770 Ry
     Harris-Foulkes estimate   =   -1993.58883061 Ry
     estimated scf accuracy    <       0.00000187 Ry

     total magnetization       =     8.00 Bohr mag/cell
     absolute magnetization    =     8.27 Bohr mag/cell

     iteration # 15     ecut=   100.00 Ry     beta= 0.70
     Davidson diagonalization with overlap
     ethr =  3.90E-10,  avg # of iterations =  5.0

     total cpu time spent up to now is     7711.2 secs

     total energy              =   -1993.58882670 Ry
     Harris-Foulkes estimate   =   -1993.58882833 Ry
     estimated scf accuracy    <       0.00000148 Ry

     total magnetization       =     8.00 Bohr mag/cell
     absolute magnetization    =     8.27 Bohr mag/cell

     iteration # 16     ecut=   100.00 Ry     beta= 0.70
     Davidson diagonalization with overlap
     ethr =  3.08E-10,  avg # of iterations =  4.5

     total cpu time spent up to now is     7916.0 secs

     total energy              =   -1993.58882486 Ry
     Harris-Foulkes estimate   =   -1993.58882704 Ry
     estimated scf accuracy    <       0.00000100 Ry

     total magnetization       =     8.00 Bohr mag/cell
     absolute magnetization    =     8.27 Bohr mag/cell

     iteration # 17     ecut=   100.00 Ry     beta= 0.70
     Davidson diagonalization with overlap
     ethr =  2.09E-10,  avg # of iterations =  4.5
 
     Magnetic moment per site:
     atom:    1    charge:    0.8324    magn:    0.0048    constr:    0.0000
     atom:    2    charge:    0.8366    magn:    0.0079    constr:    0.0000
     atom:    3    charge:    0.8316    magn:    0.0047    constr:    0.0000
     atom:    4    charge:    0.8317    magn:    0.0043    constr:    0.0000
     atom:    5    charge:    0.8379    magn:    0.0060    constr:    0.0000
     atom:    6    charge:    0.8324    magn:    0.0053    constr:    0.0000
     atom:    7    charge:    0.8377    magn:    0.0075    constr:    0.0000
     atom:    8    charge:    0.8340    magn:    0.0079    constr:    0.0000
     atom:    9    charge:    0.8267    magn:    0.0067    constr:    0.0000
     atom:   10    charge:    0.8255    magn:    0.0062    constr:    0.0000
     atom:   11    charge:    0.8227    magn:    0.0054    constr:    0.0000
     atom:   12    charge:    0.8270    magn:    0.0059    constr:    0.0000
     atom:   13    charge:    0.8263    magn:    0.0055    constr:    0.0000
     atom:   14    charge:    0.8236    magn:    0.0054    constr:    0.0000
     atom:   15    charge:    0.8326    magn:    0.0062    constr:    0.0000
     atom:   16    charge:    0.8314    magn:    0.0061    constr:    0.0000
     atom:   17    charge:    0.8333    magn:    0.0063    constr:    0.0000
     atom:   18    charge:    0.8323    magn:    0.0066    constr:    0.0000
     atom:   19    charge:    0.8343    magn:    0.0039    constr:    0.0000
     atom:   20    charge:    0.8330    magn:    0.0037    constr:    0.0000
     atom:   21    charge:    0.8059    magn:   -0.0015    constr:    0.0000
     atom:   22    charge:    0.8049    magn:   -0.0015    constr:    0.0000
     atom:   23    charge:    0.8047    magn:   -0.0014    constr:    0.0000
     atom:   24    charge:    0.8067    magn:   -0.0018    constr:    0.0000
     atom:   25    charge:    0.8376    magn:    0.0076    constr:    0.0000
     atom:   26    charge:    0.8322    magn:    0.0049    constr:    0.0000
     atom:   27    charge:    0.8350    magn:    0.0033    constr:    0.0000
     atom:   28    charge:    0.8339    magn:    0.0040    constr:    0.0000
     atom:   29    charge:    0.8330    magn:    0.0065    constr:    0.0000
     atom:   30    charge:    0.8374    magn:    0.0067    constr:    0.0000
     atom:   31    charge:    0.8337    magn:    0.0046    constr:    0.0000
     atom:   32    charge:    0.8342    magn:    0.0080    constr:    0.0000
     atom:   33    charge:    0.8228    magn:    0.0060    constr:    0.0000
     atom:   34    charge:    0.8258    magn:    0.0056    constr:    0.0000
     atom:   35    charge:    0.8272    magn:    0.0066    constr:    0.0000
     atom:   36    charge:    0.8230    magn:    0.0060    constr:    0.0000
     atom:   37    charge:    0.8312    magn:    0.0061    constr:    0.0000
     atom:   38    charge:    0.8267    magn:    0.0065    constr:    0.0000
     atom:   39    charge:    0.8311    magn:    0.0062    constr:    0.0000
     atom:   40    charge:    0.8238    magn:    0.0053    constr:    0.0000
     atom:   41    charge:    0.8354    magn:    0.0069    constr:    0.0000
     atom:   42    charge:    0.8318    magn:    0.0053    constr:    0.0000
     atom:   43    charge:    0.8334    magn:    0.0045    constr:    0.0000
     atom:   44    charge:    0.8310    magn:    0.0045    constr:    0.0000
     atom:   45    charge:    0.8026    magn:   -0.0010    constr:    0.0000
     atom:   46    charge:    0.8014    magn:   -0.0006    constr:    0.0000
     atom:   47    charge:    0.8046    magn:   -0.0015    constr:    0.0000
     atom:   48    charge:    0.8054    magn:   -0.0017    constr:    0.0000
     atom:   49    charge:    0.8465    magn:    0.0019    constr:    0.0000
     atom:   50    charge:    0.8380    magn:    0.0008    constr:    0.0000
     atom:   51    charge:    0.8365    magn:    0.0005    constr:    0.0000
     atom:   52    charge:    0.8379    magn:    0.0014    constr:    0.0000
     atom:   53    charge:    0.8410    magn:    0.0017    constr:    0.0000
     atom:   54    charge:    0.8476    magn:    0.0021    constr:    0.0000
     atom:   55    charge:    0.8445    magn:    0.0017    constr:    0.0000
     atom:   56    charge:    0.8360    magn:    0.0004    constr:    0.0000
     atom:   57    charge:    0.4967    magn:   -0.0011    constr:    0.0000
     atom:   58    charge:    0.4969    magn:   -0.0011    constr:    0.0000
     atom:   59    charge:    0.4891    magn:   -0.0011    constr:    0.0000
     atom:   60    charge:    0.4933    magn:   -0.0011    constr:    0.0000
     atom:   61    charge:    0.4974    magn:   -0.0008    constr:    0.0000
     atom:   62    charge:    0.4974    magn:   -0.0008    constr:    0.0000
     atom:   63    charge:    0.4982    magn:   -0.0010    constr:    0.0000
     atom:   64    charge:    0.4967    magn:   -0.0011    constr:    0.0000
     atom:   65    charge:    0.4969    magn:   -0.0007    constr:    0.0000
     atom:   66    charge:    0.4987    magn:   -0.0009    constr:    0.0000
     atom:   67    charge:    0.4887    magn:   -0.0006    constr:    0.0000
     atom:   68    charge:    0.4891    magn:   -0.0005    constr:    0.0000
     atom:   69    charge:    0.4904    magn:   -0.0011    constr:    0.0000
     atom:   70    charge:    0.4946    magn:   -0.0011    constr:    0.0000
     atom:   71    charge:    0.4975    magn:   -0.0010    constr:    0.0000
     atom:   72    charge:    0.4968    magn:   -0.0009    constr:    0.0000
     atom:   73    charge:    0.4967    magn:   -0.0009    constr:    0.0000
     atom:   74    charge:    0.4977    magn:   -0.0007    constr:    0.0000
     atom:   75    charge:    0.4858    magn:   -0.0004    constr:    0.0000
     atom:   76    charge:    0.4840    magn:   -0.0001    constr:    0.0000
     atom:   77    charge:    0.4882    magn:   -0.0004    constr:    0.0000
     atom:   78    charge:    0.4981    magn:   -0.0009    constr:    0.0000
     atom:   79    charge:    0.4892    magn:   -0.0011    constr:    0.0000
     atom:   80    charge:    0.4943    magn:   -0.0011    constr:    0.0000
     atom:   81    charge:    0.4623    magn:    0.0069    constr:    0.0000
     atom:   82    charge:    0.4641    magn:    0.0076    constr:    0.0000
     atom:   83    charge:    0.4666    magn:    0.0074    constr:    0.0000
     atom:   84    charge:    0.4596    magn:    0.0081    constr:    0.0000
     atom:   85    charge:    0.4613    magn:    0.0079    constr:    0.0000
     atom:   86    charge:    0.4771    magn:    0.0063    constr:    0.0000
     atom:   87    charge:    0.4770    magn:    0.0067    constr:    0.0000
     atom:   88    charge:    0.4646    magn:    0.0077    constr:    0.0000
     atom:   89    charge:    2.4927    magn:    0.0103    constr:    0.0000
     atom:   90    charge:    2.4967    magn:    0.0106    constr:    0.0000
     atom:   91    charge:    2.5194    magn:    0.0092    constr:    0.0000
[...]
     atom   46 type  1   force =     0.00051519   -0.00104280   -0.00052846
     atom   47 type  1   force =     0.00043254    0.00016666   -0.00006657
     atom   48 type  1   force =     0.00032906   -0.00062694    0.00053681
     atom   49 type  1   force =     0.00008115    0.00084506    0.00088931
     atom   50 type  1   force =     0.00030675    0.00040163   -0.00030431
     atom   51 type  1   force =    -0.00024025   -0.00002310    0.00021203
     atom   52 type  1   force =    -0.00108650    0.00057100   -0.00121294
     atom   53 type  1   force =    -0.00062472   -0.00014807   -0.00039624
     atom   54 type  1   force =    -0.00015726   -0.00062930    0.00063251
     atom   55 type  1   force =     0.00149631    0.00021330   -0.00087958
     atom   56 type  1   force =    -0.00026231   -0.00090434   -0.00049667
     atom   57 type  2   force =     0.00078149    0.00078132    0.00077589
     atom   58 type  2   force =     0.00076208    0.00076232    0.00107754
     atom   59 type  2   force =    -0.00014133    0.00066414   -0.00040039
     atom   60 type  2   force =     0.00006565   -0.00048316    0.00013364
     atom   61 type  2   force =    -0.00001754   -0.00042639   -0.00002291
     atom   62 type  2   force =    -0.00010875   -0.00129017    0.00097068
     atom   63 type  2   force =    -0.00041142   -0.00024711   -0.00051946
     atom   64 type  2   force =    -0.00055683   -0.00053777    0.00052012
     atom   65 type  2   force =     0.00078836    0.00026436    0.00069408
     atom   66 type  2   force =    -0.00081341   -0.00020006    0.00090884
     atom   67 type  2   force =     0.00142851   -0.00094769   -0.00132002
     atom   68 type  2   force =    -0.00103111    0.00018638    0.00013935
     atom   69 type  2   force =    -0.00081253    0.00061099   -0.00004208
     atom   70 type  2   force =     0.00028636    0.00014856    0.00026201
     atom   71 type  2   force =    -0.00066278   -0.00001429   -0.00005787
     atom   72 type  2   force =     0.00063503   -0.00052859    0.00051055
     atom   73 type  2   force =    -0.00107222   -0.00033463    0.00047548
     atom   74 type  2   force =     0.00008411   -0.00017349    0.00074637
     atom   75 type  2   force =     0.00089965   -0.00001241    0.00051273
     atom   76 type  2   force =     0.00092138    0.00020029    0.00041754
     atom   77 type  2   force =    -0.00019304   -0.00098444    0.00010915
     atom   78 type  2   force =     0.00018828    0.00048917    0.00074700
     atom   79 type  2   force =     0.00080235   -0.00055047   -0.00072118
     atom   80 type  2   force =     0.00129497   -0.00041385   -0.00038540
     atom   81 type  2   force =     0.00015146    0.00007995    0.00065940
     atom   82 type  2   force =     0.00161215    0.00036436    0.00043413
     atom   83 type  2   force =     0.00044923    0.00121130   -0.00037069
     atom   84 type  2   force =    -0.00005877   -0.00012167    0.00053336
     atom   85 type  2   force =     0.00028184   -0.00061523   -0.00009573
     atom   86 type  2   force =    -0.00126320   -0.00012513   -0.00108324
     atom   87 type  2   force =     0.00001178    0.00056902    0.00059226
     atom   88 type  2   force =     0.00049818   -0.00054231   -0.00112432
     atom   89 type  3   force =     0.00018730   -0.00050484    0.00097606
     atom   90 type  3   force =     0.00032216    0.00098152    0.00089653
     atom   91 type  3   force =     0.00004736    0.00063789   -0.00087699
     atom   92 type  3   force =     0.00059338    0.00000002   -0.00008137
     atom   93 type  3   force =    -0.00044063    0.00024302   -0.00011220
     atom   94 type  3   force =     0.00031436    0.00083844   -0.00093547
     atom   95 type  3   force =     0.00069132   -0.00003881    0.00012236
     atom   96 type  3   force =    -0.00012547    0.00048614   -0.00078652
     atom   97 type  4   force =    -0.00231168    0.00124467   -0.00281691
     atom   98 type  4   force =    -0.00017098    0.00101397   -0.00058032
     atom   99 type  4   force =    -0.00043723   -0.00111898   -0.00034095
     atom  100 type  4   force =    -0.00136085    0.00103511   -0.00065903
     atom  101 type  5   force =    -0.00093429   -0.00080055    0.00019884
     atom  102 type  5   force =     0.00049992   -0.00031952    0.00014880
     atom  103 type  5   force =     0.00014883    0.00016974   -0.00053774
     atom  104 type  5   force =    -0.00112970   -0.00128506   -0.00044075
     atom  105 type  5   force =    -0.00013510    0.00091277   -0.00040902
     atom  106 type  5   force =    -0.00040283   -0.00030206    0.00142414
     atom  107 type  5   force =     0.00018410    0.00012364    0.00063235
     atom  108 type  5   force =     0.00019821    0.00045065    0.00094318
     atom  109 type  5   force =     0.00112524    0.00119712   -0.00041375
     atom  110 type  5   force =    -0.00045584   -0.00053651   -0.00015312
     atom  111 type  5   force =    -0.00024741   -0.00003543   -0.00040380
     atom  112 type  5   force =     0.00041346    0.00075284   -0.00039910
     atom  113 type  5   force =    -0.00069627    0.00094354    0.00092142
     atom  114 type  5   force =    -0.00031982    0.00003415   -0.00008766
     atom  115 type  5   force =    -0.00095786    0.00115865   -0.00001905
     atom  116 type  5   force =     0.00009326    0.00102958    0.00096001
     atom  117 type  5   force =     0.00010338    0.00049559    0.00031696
     atom  118 type  5   force =    -0.00038968   -0.00026053    0.00091448
     atom  119 type  5   force =     0.00194062   -0.00116056    0.00036881
     atom  120 type  5   force =    -0.00026312   -0.00118506   -0.00083822
     atom  121 type  5   force =    -0.00037064    0.00061567    0.00004927
     atom  122 type  5   force =    -0.00036483    0.00026844    0.00031659
     atom  123 type  5   force =    -0.00063809   -0.00088968   -0.00016280
     atom  124 type  5   force =    -0.00145494    0.00134046    0.00217349

     Total force =     0.012959     Total SCF correction =     0.000122

     number of scf cycles    =  63
     number of bfgs steps    =  62

     energy   old            =   -1994.3506116239 Ry
     energy   new            =   -1994.3508026092 Ry

     CASE: energy  _new < energy  _old

     new trust radius        =       0.0229498587 bohr
     new conv_thr            =       0.0000000191 Ry


ATOMIC_POSITIONS (crystal)
C             0.2944587843        0.9801701161        0.5298962055
C             0.0436210825        0.0558336120        0.0264302237
C             0.3958476217        0.0246455368        0.5522016133
C             0.1407761627        1.0021020153        0.0535801886
C             0.4578750405        0.9889642315        0.6601194117
C             0.2009304003        0.0333299321        0.1638989583
C             0.2164786376        0.5583196169        0.5178042685
C             0.4649712977        0.4791683920        0.0387624577
C             0.2503064933        0.6432245397        0.5991359863
C             0.4942928553        0.3836873274        0.1016866552
C             0.2574509546        0.9024778304        0.6146462943
C             0.0099883952        0.1358177311        0.1118966392
C             0.4180761462        0.9046729466        0.7365376020
C             0.1611101799        0.1121507166        0.2459686088
C             0.0894561651        0.6417179097        0.7074587756
C             0.3220152515        0.3599629914        0.1775555142
C             0.0503054750        0.5573448541        0.6308187206
C             0.2873498548        0.4543388091        0.1164034946
C             0.1166648723        0.5092572294        0.5396888960
C             0.3594680631        0.5176692416        0.0482480810
C             0.4347444676        0.1041555136        0.4608875915
C             0.1823991566        0.9142053543        0.9741338331
C             0.0789351853        0.4096248081        0.4756686054
C             0.3205256971        0.6151315332        0.9814662871
C             0.7801295642        0.9582819124        0.5310395728
C             0.5216442006       -0.0090416690        0.0469917555
C             0.8841105433       -0.0001602812        0.5511229687
C             0.6294546428        0.9612196232        0.0520729782
C             0.9531940711        0.9404955458        0.6320310327
C             0.7022618767        0.0227738059        0.1274654244
C             0.7042629505        0.5109978841        0.5274727349
C             0.9691127725        0.4576203501        0.0406206418
C             0.7401432185        0.5914136102        0.6117782207
C             1.0035940723        0.3806923104        0.1308366041
C             0.7472217570        0.8679047264        0.6016876968
C             0.4900853813        0.0830818908        0.1119592764
C             0.9135424757        0.8538507310        0.7031444030
C             0.6652816300        0.1176151091        0.1860600754
C             0.5703182026        0.6111872491        0.6986765887
C             0.8419364427        0.3893614913        0.2405831753
C             0.5321414100        0.5211546505        0.6284911855
C             0.8044520780        0.4707065918        0.1581269778
C             0.5986367579        0.4748612957        0.5345867580
C             0.8691925046        0.5075531639        0.0575629390
C             0.9244370686        0.0991479824        0.4900861576
C             0.6658189474        0.8716848224        0.9727768155
C             0.5609727537        0.3905422946        0.4459915595
C             0.8283284366        0.5948631930        0.9746992728
C             0.5596367361        0.0407531710        0.6988974377
C             0.9705301568        1.0308617120        0.9174486274
C             0.2911748192        0.5230486607        0.4182556027
C             0.5511358037        0.5299797024        0.9663003218
C             0.6994457476        0.0032484586        0.4415114685
C             0.8095658115        0.9817556214        0.1610130352
C             0.4314879994        0.4713370650        0.6681428527
C             0.0384654728        0.4784772630        0.9302153527
H             0.2438488419        1.0049115312        0.4501158743
H             0.4623524670       -0.0554378886        0.9960471547
H             0.0347826531        0.9646349547        0.6478747023
H             0.2757943787        0.9959373835        0.1881910118
H             0.3279807461        0.6783337083        0.5877418591
H             0.0811984952        0.3452314043        0.1225585631
H             0.1792739473        0.8683538734        0.6031870798
H             0.4085632362        0.1099308082        0.1102817709
H             0.4645858911        0.8702942994        0.8148188888
H             0.2037865158        0.1380521005        0.3316619927
H             0.0432660417        0.6770679667        0.7824790708
H             0.2696629238        0.3114137960        0.2340722848
H             0.2059887560        0.4789404639        0.1262768583
H             0.7593913153        0.4760032820        0.4613316269
H             0.8215152664        0.6182889652        0.6130525231
H             0.5748937744        0.3545993340        0.0968956724
H             0.6673887030        0.8375472657        0.5885200812
H             0.9358069422        0.1767259828        0.0932111656
H             0.9617621270        0.8138515237        0.7751615403
H             0.7185956078        0.1689869194        0.2410275659
H             0.5186879066        0.6549108545        0.7615205781
H             0.7948654176        0.3567421992        0.3167154779
H             0.9719458578        0.5264554593        0.6486271692
H             0.7264955819        0.5036712033        0.1729628465
H             0.5727727138        0.1197541577        0.6542394728
H             0.9946629248        0.9611526882        0.8611298950
H             0.2713341504        0.4447542959        0.3754636872
H             0.5492230428        0.6173368546        0.9589119423
H             0.7112041049        0.0876862529        0.4173633474
H             0.8331630086        0.9100698025        0.1060664677
H             0.4085208578        0.3992012193        0.6121212712
H             0.0114317405        0.5471515860        0.8727760558
N             0.3193267441        0.8653629847        0.7149570846
N             0.0661126372        0.1597326190        0.2203311403
N             0.1902954511        0.6786256887        0.6966919418
N             0.4255400271        0.3288450772        0.1741872785
N             0.8107791354        0.8216039766        0.6913878993
N             0.5610447849        0.1434176398        0.1818894483
N             0.6735142498        0.6403417297        0.6959060960
N             0.9410977385        0.3481914409        0.2274715159
Ni            0.2543103387        0.7652409334        0.8443306889
Ni            0.4972413242        0.2406962207        0.3152662674
Ni            0.7407883980        0.7336058724        0.8356092011
Ni            1.0029125836        0.2484196106        0.3577284180
O             0.1353858478        0.3547010785        0.3958558643
O             0.3820094082        0.6774189301        0.9158579506
O             0.3771799003        0.1368526933        0.3634098063
O             0.1270751434        0.8670930118        0.8828630019
O             0.4637725012        0.3547749002        0.4462667714
O             0.2213594719        0.6421430770        0.9797013044
O             0.0250953934        0.1214981854        0.4916083717
O             0.2777921559        0.8784112948        0.9930758906
O             0.6218385717        0.3461575019        0.3623229597
O             0.8728917955        0.6280959339        0.8699566259
O             0.8644530521        0.1672667389        0.4295773084
O             0.6027674202        0.8081358099        0.9103633356
O             0.9854830015        0.3717855418        0.4979035147
O             0.7417232391        0.6431828187        1.0045028743
O             0.5286601309        0.1468443770        0.4707381511
O             0.7669906197        0.8559414040        0.9550425512
O             0.6281866229        1.0038122519        0.7718287052
O             0.8885586307        0.0791001337        0.8900632061
O             0.3698157195        0.5728021175        0.3851888714
O             0.6218024838        0.4775324823        0.9170025557
O             0.6239871503        0.9524136066        0.3966719417
O             0.8707668274        0.0164447719        0.2446364773
O             0.3758653508        0.5016790085        0.7566518811
O             0.1157716652        0.4261055614        0.8993081750



     Writing output data file /nfs/hpc/share/gantzlen/NiPyC2_relax_sc211_meta_functionalized_CH-O_vdw-df2_relax.save/
     NEW-OLD atomic charge density approx. for the potential

     Check: negative core charge=   -0.000145

     total cpu time spent up to now is   172422.1 secs

     Self-consistent Calculation

     iteration #  1     ecut=   100.00 Ry     beta= 0.70
     Davidson diagonalization with overlap
     ethr =  1.00E-06,  avg # of iterations =  4.0

     total cpu time spent up to now is   172675.5 secs

     total energy              =   -1994.35088911 Ry
     Harris-Foulkes estimate   =   -1994.35083045 Ry
     estimated scf accuracy    <       0.00092016 Ry

     total magnetization       =     8.00 Bohr mag/cell
     absolute magnetization    =     8.30 Bohr mag/cell

     iteration #  2     ecut=   100.00 Ry     beta= 0.70
     Davidson diagonalization with overlap
     ethr =  1.92E-07,  avg # of iterations =  3.5

     total cpu time spent up to now is   172773.0 secs

     total energy              =   -1994.35098556 Ry
     Harris-Foulkes estimate   =   -1994.35097809 Ry
     estimated scf accuracy    <       0.00020607 Ry

     total magnetization       =     8.00 Bohr mag/cell
     absolute magnetization    =     8.30 Bohr mag/cell

     iteration #  3     ecut=   100.00 Ry     beta= 0.70
     Davidson diagonalization with overlap
     ethr =  4.29E-08,  avg # of iterations =  3.0

     total cpu time spent up to now is   172880.6 secs

     total energy              =   -1994.35098291 Ry
     Harris-Foulkes estimate   =   -1994.35104206 Ry
     estimated scf accuracy    <       0.00055438 Ry

     total magnetization       =     8.00 Bohr mag/cell
     absolute magnetization    =     8.30 Bohr mag/cell

     iteration #  4     ecut=   100.00 Ry     beta= 0.70
     Davidson diagonalization with overlap
     ethr =  4.29E-08,  avg # of iterations =  2.0

     total cpu time spent up to now is   172972.8 secs

     total energy              =   -1994.35101156 Ry
     Harris-Foulkes estimate   =   -1994.35103189 Ry
     estimated scf accuracy    <       0.00023353 Ry

     total magnetization       =     8.00 Bohr mag/cell
     absolute magnetization    =     8.30 Bohr mag/cell

     iteration #  5     ecut=   100.00 Ry     beta= 0.70
     Davidson diagonalization with overlap
     ethr =  4.29E-08,  avg # of iterations =  1.5

     total cpu time spent up to now is   173063.4 secs

     total energy              =   -1994.35101928 Ry
     Harris-Foulkes estimate   =   -1994.35102321 Ry
     estimated scf accuracy    <       0.00003896 Ry

     total magnetization       =     8.00 Bohr mag/cell
     absolute magnetization    =     8.30 Bohr mag/cell

     iteration #  6     ecut=   100.00 Ry     beta= 0.70
     Davidson diagonalization with overlap
     ethr =  8.12E-09,  avg # of iterations =  2.0

     total cpu time spent up to now is   173154.3 secs

     total energy              =   -1994.35102143 Ry
     Harris-Foulkes estimate   =   -1994.35102208 Ry
     estimated scf accuracy    <       0.00000556 Ry

     total magnetization       =     8.00 Bohr mag/cell
     absolute magnetization    =     8.30 Bohr mag/cell

     iteration #  7     ecut=   100.00 Ry     beta= 0.70
     Davidson diagonalization with overlap
     ethr =  1.16E-09,  avg # of iterations =  3.5

     total cpu time spent up to now is   173256.9 secs

     total energy              =   -1994.35102165 Ry
     Harris-Foulkes estimate   =   -1994.35102200 Ry
     estimated scf accuracy    <       0.00000089 Ry

     total magnetization       =     8.00 Bohr mag/cell
     absolute magnetization    =     8.30 Bohr mag/cell

     iteration #  8     ecut=   100.00 Ry     beta= 0.70
     Davidson diagonalization with overlap
     ethr =  1.84E-10,  avg # of iterations =  3.5

     total cpu time spent up to now is   173383.2 secs

     total energy              =   -1994.35102161 Ry
     Harris-Foulkes estimate   =   -1994.35102184 Ry
     estimated scf accuracy    <       0.00000132 Ry

     total magnetization       =     8.00 Bohr mag/cell
     absolute magnetization    =     8.30 Bohr mag/cell

     iteration #  9     ecut=   100.00 Ry     beta= 0.70
     Davidson diagonalization with overlap
     ethr =  1.84E-10,  avg # of iterations =  2.5

     total cpu time spent up to now is   173493.7 secs

     total energy              =   -1994.35102135 Ry
     Harris-Foulkes estimate   =   -1994.35102171 Ry
     estimated scf accuracy    <       0.00000033 Ry

     total magnetization       =     8.00 Bohr mag/cell
     absolute magnetization    =     8.30 Bohr mag/cell

     iteration # 10     ecut=   100.00 Ry     beta= 0.70
     Davidson diagonalization with overlap
     ethr =  6.79E-11,  avg # of iterations =  4.5

     total cpu time spent up to now is   173631.1 secs

     total energy              =   -1994.35102132 Ry
     Harris-Foulkes estimate   =   -1994.35102148 Ry
     estimated scf accuracy    <       0.00000020 Ry

     total magnetization       =     8.00 Bohr mag/cell
     absolute magnetization    =     8.30 Bohr mag/cell

     iteration # 11     ecut=   100.00 Ry     beta= 0.70
     Davidson diagonalization with overlap
