/apps/openmpi/3.1_intel-19/bin/mpiexec
/apps/qe/6.5/bin/pw.x
starting QE Sat Aug 1 17:33:27 PDT 2020

     Program PWSCF v.6.5 starts on  1Aug2020 at 17:33:28 

     This program is part of the open-source Quantum ESPRESSO suite
     for quantum simulation of materials; please cite
         "P. Giannozzi et al., J. Phys.:Condens. Matter 21 395502 (2009);
         "P. Giannozzi et al., J. Phys.:Condens. Matter 29 465901 (2017);
          URL http://www.quantum-espresso.org", 
     in publications or presentations arising from this work. More details at
     http://www.quantum-espresso.org/quote

     Parallel version (MPI & OpenMP), running on      16 processor cores
     Number of MPI processes:                16
     Threads/MPI process:                     1

     MPI processes distributed on     1 nodes
     K-points division:     npool     =       2
     R & G space division:  proc/nbgrp/npool/nimage =       8
     Reading input from ./QE_input_scripts/pw.NiPyC2_relax_sc211_ortho_functionalized_N-C-O_vdw-df2_relax.in
Warning: card &CELL ignored
Warning: card    CELL_DYNAMICS = 'BFGS' ignored
Warning: card    CELL_DOFREE = 'XYZ' ignored
Warning: card / ignored

     Current dimensions of program PWSCF are:
     Max number of different atomic species (ntypx) = 10
     Max number of k-points (npk) =  40000
     Max angular momentum in pseudopotentials (lmaxx) =  3

     IMPORTANT: XC functional enforced from input :
     Exchange-correlation= VDW-DF2
                           (   1   4  13   0   2   0   0)
     Any further DFT definition will be discarded
     Please, verify this is what you really want


     -------------------------------------------------
     Parameters for Dispersion (Grimme-D2) Correction:
     -------------------------------------------------
       atom      VdW radius       C_6     

        C          2.744         60.710
        H          1.892          4.857
        N          2.640         42.670
        Ni         2.952        374.666
        O          2.536         24.284

     gamma-point specific algorithms are used

     Subspace diagonalization in iterative solution of the eigenvalue problem:
     a serial algorithm will be used

 
     Parallelization info
     --------------------
     sticks:   dense  smooth     PW     G-vecs:    dense   smooth      PW
     Min        2228    2228    556               183376   183376   22914
     Max        2230    2230    558               183380   183380   22917
     Sum       17829   17829   4453              1467017  1467017  183325
 


     bravais-lattice index     =            0
     lattice parameter (alat)  =      23.6322  a.u.
     unit-cell volume          =   10858.6228 (a.u.)^3
     number of atoms/cell      =          124
     number of atomic types    =            5
     number of electrons       =       512.00 (up: 260.00, down: 252.00)
     number of Kohn-Sham states=          312
     kinetic-energy cutoff     =     100.0000  Ry
     charge density cutoff     =     400.0000  Ry
     convergence threshold     =      1.0E-06
     mixing beta               =       0.7000
     number of iterations used =            8  local-TF  mixing
     Exchange-correlation= VDW-DF2
                           (   1   4  13   0   2   0   0)
     nstep                     =          200


     celldm(1)=  23.632159  celldm(2)=   0.000000  celldm(3)=   0.000000
     celldm(4)=   0.000000  celldm(5)=   0.000000  celldm(6)=   0.000000

     crystal axes: (cart. coord. in units of alat)
               a(1) = (   1.000000   0.000000   0.000000 )  
               a(2) = (   0.000000   1.001423   0.000000 )  
               a(3) = (  -0.018199   0.000000   0.821574 )  

     reciprocal axes: (cart. coord. in units 2 pi/alat)
               b(1) = (  1.000000  0.000000  0.022152 )  
               b(2) = (  0.000000  0.998579  0.000000 )  
               b(3) = (  0.000000  0.000000  1.217175 )  


     PseudoPot. # 1 for C  read from file:
     ./pseudo/C.pbesol-nc.UPF
     MD5 check sum: ce26087537ded160c8d400e183a8bf42
     Pseudo is Norm-conserving, Zval =  4.0
     Generated using "atomic" code by A. Dal Corso v.6.5
     Using radial grid of 1073 points,  1 beta functions with: 
                l(1) =   1

     PseudoPot. # 2 for H  read from file:
     ./pseudo/H.pbesol-n-nc.UPF
     MD5 check sum: 7995ef24074557c85b430109caaacc09
     Pseudo is Norm-conserving, Zval =  1.0
     Generated using "atomic" code by A. Dal Corso v.6.5
     Using radial grid of  929 points,  0 beta functions with: 

     PseudoPot. # 3 for N  read from file:
     ./pseudo/N.pbesol-nc.UPF
     MD5 check sum: e18cc5e4b8a5600c1a19b30c2cab1ca0
     Pseudo is Norm-conserving, Zval =  5.0
     Generated using "atomic" code by A. Dal Corso v.6.5
     Using radial grid of 1085 points,  1 beta functions with: 
                l(1) =   1

     PseudoPot. # 4 for Ni read from file:
     ./pseudo/Ni.pbesol-n-nc.UPF
     MD5 check sum: 623411631e0c2eb7c0b2b9815547d2d9
     Pseudo is Norm-conserving + core correction, Zval = 10.0
     Generated using "atomic" code by A. Dal Corso v.6.5
     Using radial grid of 1195 points,  2 beta functions with: 
                l(1) =   1
                l(2) =   2

     PseudoPot. # 5 for O  read from file:
     ./pseudo/O.pbesol-nc.UPF
     MD5 check sum: 73d10e7e91dbfcbe8a7e362101007f84
     Pseudo is Norm-conserving, Zval =  6.0
     Generated using "atomic" code by A. Dal Corso v.6.5
     Using radial grid of 1095 points,  1 beta functions with: 
                l(1) =   1

     atomic species   valence    mass     pseudopotential
        C              4.00    12.01070     C ( 1.00)
        H              1.00     1.00794     H ( 1.00)
        N              5.00    14.00670     N ( 1.00)
        Ni            10.00    58.69340     Ni( 1.00)
        O              6.00    15.99940     O ( 1.00)

     Starting magnetic structure 
     atomic species   magnetization
        C            0.000
        H            0.000
        N            0.000
        Ni           0.250
        O            0.000

     No symmetry found



   Cartesian axes

     site n.     atom                  positions (alat units)
         1           C   tau(   1) = (   0.2787122   0.9714307   0.4288486  )
         2           C   tau(   2) = (   0.0379730   0.0311503   0.0183277  )
         3           C   tau(   3) = (   0.3806882   0.0117868   0.4489838  )
         4           C   tau(   4) = (   0.1394042   0.9891499   0.0379124  )
         5           C   tau(   5) = (   0.4400787   0.9715829   0.5343281  )
         6           C   tau(   6) = (   0.1997920   0.0283934   0.1231482  )
         7           C   tau(   7) = (   0.1986011   0.5304580   0.4324635  )
         8           C   tau(   8) = (   0.4580372   0.4720800   0.0229252  )
         9           C   tau(   9) = (   0.2341003   0.6142040   0.4982314  )
        10           C   tau(  10) = (   0.4948422   0.3892302   0.0892369  )
        11           C   tau(  11) = (   0.2384981   0.8904717   0.4955761  )
        12           C   tau(  12) = (  -0.0008282   0.1123917   0.0856467  )
        13           C   tau(  13) = (   0.3947360   0.8906489   0.5977380  )
        14           C   tau(  14) = (   0.1557890   0.1097029   0.1871645  )
        15           C   tau(  15) = (   0.0756247   0.6098498   0.5975737  )
        16           C   tau(  16) = (   0.3367152   0.3921904   0.1884642  )
        17           C   tau(  17) = (   0.0350715   0.5258264   0.5351012  )
        18           C   tau(  18) = (   0.2948780   0.4753867   0.1254988  )
        19           C   tau(  19) = (   0.0981522   0.4849593   0.4519611  )
        20           C   tau(  20) = (   0.3569104   0.5163900   0.0416029  )
        21           C   tau(  21) = (   0.4248178   0.0994604   0.3833638  )
        22           C   tau(  22) = (   0.1639424   0.9010006   0.7933713  )
        23           C   tau(  23) = (   0.0588120   0.3950355   0.3866953  )
        24           C   tau(  24) = (   0.2984059   0.6050320   0.7961934  )
        25           C   tau(  25) = (   0.7787122   0.9714307   0.4288486  )
        26           C   tau(  26) = (   0.5379730   0.0311503   0.0183277  )
        27           C   tau(  27) = (   0.8806882   0.0117868   0.4489838  )
        28           C   tau(  28) = (   0.6394042   0.9891499   0.0379124  )
        29           C   tau(  29) = (   0.9400787   0.9715829   0.5343281  )
        30           C   tau(  30) = (   0.6997920   0.0283934   0.1231482  )
        31           C   tau(  31) = (   0.6986021   0.5304580   0.4324635  )
        32           C   tau(  32) = (   0.9580382   0.4720800   0.0229252  )
        33           C   tau(  33) = (   0.7341003   0.6142040   0.4982314  )
        34           C   tau(  34) = (   0.9948422   0.3892302   0.0892369  )
        35           C   tau(  35) = (   0.7384981   0.8904717   0.4955761  )
        36           C   tau(  36) = (   0.4991718   0.1123917   0.0856467  )
        37           C   tau(  37) = (   0.8947360   0.8906489   0.5977380  )
        38           C   tau(  38) = (   0.6557880   0.1097029   0.1871645  )
        39           C   tau(  39) = (   0.5756247   0.6098498   0.5975737  )
        40           C   tau(  40) = (   0.8367152   0.3921904   0.1884642  )
        41           C   tau(  41) = (   0.5350715   0.5258264   0.5351012  )
        42           C   tau(  42) = (   0.7948780   0.4753867   0.1254988  )
        43           C   tau(  43) = (   0.5981522   0.4849593   0.4519611  )
        44           C   tau(  44) = (   0.8569104   0.5163900   0.0416029  )
        45           C   tau(  45) = (   0.9248178   0.0994604   0.3833638  )
        46           C   tau(  46) = (   0.6639424   0.9010006   0.7933713  )
        47           C   tau(  47) = (   0.5588110   0.3950355   0.3866953  )
        48           C   tau(  48) = (   0.7984059   0.6050320   0.7961934  )
        49           C   tau(  49) = (   0.4225070   0.7779708   0.7491476  )
        50           C   tau(  50) = (   0.1888948   0.2268865   0.3339765  )
        51           C   tau(  51) = (   0.3779765   0.7339051   0.5341539  )
        52           C   tau(  52) = (   0.6376660   0.2671297   0.1212068  )
        53           C   tau(  53) = (   0.9225070   0.7779708   0.7491476  )
        54           C   tau(  54) = (   0.3514234   0.2272911   0.1217310  )
        55           C   tau(  55) = (   0.8746928   0.7390314   0.5294003  )
        56           C   tau(  56) = (   0.1376660   0.2671287   0.1212068  )
        57           H   tau(  57) = (   0.2290596   1.0009978   0.3640502  )
        58           H   tau(  58) = (   0.4693669   0.0026958   0.7751545  )
        59           H   tau(  59) = (   0.0198054   1.0002267   0.5533467  )
        60           H   tau(  60) = (   0.2791988   1.0000865   0.1418054  )
        61           H   tau(  61) = (   0.2505234   0.5016080   0.3691185  )
        62           H   tau(  62) = (  -0.0086584   0.5011092   0.7809458  )
        63           H   tau(  63) = (   0.1594426   0.8563401   0.4835457  )
        64           H   tau(  64) = (   0.0290492   0.6438591   0.6626884  )
        65           H   tau(  65) = (   0.2907535   0.3580349   0.2539083  )
        66           H   tau(  66) = (   0.4564147   0.4939330   0.5533319  )
        67           H   tau(  67) = (   0.2157623   0.5059201   0.1439924  )
        68           H   tau(  68) = (   0.7290596   1.0009978   0.3640502  )
        69           H   tau(  69) = (   0.9693669   0.0026958   0.7751545  )
        70           H   tau(  70) = (   0.5198044   1.0002267   0.5533467  )
        71           H   tau(  71) = (   0.7791988   1.0000865   0.1418054  )
        72           H   tau(  72) = (   0.7505234   0.5016080   0.3691185  )
        73           H   tau(  73) = (   0.4913416   0.5011092   0.7809458  )
        74           H   tau(  74) = (   0.6594426   0.8563401   0.4835457  )
        75           H   tau(  75) = (   0.9206861   0.1479423   0.0738480  )
        76           H   tau(  76) = (   0.7006201   0.1433067   0.2536997  )
        77           H   tau(  77) = (   0.5290492   0.6438591   0.6626884  )
        78           H   tau(  78) = (   0.7907535   0.3580349   0.2539083  )
        79           H   tau(  79) = (   0.9564147   0.4939330   0.5533319  )
        80           H   tau(  80) = (   0.7157623   0.5059201   0.1439924  )
        81           N   tau(  81) = (   0.2956096   0.8524646   0.5790685  )
        82           N   tau(  82) = (   0.0569790   0.1490689   0.1692870  )
        83           N   tau(  83) = (   0.1736962   0.6512356   0.5798983  )
        84           N   tau(  84) = (   0.4350238   0.3514275   0.1709211  )
        85           N   tau(  85) = (   0.7956096   0.8524646   0.5790685  )
        86           N   tau(  86) = (   0.5569790   0.1490689   0.1692870  )
        87           N   tau(  87) = (   0.6736972   0.6512356   0.5798983  )
        88           N   tau(  88) = (   0.9350238   0.3514275   0.1709211  )
        89           N   tau(  89) = (   0.4585083   0.8481785   0.6862059  )
        90           N   tau(  90) = (   0.2208864   0.1515264   0.2749489  )
        91           N   tau(  91) = (   0.3389210   0.6608243   0.4765279  )
        92           N   tau(  92) = (   0.6003592   0.3440590   0.0675704  )
        93           N   tau(  93) = (   0.9585083   0.8481785   0.6862059  )
        94           N   tau(  94) = (   0.3934546   0.1567167   0.0630846  )
        95           N   tau(  95) = (   0.8386808   0.6612008   0.4761795  )
        96           N   tau(  96) = (   0.1003592   0.3440580   0.0675704  )
        97           Ni  tau(  97) = (   0.2317814   0.7525556   0.6871039  )
        98           Ni  tau(  98) = (   0.4937992   0.2483520   0.2786599  )
        99           Ni  tau(  99) = (   0.7317814   0.7525556   0.6871039  )
       100           Ni  tau( 100) = (   0.9937992   0.2483520   0.2786599  )
       101           O   tau( 101) = (   0.1158100   0.3481839   0.3145586  )
       102           O   tau( 102) = (   0.3551690   0.6519036   0.7240468  )
       103           O   tau( 103) = (   0.3707656   0.1477170   0.3098797  )
       104           O   tau( 104) = (   0.1091506   0.8535652   0.7199135  )
       105           O   tau( 105) = (   0.4642788   0.3566669   0.3968154  )
       106           O   tau( 106) = (   0.2033039   0.6423280   0.8050417  )
       107           O   tau( 107) = (   0.0200847   0.1353504   0.3952413  )
       108           O   tau( 108) = (   0.2588616   0.8639860   0.8046490  )
       109           O   tau( 109) = (   0.6158110   0.3481839   0.3145586  )
       110           O   tau( 110) = (   0.8551690   0.6519036   0.7240468  )
       111           O   tau( 111) = (   0.8707656   0.1477170   0.3098797  )
       112           O   tau( 112) = (   0.6091506   0.8535652   0.7199135  )
       113           O   tau( 113) = (   0.9642788   0.3566669   0.3968154  )
       114           O   tau( 114) = (   0.7033039   0.6423280   0.8050417  )
       115           O   tau( 115) = (   0.5200847   0.1353504   0.3952413  )
       116           O   tau( 116) = (   0.7588616   0.8639860   0.8046490  )
       117           O   tau( 117) = (   0.3875450   0.7114102   0.8083297  )
       118           O   tau( 118) = (   0.1577444   0.2983671   0.3894311  )
       119           O   tau( 119) = (   0.4142112   0.8031666   0.5893349  )
       120           O   tau( 120) = (   0.6722289   0.1941850   0.1725848  )
       121           O   tau( 121) = (   0.8875450   0.7114102   0.8083297  )
       122           O   tau( 122) = (   0.3123573   0.2941841   0.1778947  )
       123           O   tau( 123) = (   0.9080274   0.8128173   0.5803847  )
       124           O   tau( 124) = (   0.1722279   0.1941840   0.1725848  )

     number of k points=     1  Marzari-Vanderbilt smearing, width (Ry)=  0.2000
                       cart. coord. in units 2pi/alat
        k(    1) = (   0.0000000   0.0000000   0.0000000), wk =   1.0000000

     Dense  grid:   733509 G-vectors     FFT dimensions: ( 160, 160, 125)

     Estimated max dynamical RAM per process >     708.74 MB

     Estimated total dynamical RAM >      11.07 GB
     Generating pointlists ...
     new r_m :   0.0333 (alat units)  0.7881 (a.u.) for type    1
     new r_m :   0.0358 (alat units)  0.8461 (a.u.) for type    2
     new r_m :   0.0416 (alat units)  0.9839 (a.u.) for type    3
     new r_m :   0.0654 (alat units)  1.5454 (a.u.) for type    4
     new r_m :   0.0333 (alat units)  0.7881 (a.u.) for type    5

     Check: negative core charge=   -0.000145

     Initial potential from superposition of free atoms

     starting charge  511.99638, renormalised to  512.00000


     %%%%%%%%%%%%%%%%%%%%%%%%%%%%%%%%%%%%%%%%%%%%%%%%%%%%%%%%%%%%%%%%%%%%%%%%
     %                                                                      %
     % You are using vdW-DF, which was implemented by the Thonhauser group. %
     % Please cite the following two papers that made this development      %
     % possible and the two reviews that describe the various versions:     %
     %                                                                      %
     %   T. Thonhauser et al., PRL 115, 136402 (2015).                      %
     %   T. Thonhauser et al., PRB 76, 125112 (2007).                       %
     %   K. Berland et al., Rep. Prog. Phys. 78, 066501 (2015).             %
     %   D.C. Langreth et al., J. Phys.: Condens. Matter 21, 084203 (2009). %
     %                                                                      %
     %                                                                      %
     % If you are calculating the stress with vdW-DF, please also cite:     %
     %                                                                      %
     %   R. Sabatini et al., J. Phys.: Condens. Matter 24, 424209 (2012).   %
     %                                                                      %
     %%%%%%%%%%%%%%%%%%%%%%%%%%%%%%%%%%%%%%%%%%%%%%%%%%%%%%%%%%%%%%%%%%%%%%%%


     Starting wfcs are  444 randomized atomic wfcs

     total cpu time spent up to now is      123.5 secs

     Self-consistent Calculation

     iteration #  1     ecut=   100.00 Ry     beta= 0.70
     Davidson diagonalization with overlap
     ethr =  1.00E-02,  avg # of iterations =  5.0

     total cpu time spent up to now is      430.8 secs

     total energy              =   -2134.16985980 Ry
     Harris-Foulkes estimate   =   -2142.91389012 Ry
     estimated scf accuracy    <      23.17867064 Ry

     total magnetization       =     8.00 Bohr mag/cell
     absolute magnetization    =     8.05 Bohr mag/cell

     iteration #  2     ecut=   100.00 Ry     beta= 0.70
     Davidson diagonalization with overlap
     ethr =  4.53E-03,  avg # of iterations =  2.0

     total cpu time spent up to now is      625.6 secs

     total energy              =   -2135.46666400 Ry
     Harris-Foulkes estimate   =   -2138.11556382 Ry
     estimated scf accuracy    <      10.31051096 Ry

     total magnetization       =     8.00 Bohr mag/cell
     absolute magnetization    =     8.29 Bohr mag/cell

     iteration #  3     ecut=   100.00 Ry     beta= 0.70
     Davidson diagonalization with overlap
     ethr =  2.01E-03,  avg # of iterations =  2.5

     total cpu time spent up to now is      811.3 secs

     total energy              =   -2135.46269402 Ry
     Harris-Foulkes estimate   =   -2137.44066529 Ry
     estimated scf accuracy    <      11.71920770 Ry

     total magnetization       =     8.00 Bohr mag/cell
     absolute magnetization    =     8.23 Bohr mag/cell

     iteration #  4     ecut=   100.00 Ry     beta= 0.70
     Davidson diagonalization with overlap
     ethr =  2.01E-03,  avg # of iterations =  3.5

     total cpu time spent up to now is      991.4 secs

     total energy              =   -2136.32066144 Ry
     Harris-Foulkes estimate   =   -2136.75885069 Ry
     estimated scf accuracy    <       3.10557704 Ry

     total magnetization       =     8.00 Bohr mag/cell
     absolute magnetization    =     8.26 Bohr mag/cell

     iteration #  5     ecut=   100.00 Ry     beta= 0.70
     Davidson diagonalization with overlap
     ethr =  6.07E-04,  avg # of iterations =  6.5

     total cpu time spent up to now is     1189.6 secs

     total energy              =   -2136.38937247 Ry
     Harris-Foulkes estimate   =   -2136.45413330 Ry
     estimated scf accuracy    <       0.42369483 Ry

     total magnetization       =     8.00 Bohr mag/cell
     absolute magnetization    =     8.26 Bohr mag/cell

     iteration #  6     ecut=   100.00 Ry     beta= 0.70
     Davidson diagonalization with overlap
     ethr =  8.28E-05,  avg # of iterations =  8.0

     total cpu time spent up to now is     1393.3 secs

     total energy              =   -2136.38953689 Ry
     Harris-Foulkes estimate   =   -2136.41577636 Ry
     estimated scf accuracy    <       0.24693979 Ry

     total magnetization       =     8.00 Bohr mag/cell
     absolute magnetization    =     8.25 Bohr mag/cell

     iteration #  7     ecut=   100.00 Ry     beta= 0.70
     Davidson diagonalization with overlap
     ethr =  4.82E-05,  avg # of iterations =  2.0

     total cpu time spent up to now is     1572.8 secs

     total energy              =   -2136.38228527 Ry
     Harris-Foulkes estimate   =   -2136.40856483 Ry
     estimated scf accuracy    <       0.18285884 Ry

     total magnetization       =     8.00 Bohr mag/cell
     absolute magnetization    =     8.25 Bohr mag/cell

     iteration #  8     ecut=   100.00 Ry     beta= 0.70
     Davidson diagonalization with overlap
     ethr =  3.57E-05,  avg # of iterations =  2.0

     total cpu time spent up to now is     1752.3 secs

     total energy              =   -2136.38134974 Ry
     Harris-Foulkes estimate   =   -2136.39092396 Ry
     estimated scf accuracy    <       0.03675856 Ry

     total magnetization       =     8.00 Bohr mag/cell
     absolute magnetization    =     8.25 Bohr mag/cell

     iteration #  9     ecut=   100.00 Ry     beta= 0.70
     Davidson diagonalization with overlap
     ethr =  7.18E-06,  avg # of iterations =  8.5

     total cpu time spent up to now is     1981.8 secs

     total energy              =   -2136.37921047 Ry
     Harris-Foulkes estimate   =   -2136.38344125 Ry
     estimated scf accuracy    <       0.01092014 Ry

     total magnetization       =     8.00 Bohr mag/cell
     absolute magnetization    =     8.24 Bohr mag/cell

     iteration # 10     ecut=   100.00 Ry     beta= 0.70
     Davidson diagonalization with overlap
     ethr =  2.13E-06,  avg # of iterations =  4.0

     total cpu time spent up to now is     2181.8 secs

     total energy              =   -2136.37834566 Ry
     Harris-Foulkes estimate   =   -2136.38035089 Ry
     estimated scf accuracy    <       0.01523164 Ry

     total magnetization       =     8.00 Bohr mag/cell
     absolute magnetization    =     8.24 Bohr mag/cell

     iteration # 11     ecut=   100.00 Ry     beta= 0.70
     Davidson diagonalization with overlap
     ethr =  2.13E-06,  avg # of iterations =  2.0

     total cpu time spent up to now is     2362.5 secs

     total energy              =   -2136.37829437 Ry
     Harris-Foulkes estimate   =   -2136.37975929 Ry
     estimated scf accuracy    <       0.01197650 Ry

     total magnetization       =     8.00 Bohr mag/cell
     absolute magnetization    =     8.24 Bohr mag/cell

     iteration # 12     ecut=   100.00 Ry     beta= 0.70
     Davidson diagonalization with overlap
     ethr =  2.13E-06,  avg # of iterations =  3.0

     total cpu time spent up to now is     2545.2 secs

     total energy              =   -2136.37862924 Ry
     Harris-Foulkes estimate   =   -2136.37879095 Ry
     estimated scf accuracy    <       0.00109469 Ry

     total magnetization       =     8.00 Bohr mag/cell
     absolute magnetization    =     8.23 Bohr mag/cell

     iteration # 13     ecut=   100.00 Ry     beta= 0.70
     Davidson diagonalization with overlap
     ethr =  2.14E-07,  avg # of iterations =  4.0

     total cpu time spent up to now is     2746.7 secs

     total energy              =   -2136.37864741 Ry
     Harris-Foulkes estimate   =   -2136.37869040 Ry
     estimated scf accuracy    <       0.00032125 Ry

     total magnetization       =     8.00 Bohr mag/cell
     absolute magnetization    =     8.23 Bohr mag/cell

     iteration # 14     ecut=   100.00 Ry     beta= 0.70
     Davidson diagonalization with overlap
     ethr =  6.27E-08,  avg # of iterations =  5.0

     total cpu time spent up to now is     2953.5 secs

     total energy              =   -2136.37865532 Ry
     Harris-Foulkes estimate   =   -2136.37868688 Ry
     estimated scf accuracy    <       0.00020718 Ry

     total magnetization       =     8.00 Bohr mag/cell
     absolute magnetization    =     8.23 Bohr mag/cell

     iteration # 15     ecut=   100.00 Ry     beta= 0.70
     Davidson diagonalization with overlap
     ethr =  4.05E-08,  avg # of iterations =  3.0

     total cpu time spent up to now is     3141.3 secs

     total energy              =   -2136.37863287 Ry
     Harris-Foulkes estimate   =   -2136.37867919 Ry
     estimated scf accuracy    <       0.00023715 Ry

     total magnetization       =     8.00 Bohr mag/cell
     absolute magnetization    =     8.23 Bohr mag/cell

     iteration # 16     ecut=   100.00 Ry     beta= 0.70
     Davidson diagonalization with overlap
     ethr =  4.05E-08,  avg # of iterations =  4.5

     total cpu time spent up to now is     3335.8 secs

     total energy              =   -2136.37861934 Ry
     Harris-Foulkes estimate   =   -2136.37864762 Ry
     estimated scf accuracy    <       0.00002917 Ry

     total magnetization       =     8.00 Bohr mag/cell
     absolute magnetization    =     8.23 Bohr mag/cell

     iteration # 17     ecut=   100.00 Ry     beta= 0.70
     Davidson diagonalization with overlap
     ethr =  5.70E-09,  avg # of iterations =  5.5

     total cpu time spent up to now is     3566.9 secs

     total energy              =   -2136.37861806 Ry
     Harris-Foulkes estimate   =   -2136.37862449 Ry
     estimated scf accuracy    <       0.00000932 Ry

     total magnetization       =     8.00 Bohr mag/cell
     absolute magnetization    =     8.23 Bohr mag/cell

     iteration # 18     ecut=   100.00 Ry     beta= 0.70
     Davidson diagonalization with overlap
     ethr =  1.82E-09,  avg # of iterations =  4.5

     total cpu time spent up to now is     3794.4 secs

     total energy              =   -2136.37861955 Ry
     Harris-Foulkes estimate   =   -2136.37861978 Ry
     estimated scf accuracy    <       0.00000622 Ry

     total magnetization       =     8.00 Bohr mag/cell
     absolute magnetization    =     8.23 Bohr mag/cell

     iteration # 19     ecut=   100.00 Ry     beta= 0.70
     Davidson diagonalization with overlap
     ethr =  1.22E-09,  avg # of iterations =  4.0

     total cpu time spent up to now is     4017.0 secs

     total energy              =   -2136.37861965 Ry
     Harris-Foulkes estimate   =   -2136.37862071 Ry
     estimated scf accuracy    <       0.00000605 Ry

     total magnetization       =     8.00 Bohr mag/cell
     absolute magnetization    =     8.23 Bohr mag/cell

     iteration # 20     ecut=   100.00 Ry     beta= 0.70
     Davidson diagonalization with overlap
     ethr =  1.18E-09,  avg # of iterations =  4.0

     total cpu time spent up to now is     4240.1 secs

     total energy              =   -2136.37862355 Ry
     Harris-Foulkes estimate   =   -2136.37862055 Ry
     estimated scf accuracy    <       0.00000164 Ry

     total magnetization       =     8.00 Bohr mag/cell
     absolute magnetization    =     8.23 Bohr mag/cell

     iteration # 21     ecut=   100.00 Ry     beta= 0.70
     Davidson diagonalization with overlap
     ethr =  3.20E-10,  avg # of iterations =  5.0

     total cpu time spent up to now is     4482.2 secs

     total energy              =   -2136.37862378 Ry
     Harris-Foulkes estimate   =   -2136.37862413 Ry
     estimated scf accuracy    <       0.00000167 Ry

     total magnetization       =     8.00 Bohr mag/cell
     absolute magnetization    =     8.23 Bohr mag/cell

     iteration # 22     ecut=   100.00 Ry     beta= 0.70
     Davidson diagonalization with overlap
     ethr =  3.20E-10,  avg # of iterations =  4.0
 
     Magnetic moment per site:
     atom:    1    charge:    0.7040    magn:    0.0070    constr:    0.0000
     atom:    2    charge:    0.7030    magn:    0.0069    constr:    0.0000
     atom:    3    charge:    0.7038    magn:    0.0006    constr:    0.0000
     atom:    4    charge:    0.7029    magn:    0.0003    constr:    0.0000
     atom:    5    charge:    0.7124    magn:    0.0112    constr:    0.0000
     atom:    6    charge:    0.7132    magn:    0.0123    constr:    0.0000
     atom:    7    charge:    0.7040    magn:    0.0055    constr:    0.0000
     atom:    8    charge:    0.7053    magn:    0.0089    constr:    0.0000
     atom:    9    charge:    0.6810    magn:    0.0043    constr:    0.0000
     atom:   10    charge:    0.6821    magn:    0.0020    constr:    0.0000
     atom:   11    charge:    0.6980    magn:    0.0022    constr:    0.0000
     atom:   12    charge:    0.7000    magn:    0.0023    constr:    0.0000
     atom:   13    charge:    0.7693    magn:    0.0036    constr:    0.0000
     atom:   14    charge:    0.7855    magn:    0.0037    constr:    0.0000
     atom:   15    charge:    0.6954    magn:    0.0032    constr:    0.0000
     atom:   16    charge:    0.7376    magn:   -0.0005    constr:    0.0000
     atom:   17    charge:    0.7035    magn:    0.0056    constr:    0.0000
     atom:   18    charge:    0.7084    magn:    0.0141    constr:    0.0000
     atom:   19    charge:    0.7050    magn:    0.0007    constr:    0.0000
     atom:   20    charge:    0.7037    magn:   -0.0012    constr:    0.0000
     atom:   21    charge:    0.6811    magn:    0.0002    constr:    0.0000
     atom:   22    charge:    0.6797    magn:    0.0005    constr:    0.0000
     atom:   23    charge:    0.6979    magn:    0.0050    constr:    0.0000
     atom:   24    charge:    0.6917    magn:    0.0047    constr:    0.0000
     atom:   25    charge:    0.7031    magn:    0.0066    constr:    0.0000
     atom:   26    charge:    0.7041    magn:    0.0086    constr:    0.0000
     atom:   27    charge:    0.7038    magn:    0.0005    constr:    0.0000
     atom:   28    charge:    0.7032    magn:   -0.0004    constr:    0.0000
     atom:   29    charge:    0.7155    magn:    0.0124    constr:    0.0000
     atom:   30    charge:    0.7112    magn:    0.0145    constr:    0.0000
     atom:   31    charge:    0.7027    magn:    0.0051    constr:    0.0000
     atom:   32    charge:    0.7045    magn:    0.0055    constr:    0.0000
     atom:   33    charge:    0.6814    magn:    0.0049    constr:    0.0000
     atom:   34    charge:    0.6813    magn:    0.0047    constr:    0.0000
     atom:   35    charge:    0.7006    magn:    0.0027    constr:    0.0000
     atom:   36    charge:    0.6850    magn:    0.0029    constr:    0.0000
     atom:   37    charge:    0.8370    magn:    0.0033    constr:    0.0000
     atom:   38    charge:    0.8041    magn:    0.0009    constr:    0.0000
     atom:   39    charge:    0.6957    magn:    0.0038    constr:    0.0000
     atom:   40    charge:    0.6966    magn:    0.0033    constr:    0.0000
     atom:   41    charge:    0.7036    magn:    0.0048    constr:    0.0000
     atom:   42    charge:    0.7021    magn:    0.0058    constr:    0.0000
     atom:   43    charge:    0.7055    magn:    0.0026    constr:    0.0000
     atom:   44    charge:    0.7049    magn:    0.0008    constr:    0.0000
     atom:   45    charge:    0.6790    magn:   -0.0006    constr:    0.0000
     atom:   46    charge:    0.6796    magn:    0.0007    constr:    0.0000
     atom:   47    charge:    0.6806    magn:   -0.0012    constr:    0.0000
     atom:   48    charge:    0.6916    magn:    0.0038    constr:    0.0000
     atom:   49    charge:    0.7433    magn:    0.0277    constr:    0.0000
     atom:   50    charge:    0.7472    magn:    0.0273    constr:    0.0000
     atom:   51    charge:    0.7204    magn:    0.0125    constr:    0.0000
     atom:   52    charge:    0.7123    magn:    0.0114    constr:    0.0000
     atom:   53    charge:    0.7377    magn:    0.0209    constr:    0.0000
     atom:   54    charge:    0.7174    magn:    0.0128    constr:    0.0000
     atom:   55    charge:    0.7192    magn:    0.0136    constr:    0.0000
     atom:   56    charge:    0.7216    magn:    0.0138    constr:    0.0000
     atom:   57    charge:    0.5050    magn:   -0.0013    constr:    0.0000
     atom:   58    charge:    0.5013    magn:   -0.0013    constr:    0.0000
     atom:   59    charge:    0.4930    magn:   -0.0011    constr:    0.0000
     atom:   60    charge:    0.4958    magn:   -0.0012    constr:    0.0000
     atom:   61    charge:    0.5006    magn:   -0.0011    constr:    0.0000
     atom:   62    charge:    0.5014    magn:   -0.0011    constr:    0.0000
     atom:   63    charge:    0.5013    magn:   -0.0004    constr:    0.0000
     atom:   64    charge:    0.5099    magn:   -0.0006    constr:    0.0000
     atom:   65    charge:    0.5140    magn:    0.0044    constr:    0.0000
     atom:   66    charge:    0.5031    magn:   -0.0013    constr:    0.0000
     atom:   67    charge:    0.4996    magn:   -0.0017    constr:    0.0000
     atom:   68    charge:    0.5013    magn:   -0.0015    constr:    0.0000
     atom:   69    charge:    0.5039    magn:   -0.0014    constr:    0.0000
     atom:   70    charge:    0.4945    magn:   -0.0012    constr:    0.0000
     atom:   71    charge:    0.4963    magn:   -0.0015    constr:    0.0000
     atom:   72    charge:    0.4998    magn:   -0.0012    constr:    0.0000
     atom:   73    charge:    0.4996    magn:   -0.0013    constr:    0.0000
     atom:   74    charge:    0.4991    magn:   -0.0001    constr:    0.0000
     atom:   75    charge:    0.5005    magn:   -0.0003    constr:    0.0000
     atom:   76    charge:    0.4888    magn:    0.0052    constr:    0.0000
     atom:   77    charge:    0.5109    magn:   -0.0006    constr:    0.0000
     atom:   78    charge:    0.5014    magn:   -0.0008    constr:    0.0000
     atom:   79    charge:    0.5018    magn:   -0.0014    constr:    0.0000
     atom:   80    charge:    0.5027    magn:   -0.0015    constr:    0.0000
     atom:   81    charge:    2.2566    magn:    0.0286    constr:    0.0000
     atom:   82    charge:    2.2565    magn:    0.0326    constr:    0.0000
     atom:   83    charge:    2.2001    magn:    0.0147    constr:    0.0000
     atom:   84    charge:    2.2477    magn:    0.0353    constr:    0.0000
     atom:   85    charge:    2.2633    magn:    0.0351    constr:    0.0000
     atom:   86    charge:    2.2575    magn:    0.0411    constr:    0.0000
     atom:   87    charge:    2.2002    magn:    0.0143    constr:    0.0000
     atom:   88    charge:    2.2004    magn:    0.0143    constr:    0.0000
     atom:   89    charge:    2.2015    magn:    0.0187    constr:    0.0000
     atom:   90    charge:    2.2042    magn:    0.0178    constr:    0.0000
     atom:   91    charge:    2.1606    magn:    0.0080    constr:    0.0000
     atom:   92    charge:    2.1623    magn:    0.0063    constr:    0.0000
     atom:   93    charge:    2.2032    magn:    0.0155    constr:    0.0000
     atom:   94    charge:    2.1613    magn:    0.0036    constr:    0.0000
     atom:   95    charge:    2.1589    magn:    0.0069    constr:    0.0000
     atom:   96    charge:    2.1611    magn:    0.0062    constr:    0.0000
     atom:   97    charge:    7.5546    magn:    1.0685    constr:    0.0000
     atom:   98    charge:    7.5220    magn:    1.0734    constr:    0.0000
     atom:   99    charge:    7.5570    magn:    1.0783    constr:    0.0000
     atom:  100    charge:    7.5506    magn:    1.0633    constr:    0.0000
     atom:  101    charge:    2.2268    magn:    0.0137    constr:    0.0000
     atom:  102    charge:    2.2086    magn:    0.0231    constr:    0.0000
     atom:  103    charge:    2.1718    magn:    0.0342    constr:    0.0000
     atom:  104    charge:    2.1696    magn:    0.0352    constr:    0.0000
     atom:  105    charge:    2.1568    magn:    0.0346    constr:    0.0000
     atom:  106    charge:    2.1546    magn:    0.0157    constr:    0.0000
     atom:  107    charge:    2.1605    magn:    0.0306    constr:    0.0000
     atom:  108    charge:    2.1624    magn:    0.0269    constr:    0.0000
     atom:  109    charge:    2.1593    magn:    0.0336    constr:    0.0000
     atom:  110    charge:    2.2073    magn:    0.0212    constr:    0.0000
     atom:  111    charge:    2.1562    magn:    0.0320    constr:    0.0000
     atom:  112    charge:    2.1708    magn:    0.0343    constr:    0.0000
     atom:  113    charge:    2.1527    magn:    0.0160    constr:    0.0000
     atom:  114    charge:    2.1544    magn:    0.0168    constr:    0.0000
     atom:  115    charge:    2.1530    magn:    0.0309    constr:    0.0000
     atom:  116    charge:    2.1626    magn:    0.0267    constr:    0.0000
     atom:  117    charge:    2.1978    magn:    0.0090    constr:    0.0000
     atom:  118    charge:    2.2176    magn:    0.0035    constr:    0.0000
     atom:  119    charge:    2.3503    magn:    0.0200    constr:    0.0000
     atom:  120    charge:    2.3524    magn:    0.0200    constr:    0.0000
     atom:  121    charge:    2.1985    magn:    0.0090    constr:    0.0000
     atom:  122    charge:    2.2860    magn:    0.0133    constr:    0.0000
     atom:  123    charge:    2.4224    magn:    0.0212    constr:    0.0000
     atom:  124    charge:    2.3745    magn:    0.0219    constr:    0.0000

     total cpu time spent up to now is     4694.6 secs

     End of self-consistent calculation

 ------ SPIN UP ------------


          k = 0.0000 0.0000 0.0000 ( 91663 PWs)   bands (ev):

   -31.7621 -30.4795 -30.2978 -30.1013 -29.2026 -28.2941 -28.2816 -26.5465
   -21.5271 -21.4049 -21.3906 -21.0592 -21.0198 -21.0002 -20.8499 -20.7255
   -20.6566 -20.6098 -20.5599 -19.2472 -19.2214 -19.0550 -18.9160 -18.8983
   -18.8862 -18.8161 -18.7287 -18.4289 -18.4220 -18.4155 -18.3588 -18.0944
   -18.0698 -18.0286 -17.7546 -17.6911 -17.3059 -17.3008 -17.1071 -17.0981
   -17.0857 -16.8439 -16.5058 -16.3923 -15.8391 -15.2586 -14.9988 -14.8240
   -14.7684 -14.6681 -14.4092 -14.2610 -13.9742 -13.1039 -12.9943 -12.9264
   -12.8971 -12.8674 -12.8485 -12.7292 -12.7159 -12.6493 -12.5029 -12.3919
   -12.3654 -12.1464 -12.0627 -12.0216 -11.9095 -11.6964 -11.2986 -11.0637
   -10.9678 -10.9345 -10.8012 -10.7292 -10.4748 -10.4168 -10.2643 -10.1939
   -10.0143  -9.9514  -9.9353  -9.8788  -9.8226  -9.8085  -9.7873  -9.6611
    -9.2084  -9.1549  -9.0811  -8.9469  -8.7899  -8.6531  -8.6202  -8.4126
    -8.3669  -8.3233  -8.2491  -8.2224  -8.1802  -8.0219  -7.6548  -7.3394
    -7.2888  -7.1437  -7.0791  -6.9961  -6.8543  -6.8007  -6.7378  -6.6518
    -6.6245  -6.5887  -6.5427  -6.4933  -6.4386  -6.3714  -6.3140  -6.2750
    -6.2385  -6.2267  -6.1741  -6.1259  -6.1183  -6.0321  -5.9703  -5.8489
    -5.7640  -5.6936  -5.6300  -5.5744  -5.5039  -5.4746  -5.3987  -5.3374
    -5.3156  -5.2552  -5.2336  -5.1927  -5.1384  -5.0985  -5.0902  -4.9795
    -4.9734  -4.9213  -4.8676  -4.8276  -4.7673  -4.6944  -4.6428  -4.6250
    -4.6089  -4.5460  -4.5185  -4.4656  -4.4123  -4.3455  -4.0934  -4.0033
    -3.9200  -3.8227  -3.7579  -3.7432  -3.7181  -3.7048  -3.6875  -3.6408
    -3.5762  -3.5326  -3.4908  -3.4533  -3.4092  -3.3316  -3.3197  -3.3000
    -3.2575  -3.2014  -3.1871  -3.1670  -3.0422  -3.0117  -2.9618  -2.8760
    -2.8243  -2.7742  -2.7345  -2.6845  -2.6347  -2.6126  -2.5514  -2.4917
    -2.3974  -2.3497  -2.2958  -2.2394  -2.2049  -2.1267  -2.0618  -2.0572
    -1.9499  -1.9225  -1.8962  -1.8328  -1.7998  -1.7817  -1.6982  -1.6786
    -1.6129  -1.5310  -1.5019  -1.4500  -1.4182  -1.3597  -1.2944  -1.2748
    -1.2045  -1.1640  -1.1164  -1.0765  -1.0611  -1.0295  -1.0002  -0.9911
    -0.9416  -0.8865  -0.8249  -0.8168  -0.7676  -0.6653  -0.6222  -0.6053
    -0.5636  -0.5241  -0.4523  -0.4173  -0.3889  -0.3564  -0.3425  -0.2661
    -0.2229  -0.0702   0.1415   0.2747   0.7468   0.8188   0.8542   1.0064
     1.1378   1.1718   1.2096   1.2969   1.3325   1.3745   1.3980   1.4430
     1.4776   2.2279   2.3119   2.4201   2.5876   2.7489   2.8813   2.9259
     3.0606   3.0992   3.1737   3.3101   3.4420   3.5165   3.5617   3.5697
     3.6876   3.7000   3.7363   3.7990   3.9649   4.0341   4.0834   4.2700
     4.3339   4.4889   4.6390   4.7934   4.8157   4.8989   4.9844   5.0348
     5.1070   5.3725   5.3907   5.4707   5.4830   5.5639   5.6798   5.7085
     5.7935   5.8974   5.9462   5.9843   6.1123   6.1851   6.2180   6.2538
     6.3525   6.4131   6.4724   6.5947   6.6183   6.6509   6.7624   6.8327

 ------ SPIN DOWN ----------


          k = 0.0000 0.0000 0.0000 ( 91663 PWs)   bands (ev):

   -31.7007 -30.4259 -30.2519 -30.0451 -29.1402 -28.2264 -28.2202 -26.4991
   -21.4821 -21.3449 -21.3353 -20.9982 -20.9505 -20.9237 -20.7799 -20.6614
   -20.5818 -20.5399 -20.4816 -19.1760 -19.1549 -19.0114 -18.8653 -18.8471
   -18.8343 -18.7547 -18.6754 -18.3953 -18.3882 -18.3821 -18.3094 -18.0027
   -17.9760 -17.9294 -17.6546 -17.5810 -17.2502 -17.2424 -17.0694 -17.0681
   -17.0512 -16.8088 -16.4527 -16.3359 -15.7994 -15.2082 -14.9505 -14.7794
   -14.7178 -14.6229 -14.3808 -14.2329 -13.9423 -13.0456 -12.9591 -12.8746
   -12.8584 -12.8264 -12.7936 -12.6820 -12.6628 -12.5974 -12.4564 -12.3381
   -12.3199 -12.0968 -12.0111 -11.9734 -11.8546 -11.6251 -11.2361 -10.9894
   -10.9040 -10.8693 -10.7424 -10.6886 -10.4385 -10.3512 -10.2197 -10.1491
    -9.9753  -9.9185  -9.8911  -9.8388  -9.7888  -9.7649  -9.7556  -9.6169
    -9.1562  -9.1069  -9.0298  -8.9042  -8.7411  -8.6115  -8.5771  -8.3555
    -8.3140  -8.2749  -8.2032  -8.1683  -8.1275  -7.9754  -7.6021  -7.2888
    -7.2376  -7.0861  -7.0223  -6.9582  -6.8196  -6.7561  -6.7026  -6.6056
    -6.5695  -6.5388  -6.5050  -6.4480  -6.3902  -6.3207  -6.2654  -6.2394
    -6.1878  -6.1835  -6.1334  -6.0768  -6.0683  -5.9882  -5.9227  -5.8010
    -5.7239  -5.6371  -5.5927  -5.5131  -5.4415  -5.4000  -5.3290  -5.2657
    -5.2546  -5.1902  -5.1548  -5.1301  -5.0770  -5.0493  -5.0160  -4.9218
    -4.8995  -4.8610  -4.7919  -4.7536  -4.6934  -4.6339  -4.5762  -4.5652
    -4.5368  -4.4714  -4.4512  -4.3933  -4.3391  -4.2725  -4.0349  -3.9452
    -3.8616  -3.7426  -3.6820  -3.6508  -3.6474  -3.6027  -3.5883  -3.5402
    -3.4965  -3.4414  -3.3935  -3.3652  -3.3291  -3.2593  -3.2229  -3.1889
    -3.1426  -3.1256  -3.0903  -2.9893  -2.9435  -2.8676  -2.8116  -2.7460
    -2.6722  -2.6005  -2.5880  -2.5360  -2.5136  -2.4620  -2.3717  -2.3228
    -2.2870  -2.2421  -2.1660  -2.1181  -2.0639  -1.9558  -1.8700  -1.8277
    -1.7791  -1.7293  -1.6726  -1.6549  -1.6260  -1.5758  -1.5249  -1.4090
    -1.3260  -1.2988  -1.2681  -1.2270  -1.2093  -1.1138  -1.0420  -1.0199
    -0.9417  -0.8756  -0.8383  -0.7364  -0.6838  -0.5616  -0.5009  -0.4331
    -0.3971  -0.3272  -0.2880  -0.2155  -0.1603  -0.0927  -0.0631  -0.0486
     0.0336   0.0788   0.1034   0.1536   0.1720   0.2013   0.2310   0.2456
     0.2630   0.2957   0.4815   0.5085   1.0115   1.2775   1.3570   1.4195
     1.4611   1.7671   1.8773   1.8969   2.1210   2.1898   2.2266   2.2515
     2.2708   2.3860   2.4731   2.6234   2.7665   2.8949   3.0401   3.0803
     3.1955   3.2579   3.3225   3.4493   3.5682   3.6636   3.6995   3.7077
     3.8343   3.8402   3.8806   3.9446   4.0111   4.0842   4.1960   4.3721
     4.4362   4.5794   4.7178   4.7860   4.8308   4.9027   5.1120   5.1214
     5.1976   5.4541   5.4839   5.5032   5.5809   5.5988   5.6762   5.7350
     5.8162   5.9061   5.9827   6.0537   6.1572   6.2402   6.2436   6.2887
     6.3893   6.4499   6.5138   6.6257   6.6582   6.7131   6.7962   6.8773

     the spin up/dw Fermi energies are     1.9850    1.6784 ev

!    total energy              =   -2136.37862511 Ry
     Harris-Foulkes estimate   =   -2136.37862403 Ry
     estimated scf accuracy    <       0.00000093 Ry

     The total energy is the sum of the following terms:

     one-electron contribution =   -3683.01857250 Ry
     hartree contribution      =    2040.32020003 Ry
     xc contribution           =    -645.46947297 Ry
     ewald contribution        =     150.29860786 Ry
     Dispersion Correction     =      -0.64549135 Ry
     smearing contrib. (-TS)   =       2.13610383 Ry

     total magnetization       =     8.00 Bohr mag/cell
     absolute magnetization    =     8.23 Bohr mag/cell

     convergence has been achieved in  22 iterations

     Forces acting on atoms (cartesian axes, Ry/au):

     atom    1 type  1   force =    -0.02951391   -0.01126281   -0.00710376
     atom    2 type  1   force =    -0.02984852    0.01338561   -0.00513343
     atom    3 type  1   force =     0.01568643    0.00442906    0.01009553
     atom    4 type  1   force =     0.02176065   -0.00382808    0.01224003
     atom    5 type  1   force =     0.04552483    0.09810059   -0.04375357
     atom    6 type  1   force =     0.03798692   -0.12832221   -0.04484201
     atom    7 type  1   force =     0.01942410   -0.00169810   -0.01586167
     atom    8 type  1   force =     0.02541876    0.00502089   -0.02334579
     atom    9 type  1   force =     0.03358188   -0.01158269   -0.03438594
     atom   10 type  1   force =     0.04634621    0.02309692    0.00013308
     atom   11 type  1   force =    -0.02946870    0.04245023    0.00327618
     atom   12 type  1   force =    -0.03099341   -0.04274008   -0.01018706
     atom   13 type  1   force =    -0.21915252    0.74667949    0.00664320
     atom   14 type  1   force =    -0.22425740   -0.91757811    0.11933794
     atom   15 type  1   force =    -0.01582056   -0.02319322   -0.01845474
     atom   16 type  1   force =     0.03173703    0.26440074    0.08059711
     atom   17 type  1   force =    -0.01862615    0.00201693    0.02209917
     atom   18 type  1   force =    -0.04722188    0.08079679   -0.05707795
     atom   19 type  1   force =     0.00871955   -0.01714503   -0.02841324
     atom   20 type  1   force =    -0.00862311    0.01326682   -0.00935686
     atom   21 type  1   force =     0.03889285   -0.03012628    0.04487474
     atom   22 type  1   force =     0.02047509    0.03326088    0.03484691
     atom   23 type  1   force =    -0.39547183    0.28922814    0.17665240
     atom   24 type  1   force =    -0.35627011   -0.27559754    0.13366745
     atom   25 type  1   force =    -0.03483515   -0.01068692   -0.00553233
     atom   26 type  1   force =    -0.02456993   -0.00143265   -0.01893952
     atom   27 type  1   force =     0.02460480   -0.00121259    0.01796556
     atom   28 type  1   force =     0.01972720   -0.00341780    0.01467020
     atom   29 type  1   force =     0.04521299    0.15396608   -0.05595983
     atom   30 type  1   force =     0.04767969   -0.11774277   -0.07477009
     atom   31 type  1   force =     0.01958516   -0.00797686   -0.01845073
     atom   32 type  1   force =     0.02028486    0.00566916   -0.01729577
     atom   33 type  1   force =     0.02759005   -0.01325798   -0.03184132
     atom   34 type  1   force =     0.02964800    0.01443666   -0.03223048
     atom   35 type  1   force =    -0.03532024    0.05164900   -0.02174045
     atom   36 type  1   force =    -0.05312480   -0.03529597   -0.02267594
     atom   37 type  1   force =    -0.29458264    1.57749229    0.33615383
     atom   38 type  1   force =    -0.15543200   -0.94821381    0.23935619
     atom   39 type  1   force =    -0.01455681   -0.02249886   -0.01611720
     atom   40 type  1   force =    -0.02036928    0.01376246   -0.00382034
     atom   41 type  1   force =    -0.01131240    0.00245106    0.01649273
     atom   42 type  1   force =    -0.01825924    0.00262364    0.01558959
     atom   43 type  1   force =     0.00037312   -0.00153935   -0.00152823
     atom   44 type  1   force =     0.00751436    0.01560552   -0.02412110
     atom   45 type  1   force =    -0.00737362   -0.00498373   -0.00127005
     atom   46 type  1   force =     0.02089124    0.02939783    0.03248725
     atom   47 type  1   force =     0.00015944    0.00941326    0.00954461
     atom   48 type  1   force =    -0.35325756   -0.28144778    0.13891545
     atom   49 type  1   force =     0.21915254    0.41336366    0.08205885
     atom   50 type  1   force =     0.24887842   -0.48277172    0.00641383
     atom   51 type  1   force =    -0.13174153   -0.28480266   -0.25446658
     atom   52 type  1   force =    -0.10528965    0.27377565   -0.23088787
     atom   53 type  1   force =     0.22328369    0.43761676   -0.01229400
     atom   54 type  1   force =     0.17603709   -0.26011657   -0.26178526
     atom   55 type  1   force =    -0.08489879   -0.29397763   -0.22277233
     atom   56 type  1   force =    -0.13044919    0.27247913   -0.23029060
     atom   57 type  2   force =     0.01047577   -0.01150103    0.01578496
     atom   58 type  2   force =     0.00884936    0.01256278    0.01502169
     atom   59 type  2   force =    -0.00966398   -0.00406455   -0.00170259
     atom   60 type  2   force =    -0.01485046    0.00251662   -0.00346243
     atom   61 type  2   force =    -0.00420436    0.00626539    0.00891637
     atom   62 type  2   force =    -0.00350962   -0.00630898    0.00821454
     atom   63 type  2   force =     0.01408550   -0.00622555   -0.00340547
     atom   64 type  2   force =     0.02242076   -0.01003245   -0.01163182
     atom   65 type  2   force =     0.01096633    0.22983965    0.22314064
     atom   66 type  2   force =     0.01478573    0.00312677   -0.00746961
     atom   67 type  2   force =     0.01650954   -0.00070451   -0.00621778
     atom   68 type  2   force =     0.00975046   -0.00433909    0.01322886
     atom   69 type  2   force =     0.01107845    0.01098515    0.01594436
     atom   70 type  2   force =    -0.01023815   -0.00328474   -0.00330115
     atom   71 type  2   force =    -0.01202280    0.00386976   -0.00348497
     atom   72 type  2   force =    -0.00857761    0.00556334    0.01063495
     atom   73 type  2   force =    -0.00387635   -0.00623876    0.00858997
     atom   74 type  2   force =     0.01522948   -0.00978788   -0.00286819
     atom   75 type  2   force =     0.01533757    0.00712097   -0.00219305
     atom   76 type  2   force =     0.03048396   -0.21837554    0.25906975
     atom   77 type  2   force =     0.02313237   -0.00949896   -0.00935975
     atom   78 type  2   force =     0.01442865    0.00742720   -0.01021405
     atom   79 type  2   force =     0.01492340    0.00320648   -0.00790676
     atom   80 type  2   force =     0.01735669   -0.00355705   -0.00700159
     atom   81 type  3   force =    -0.61451045    0.27886750   -0.04595820
     atom   82 type  3   force =    -0.69941960   -0.30290063   -0.00512846
     atom   83 type  3   force =     0.00395333    0.02441844    0.01145030
     atom   84 type  3   force =     0.50815119    0.21226238   -0.00864803
     atom   85 type  3   force =    -0.79540977    0.33598571    0.01427066
     atom   86 type  3   force =    -0.70718297   -0.29471400    0.01872566
     atom   87 type  3   force =     0.00430957    0.02630627    0.01133727
     atom   88 type  3   force =     0.01135939   -0.02092292    0.00785812
     atom   89 type  3   force =     0.06091734    0.04236613    0.55260214
     atom   90 type  3   force =     0.03866783   -0.03854886    0.53251402
     atom   91 type  3   force =     0.00275477    0.03833265    0.08149293
     atom   92 type  3   force =     0.00062260   -0.07395897    0.08021175
     atom   93 type  3   force =     0.05885254    0.00842986    0.53560975
     atom   94 type  3   force =    -0.00941101    0.07890054    0.08616667
     atom   95 type  3   force =    -0.00269488    0.05133041    0.07011231
     atom   96 type  3   force =    -0.00111868   -0.05312133    0.07438984
     atom   97 type  4   force =    -0.11332553    0.04014117   -0.01097947
     atom   98 type  4   force =    -0.00767735   -0.00127034    0.08250978
     atom   99 type  4   force =    -0.11212601    0.03319466   -0.00127053
     atom  100 type  4   force =    -0.14228928   -0.05354408    0.01744451
     atom  101 type  5   force =    -0.14215934    0.40790105   -0.42268170
     atom  102 type  5   force =    -0.05595601   -0.36691508   -0.35475048
     atom  103 type  5   force =     0.10152405   -0.01596775    0.01656981
     atom  104 type  5   force =     0.10023337    0.01105950    0.00376931
     atom  105 type  5   force =    -0.02483671    0.00982519    0.01669828
     atom  106 type  5   force =     0.05479199   -0.03806587    0.00010447
     atom  107 type  5   force =     0.01358552   -0.01929259    0.02549813
     atom  108 type  5   force =    -0.01024740    0.02829753    0.02093806
     atom  109 type  5   force =     0.03038044    0.00670886   -0.00063262
     atom  110 type  5   force =    -0.05294180   -0.35411986   -0.35138135
     atom  111 type  5   force =    -0.03778274   -0.00959265   -0.00833946
     atom  112 type  5   force =     0.10225258    0.01230728    0.00480305
     atom  113 type  5   force =     0.06336413    0.03320312   -0.00363747
     atom  114 type  5   force =     0.05447071   -0.03630248   -0.00191836
     atom  115 type  5   force =    -0.00052172   -0.01630585    0.01071544
     atom  116 type  5   force =    -0.01212321    0.02980157    0.02128877
     atom  117 type  5   force =     0.27638712    0.24130728    0.35857430
     atom  118 type  5   force =     0.35131869   -0.23882190    0.43246484
     atom  119 type  5   force =     0.69061253   -1.01913163   -0.52243621
     atom  120 type  5   force =     0.89784571    1.38464174   -0.33875882
     atom  121 type  5   force =     0.27392706    0.22862369    0.35177717
     atom  122 type  5   force =    -0.53511029   -0.49931196   -0.15779720
     atom  123 type  5   force =     0.91412163   -1.95052201   -0.79622944
     atom  124 type  5   force =     0.68403385    1.18516779   -0.60508223

     Total force =     5.104357     Total SCF correction =     0.002506

     BFGS Geometry Optimization

     number of scf cycles    =   1
     number of bfgs steps    =   0

     energy   new            =   -2136.3786251065 Ry

     new trust radius        =       0.5000000000 bohr
     new conv_thr            =       0.0000010000 Ry


ATOMIC_POSITIONS (crystal)
C             0.2879386450        0.9699463857        0.5219043414
C             0.0381029644        0.0312291435        0.0222504359
C             0.3907805760        0.0118107460        0.5466052070
C             0.1404469741        0.9877087829        0.0462832545
C             0.4523254813        0.9711044951        0.6498803661
C             0.2028608139        0.0271724753        0.1493901607
C             0.2083567130        0.5296883780        0.5262061339
C             0.4587744132        0.4714551906        0.0276422102
C             0.2454393651        0.6132244428        0.6060494106
C             0.4972460049        0.3888894845        0.1086184923
C             0.2492051798        0.8895965290        0.6032397377
C             0.0007813854        0.1118388045        0.1041327667
C             0.4059593506        0.8962522204        0.7276264941
C             0.1578933192        0.1011055651        0.2291502050
C             0.0887124824        0.6087696296        0.7271450564
C             0.3411988347        0.3940654051        0.2302977818
C             0.0467579113        0.5250975551        0.6515598107
C             0.2972113065        0.4754543055        0.1521139521
C             0.1082385328        0.4841122710        0.5497973860
C             0.3577506476        0.5157780506        0.0505330762
C             0.4336774695        0.0990418475        0.4671242063
C             0.1817127442        0.9000259898        0.9660627585
C             0.0637706542        0.3971348094        0.4726569050
C             0.3127880388        0.6016365878        0.9706058901
C             0.7878899422        0.9699516836        0.5219219628
C             0.5381487774        0.0310928201        0.0220956203
C             0.8908643451        0.0117588445        0.5466934581
C             0.6404287363        0.9877125573        0.0463105054
C             0.9523201173        0.9716184403        0.6497434902
C             0.7029440037        0.0272698030        0.1490545599
C             0.7083586684        0.5296306153        0.5261771014
C             0.9587293504        0.4714611545        0.0277100526
C             0.7453846831        0.6132090307        0.6060779450
C             0.9970855631        0.3888098128        0.1082555811
C             0.7491461655        0.8896811548        0.6029592118
C             0.5005749449        0.1119072880        0.1039927216
C             0.9053316756        0.9038954413        0.7313214865
C             0.6585508862        0.1008237262        0.2304960389
C             0.5887246021        0.6087760174        0.7271712686
C             0.8407015626        0.3917596104        0.2293511604
C             0.5468241471        0.5251015490        0.6514969424
C             0.7974929630        0.4747351367        0.1529288150
C             0.6081671256        0.4842558385        0.5500988631
C             0.8578963055        0.5157995659        0.0503675162
C             0.9332418092        0.0992731512        0.4666067582
C             0.6817160965        0.8999904509        0.9660362983
C             0.5673804168        0.3945605991        0.4707830292
C             0.8128168638        0.6015827674        0.9706647390
C             0.4411377519        0.7806678179        0.9127641732
C             0.1985871724        0.2221226494        0.4065799220
C             0.3885433621        0.7302419036        0.6473055197
C             0.6393338695        0.2692686513        0.1449409214
C             0.9411565558        0.7808909389        0.9117061403
C             0.3556883668        0.2245750080        0.1452324511
C             0.8855923823        0.7352764967        0.6418749256
C             0.1391022019        0.2692557238        0.1449476189
H             0.2372237325        0.9994691941        0.4432900058
H             0.4866225928        0.0028075737        0.9436674469
H             0.0319736204        0.9987676074        0.6735009079
H             0.2822024793        0.9986881521        0.1725631738
H             0.2586630858        0.5009526397        0.4493819843
H             0.0086103430        0.5003389593        0.9506401143
H             0.1702830717        0.8550657268        0.5885218126
H             0.0439331839        0.6428517046        0.8064775657
H             0.2965245689        0.3596404537        0.3115532045
H             0.4688066934        0.4932597653        0.6734182390
H             0.2191028299        0.5051945187        0.1751942765
H             0.7372165286        0.9995350817        0.4432613429
H             0.9866433173        0.0027930600        0.9436777933
H             0.5319670044        0.9987747814        0.6734829823
H             0.7822285253        0.9987006006        0.1725629210
H             0.7586231467        0.5009461810        0.4494012558
H             0.5086070411        0.5003396054        0.9506443243
H             0.6702937206        0.8550329546        0.5885278374
H             0.9224628541        0.1477975108        0.0898614081
H             0.7065737131        0.1410940125        0.3117020983
H             0.5439402034        0.6428566125        0.8065030437
H             0.7965088436        0.3575943279        0.3089364639
H             0.9688078724        0.4932604986        0.6734133369
H             0.7191104745        0.5051682763        0.1751854872
N             0.3027662680        0.8538184948        0.7043126443
N             0.0542843508        0.1460704079        0.2059944916
N             0.1865807580        0.6505346421        0.7059663988
N             0.4434897229        0.3528807483        0.2079440247
N             0.8011119730        0.8543439646        0.7049880251
N             0.5542176967        0.1461457224        0.2062619816
N             0.6865850168        0.6505520095        0.7059651313
N             0.9389162553        0.3507355156        0.2081291176
N             0.4743829934        0.8473627553        0.8414296461
N             0.2274419139        0.1509563624        0.3406323864
N             0.3495190102        0.6602376486        0.5809318271
N             0.6018781055        0.3428896004        0.0831444606
N             0.9743605030        0.8470505521        0.8412391006
N             0.3947828833        0.1572198606        0.0777512365
N             0.8492184812        0.6607332239        0.5803802097
N             0.1018608754        0.3430803002        0.0830791761
Ni            0.2459557155        0.7518552863        0.8362028809
Ni            0.4999181088        0.2479873133        0.3401032297
Ni            0.7459687479        0.7517913806        0.8363117529
Ni            0.9986646795        0.2475064110        0.3393736153
O             0.1213820557        0.3514415636        0.3781332267
O             0.3706200919        0.6476014947        0.8773139785
O             0.3785687009        0.1473601017        0.3773638068
O             0.1260221977        0.8524537440        0.8763032674
O             0.4728435925        0.3562503887        0.4831812474
O             0.2216418082        0.6410648058        0.9798781714
O             0.0289703641        0.1349805141        0.4813639252
O             0.2765958659        0.8630183285        0.9796337905
O             0.6230587594        0.3477507195        0.3828659061
O             0.8706485487        0.6477192068        0.8773517585
O             0.8772802138        0.1474187506        0.3770844848
O             0.6260410113        0.8524652231        0.8763148593
O             0.9736520178        0.3564654584        0.4829532109
O             0.7216384355        0.6410810284        0.9798554883
O             0.5288373803        0.1350079912        0.4811981584
O             0.7765786561        0.8630321652        0.9796377232
O             0.4080704731        0.7126189523        0.9878999001
O             0.1696958810        0.2957459123        0.4788554774
O             0.4335218462        0.7926493041        0.7114656220
O             0.6842545259        0.2066472759        0.2062673023
O             0.9080464219        0.7125022672        0.9878236800
O             0.3113359406        0.2891724843        0.2147595291
O             0.9291431118        0.7937178007        0.6975014208
O             0.1822293718        0.2048111772        0.2032808645



     Writing output data file /nfs/hpc/share/gantzlen/NiPyC2_relax_sc211_ortho_functionalized_N-C-O_vdw-df2_relax.save/
     NEW-OLD atomic charge density approx. for the potential

     Check: negative core charge=   -0.000145

     total cpu time spent up to now is     4764.4 secs

     Self-consistent Calculation

     iteration #  1     ecut=   100.00 Ry     beta= 0.70
     Davidson diagonalization with overlap
     ethr =  1.00E-06,  avg # of iterations = 19.0

     total cpu time spent up to now is     5816.9 secs

     total energy              =   -2139.50775128 Ry
     Harris-Foulkes estimate   =   -2139.78227668 Ry
     estimated scf accuracy    <       0.83266582 Ry

     total magnetization       =     8.00 Bohr mag/cell
     absolute magnetization    =     8.25 Bohr mag/cell

     iteration #  2     ecut=   100.00 Ry     beta= 0.70
     Davidson diagonalization with overlap
     ethr =  1.63E-04,  avg # of iterations =  2.0

     total cpu time spent up to now is     6006.5 secs

     total energy              =   -2139.49098801 Ry
     Harris-Foulkes estimate   =   -2139.64524553 Ry
     estimated scf accuracy    <       0.80661287 Ry

     total magnetization       =     8.00 Bohr mag/cell
     absolute magnetization    =     8.24 Bohr mag/cell

     iteration #  3     ecut=   100.00 Ry     beta= 0.70
     Davidson diagonalization with overlap
     ethr =  1.58E-04,  avg # of iterations =  2.0

     total cpu time spent up to now is     6189.1 secs

     total energy              =   -2139.54082890 Ry
     Harris-Foulkes estimate   =   -2139.62359241 Ry
     estimated scf accuracy    <       0.60304806 Ry

     total magnetization       =     8.00 Bohr mag/cell
     absolute magnetization    =     8.26 Bohr mag/cell

     iteration #  4     ecut=   100.00 Ry     beta= 0.70
     Davidson diagonalization with overlap
     ethr =  1.18E-04,  avg # of iterations =  1.0

     total cpu time spent up to now is     6367.5 secs

     total energy              =   -2139.58035480 Ry
     Harris-Foulkes estimate   =   -2139.58660010 Ry
     estimated scf accuracy    <       0.04426166 Ry

     total magnetization       =     8.00 Bohr mag/cell
     absolute magnetization    =     8.25 Bohr mag/cell

     iteration #  5     ecut=   100.00 Ry     beta= 0.70
     Davidson diagonalization with overlap
     ethr =  8.64E-06,  avg # of iterations = 12.0

     total cpu time spent up to now is     6589.0 secs

     total energy              =   -2139.58181536 Ry
     Harris-Foulkes estimate   =   -2139.58768541 Ry
     estimated scf accuracy    <       0.08024203 Ry

     total magnetization       =     8.00 Bohr mag/cell
     absolute magnetization    =     8.25 Bohr mag/cell

     iteration #  6     ecut=   100.00 Ry     beta= 0.70
     Davidson diagonalization with overlap
     ethr =  8.64E-06,  avg # of iterations =  1.0

     total cpu time spent up to now is     6767.4 secs

     total energy              =   -2139.58384384 Ry
     Harris-Foulkes estimate   =   -2139.58469425 Ry
     estimated scf accuracy    <       0.00313339 Ry

     total magnetization       =     8.00 Bohr mag/cell
     absolute magnetization    =     8.25 Bohr mag/cell

     iteration #  7     ecut=   100.00 Ry     beta= 0.70
     Davidson diagonalization with overlap
     ethr =  6.12E-07,  avg # of iterations =  3.0

     total cpu time spent up to now is     6963.9 secs

     total energy              =   -2139.58385170 Ry
     Harris-Foulkes estimate   =   -2139.58423134 Ry
     estimated scf accuracy    <       0.00235718 Ry

     total magnetization       =     8.00 Bohr mag/cell
     absolute magnetization    =     8.25 Bohr mag/cell

     iteration #  8     ecut=   100.00 Ry     beta= 0.70
     Davidson diagonalization with overlap
     ethr =  4.60E-07,  avg # of iterations =  1.5

     total cpu time spent up to now is     7143.3 secs

     total energy              =   -2139.58388190 Ry
     Harris-Foulkes estimate   =   -2139.58419498 Ry
     estimated scf accuracy    <       0.00408513 Ry

     total magnetization       =     8.00 Bohr mag/cell
     absolute magnetization    =     8.25 Bohr mag/cell

     iteration #  9     ecut=   100.00 Ry     beta= 0.70
     Davidson diagonalization with overlap
     ethr =  4.60E-07,  avg # of iterations =  1.5

     total cpu time spent up to now is     7322.9 secs

     total energy              =   -2139.58392999 Ry
     Harris-Foulkes estimate   =   -2139.58401451 Ry
     estimated scf accuracy    <       0.00028300 Ry

     total magnetization       =     8.00 Bohr mag/cell
     absolute magnetization    =     8.25 Bohr mag/cell

     iteration # 10     ecut=   100.00 Ry     beta= 0.70
     Davidson diagonalization with overlap
     ethr =  5.53E-08,  avg # of iterations =  3.5

     total cpu time spent up to now is     7526.4 secs

     total energy              =   -2139.58391185 Ry
     Harris-Foulkes estimate   =   -2139.58395715 Ry
     estimated scf accuracy    <       0.00015044 Ry

     total magnetization       =     8.00 Bohr mag/cell
     absolute magnetization    =     8.25 Bohr mag/cell

     iteration # 11     ecut=   100.00 Ry     beta= 0.70
     Davidson diagonalization with overlap
     ethr =  2.94E-08,  avg # of iterations =  3.0

     total cpu time spent up to now is     7715.8 secs

     total energy              =   -2139.58389951 Ry
     Harris-Foulkes estimate   =   -2139.58392246 Ry
     estimated scf accuracy    <       0.00007989 Ry

     total magnetization       =     8.00 Bohr mag/cell
     absolute magnetization    =     8.25 Bohr mag/cell

     iteration # 12     ecut=   100.00 Ry     beta= 0.70
     Davidson diagonalization with overlap
     ethr =  1.56E-08,  avg # of iterations =  3.0

     total cpu time spent up to now is     7906.1 secs

     total energy              =   -2139.58387693 Ry
     Harris-Foulkes estimate   =   -2139.58391066 Ry
     estimated scf accuracy    <       0.00017356 Ry

     total magnetization       =     8.00 Bohr mag/cell
     absolute magnetization    =     8.25 Bohr mag/cell

     iteration # 13     ecut=   100.00 Ry     beta= 0.70
     Davidson diagonalization with overlap
     ethr =  1.56E-08,  avg # of iterations =  3.0

     total cpu time spent up to now is     8096.0 secs

     total energy              =   -2139.58385318 Ry
     Harris-Foulkes estimate   =   -2139.58388518 Ry
     estimated scf accuracy    <       0.00002003 Ry

     total magnetization       =     8.00 Bohr mag/cell
     absolute magnetization    =     8.25 Bohr mag/cell

     iteration # 14     ecut=   100.00 Ry     beta= 0.70
     Davidson diagonalization with overlap
     ethr =  3.91E-09,  avg # of iterations =  4.0

     total cpu time spent up to now is     8316.4 secs

     total energy              =   -2139.58383888 Ry
     Harris-Foulkes estimate   =   -2139.58385584 Ry
     estimated scf accuracy    <       0.00001515 Ry

     total magnetization       =     8.00 Bohr mag/cell
     absolute magnetization    =     8.25 Bohr mag/cell

     iteration # 15     ecut=   100.00 Ry     beta= 0.70
     Davidson diagonalization with overlap
     ethr =  2.96E-09,  avg # of iterations =  4.0

     total cpu time spent up to now is     8520.8 secs

     total energy              =   -2139.58382720 Ry
     Harris-Foulkes estimate   =   -2139.58384097 Ry
     estimated scf accuracy    <       0.00001556 Ry

     total magnetization       =     8.00 Bohr mag/cell
     absolute magnetization    =     8.25 Bohr mag/cell

     iteration # 16     ecut=   100.00 Ry     beta= 0.70
     Davidson diagonalization with overlap
     ethr =  2.96E-09,  avg # of iterations =  4.0

     total cpu time spent up to now is     8717.4 secs

     total energy              =   -2139.58381694 Ry
     Harris-Foulkes estimate   =   -2139.58382886 Ry
     estimated scf accuracy    <       0.00000830 Ry

     total magnetization       =     8.00 Bohr mag/cell
     absolute magnetization    =     8.25 Bohr mag/cell

     iteration # 17     ecut=   100.00 Ry     beta= 0.70
     Davidson diagonalization with overlap
     ethr =  1.62E-09,  avg # of iterations =  4.5

     total cpu time spent up to now is     8927.6 secs

     total energy              =   -2139.58380891 Ry
     Harris-Foulkes estimate   =   -2139.58381795 Ry
     estimated scf accuracy    <       0.00000253 Ry

     total magnetization       =     8.00 Bohr mag/cell
     absolute magnetization    =     8.25 Bohr mag/cell

     iteration # 18     ecut=   100.00 Ry     beta= 0.70
     Davidson diagonalization with overlap
     ethr =  4.95E-10,  avg # of iterations =  5.0

     total cpu time spent up to now is     9161.2 secs

     total energy              =   -2139.58380483 Ry
     Harris-Foulkes estimate   =   -2139.58380965 Ry
     estimated scf accuracy    <       0.00000463 Ry

     total magnetization       =     8.00 Bohr mag/cell
     absolute magnetization    =     8.25 Bohr mag/cell

     iteration # 19     ecut=   100.00 Ry     beta= 0.70
     Davidson diagonalization with overlap
     ethr =  4.95E-10,  avg # of iterations =  4.5
 
     Magnetic moment per site:
     atom:    1    charge:    0.7052    magn:    0.0085    constr:    0.0000
     atom:    2    charge:    0.7043    magn:    0.0084    constr:    0.0000
     atom:    3    charge:    0.7051    magn:    0.0011    constr:    0.0000
     atom:    4    charge:    0.7044    magn:    0.0011    constr:    0.0000
     atom:    5    charge:    0.7202    magn:    0.0093    constr:    0.0000
     atom:    6    charge:    0.7220    magn:    0.0094    constr:    0.0000
     atom:    7    charge:    0.7040    magn:    0.0056    constr:    0.0000
     atom:    8    charge:    0.7050    magn:    0.0099    constr:    0.0000
     atom:    9    charge:    0.6799    magn:    0.0044    constr:    0.0000
     atom:   10    charge:    0.6890    magn:    0.0010    constr:    0.0000
     atom:   11    charge:    0.7085    magn:    0.0004    constr:    0.0000
     atom:   12    charge:    0.7107    magn:    0.0002    constr:    0.0000
     atom:   13    charge:    0.6751    magn:    0.0047    constr:    0.0000
     atom:   14    charge:    0.6680    magn:    0.0054    constr:    0.0000
     atom:   15    charge:    0.6957    magn:    0.0034    constr:    0.0000
     atom:   16    charge:    0.7044    magn:   -0.0003    constr:    0.0000
     atom:   17    charge:    0.7041    magn:    0.0057    constr:    0.0000
     atom:   18    charge:    0.7108    magn:    0.0136    constr:    0.0000
     atom:   19    charge:    0.7079    magn:    0.0012    constr:    0.0000
     atom:   20    charge:    0.7073    magn:   -0.0010    constr:    0.0000
     atom:   21    charge:    0.6831    magn:    0.0000    constr:    0.0000
     atom:   22    charge:    0.6819    magn:    0.0003    constr:    0.0000
     atom:   23    charge:    0.6842    magn:    0.0034    constr:    0.0000
     atom:   24    charge:    0.6802    magn:    0.0032    constr:    0.0000
     atom:   25    charge:    0.7046    magn:    0.0083    constr:    0.0000
     atom:   26    charge:    0.7051    magn:    0.0097    constr:    0.0000
     atom:   27    charge:    0.7052    magn:    0.0021    constr:    0.0000
     atom:   28    charge:    0.7050    magn:    0.0000    constr:    0.0000
     atom:   29    charge:    0.7293    magn:    0.0074    constr:    0.0000
     atom:   30    charge:    0.7198    magn:    0.0123    constr:    0.0000
     atom:   31    charge:    0.7034    magn:    0.0056    constr:    0.0000
     atom:   32    charge:    0.7046    magn:    0.0058    constr:    0.0000
     atom:   33    charge:    0.6786    magn:    0.0038    constr:    0.0000
     atom:   34    charge:    0.6799    magn:    0.0046    constr:    0.0000
     atom:   35    charge:    0.7112    magn:   -0.0005    constr:    0.0000
     atom:   36    charge:    0.6942    magn:    0.0012    constr:    0.0000
     atom:   37    charge:    0.6182    magn:    0.0055    constr:    0.0000
     atom:   38    charge:    0.6816    magn:    0.0004    constr:    0.0000
     atom:   39    charge:    0.6959    magn:    0.0039    constr:    0.0000
     atom:   40    charge:    0.6964    magn:    0.0037    constr:    0.0000
     atom:   41    charge:    0.7046    magn:    0.0052    constr:    0.0000
     atom:   42    charge:    0.7025    magn:    0.0060    constr:    0.0000
     atom:   43    charge:    0.7050    magn:    0.0030    constr:    0.0000
     atom:   44    charge:    0.7073    magn:    0.0013    constr:    0.0000
     atom:   45    charge:    0.6790    magn:   -0.0010    constr:    0.0000
     atom:   46    charge:    0.6821    magn:    0.0004    constr:    0.0000
     atom:   47    charge:    0.6800    magn:   -0.0015    constr:    0.0000
     atom:   48    charge:    0.6798    magn:    0.0025    constr:    0.0000
     atom:   49    charge:    0.7375    magn:    0.0125    constr:    0.0000
     atom:   50    charge:    0.7376    magn:    0.0132    constr:    0.0000
     atom:   51    charge:    0.7428    magn:    0.0067    constr:    0.0000
     atom:   52    charge:    0.7435    magn:    0.0051    constr:    0.0000
     atom:   53    charge:    0.7319    magn:    0.0090    constr:    0.0000
     atom:   54    charge:    0.7196    magn:    0.0085    constr:    0.0000
     atom:   55    charge:    0.7949    magn:    0.0034    constr:    0.0000
     atom:   56    charge:    0.7575    magn:    0.0065    constr:    0.0000
     atom:   57    charge:    0.5065    magn:   -0.0015    constr:    0.0000
     atom:   58    charge:    0.5035    magn:   -0.0013    constr:    0.0000
     atom:   59    charge:    0.5003    magn:   -0.0010    constr:    0.0000
     atom:   60    charge:    0.5013    magn:   -0.0011    constr:    0.0000
     atom:   61    charge:    0.5025    magn:   -0.0012    constr:    0.0000
     atom:   62    charge:    0.5033    magn:   -0.0012    constr:    0.0000
     atom:   63    charge:    0.5048    magn:   -0.0004    constr:    0.0000
     atom:   64    charge:    0.5085    magn:   -0.0008    constr:    0.0000
     atom:   65    charge:    0.5066    magn:    0.0036    constr:    0.0000
     atom:   66    charge:    0.5042    magn:   -0.0014    constr:    0.0000
     atom:   67    charge:    0.5046    magn:   -0.0017    constr:    0.0000
     atom:   68    charge:    0.5036    magn:   -0.0017    constr:    0.0000
     atom:   69    charge:    0.5055    magn:   -0.0015    constr:    0.0000
     atom:   70    charge:    0.4990    magn:   -0.0012    constr:    0.0000
     atom:   71    charge:    0.5032    magn:   -0.0016    constr:    0.0000
     atom:   72    charge:    0.5022    magn:   -0.0013    constr:    0.0000
     atom:   73    charge:    0.5021    magn:   -0.0015    constr:    0.0000
     atom:   74    charge:    0.5051    magn:   -0.0003    constr:    0.0000
     atom:   75    charge:    0.5046    magn:   -0.0003    constr:    0.0000
     atom:   76    charge:    0.4680    magn:    0.0034    constr:    0.0000
     atom:   77    charge:    0.5095    magn:   -0.0007    constr:    0.0000
     atom:   78    charge:    0.5019    magn:   -0.0008    constr:    0.0000
     atom:   79    charge:    0.5037    magn:   -0.0015    constr:    0.0000
     atom:   80    charge:    0.5049    magn:   -0.0015    constr:    0.0000
     atom:   81    charge:    2.2130    magn:    0.0269    constr:    0.0000
     atom:   82    charge:    2.1985    magn:    0.0309    constr:    0.0000
     atom:   83    charge:    2.1962    magn:    0.0157    constr:    0.0000
     atom:   84    charge:    2.2161    magn:    0.0328    constr:    0.0000
     atom:   85    charge:    2.1813    magn:    0.0322    constr:    0.0000
     atom:   86    charge:    2.1952    magn:    0.0341    constr:    0.0000
     atom:   87    charge:    2.1967    magn:    0.0158    constr:    0.0000
     atom:   88    charge:    2.1964    magn:    0.0155    constr:    0.0000
     atom:   89    charge:    2.1973    magn:    0.0260    constr:    0.0000
     atom:   90    charge:    2.2099    magn:    0.0196    constr:    0.0000
     atom:   91    charge:    2.2002    magn:    0.0042    constr:    0.0000
     atom:   92    charge:    2.2027    magn:    0.0047    constr:    0.0000
     atom:   93    charge:    2.1954    magn:    0.0209    constr:    0.0000
     atom:   94    charge:    2.1999    magn:    0.0014    constr:    0.0000
     atom:   95    charge:    2.2047    magn:    0.0082    constr:    0.0000
     atom:   96    charge:    2.1999    magn:    0.0032    constr:    0.0000
     atom:   97    charge:    7.5357    magn:    1.1253    constr:    0.0000
     atom:   98    charge:    7.5105    magn:    1.1111    constr:    0.0000
     atom:   99    charge:    7.5351    magn:    1.1195    constr:    0.0000
[...]
     1.6178   1.6653   1.6933   1.7934   2.9306   2.9581   2.9923   3.0099
     3.0553   3.0835   3.0858   3.1992   3.8428   3.9493   3.9813   4.0134
     4.0509   4.0596   4.1269   4.2067   4.2602   4.7357   4.7865   4.8974
     5.1018   5.1257   5.2973   5.3289   5.3619   5.3864   5.4145   5.4566
     5.4858   5.5747   5.6320   5.6607   5.7065   5.7471   5.8086   5.8207
     5.8618   5.8656   5.9439   5.9774   6.0577   6.2824   6.3972   6.6077
     6.6720   6.7558   6.8388   6.9075   6.9490   7.0194   7.0517   7.0951

     the spin up/dw Fermi energies are     1.2392    0.9753 ev

!    total energy              =   -2145.14714369 Ry
     Harris-Foulkes estimate   =   -2145.14714425 Ry
     estimated scf accuracy    <       0.00000015 Ry

     The total energy is the sum of the following terms:

     one-electron contribution =   -2486.05344384 Ry
     hartree contribution      =    1447.17422911 Ry
     xc contribution           =    -640.33600581 Ry
     ewald contribution        =    -468.38787613 Ry
     Dispersion Correction     =      -0.63854910 Ry
     smearing contrib. (-TS)   =       3.09450209 Ry

     total magnetization       =     8.00 Bohr mag/cell
     absolute magnetization    =     8.36 Bohr mag/cell

     convergence has been achieved in  11 iterations

     Forces acting on atoms (cartesian axes, Ry/au):

     atom    1 type  1   force =     0.00193788    0.00129997    0.00012860
     atom    2 type  1   force =     0.00205616    0.00123789   -0.00133635
     atom    3 type  1   force =     0.00196984    0.00022008   -0.00034309
     atom    4 type  1   force =     0.00166260    0.00129253   -0.00103828
     atom    5 type  1   force =     0.00148339    0.00018855    0.00007694
     atom    6 type  1   force =     0.00172747    0.00075710    0.00021502
     atom    7 type  1   force =     0.00139616   -0.00074276   -0.00106147
     atom    8 type  1   force =    -0.00057533    0.00067543   -0.00130866
     atom    9 type  1   force =    -0.00188451   -0.00028342    0.00117937
     atom   10 type  1   force =    -0.00155693    0.00078750    0.00189538
     atom   11 type  1   force =     0.00118269    0.00009441    0.00116005
     atom   12 type  1   force =    -0.00167984   -0.00178723    0.00163926
     atom   13 type  1   force =    -0.00089847    0.00125603   -0.00049182
     atom   14 type  1   force =     0.00030298    0.00019541    0.00066063
     atom   15 type  1   force =    -0.00042717    0.00043747    0.00039191
     atom   16 type  1   force =    -0.00126816    0.00060580    0.00079189
     atom   17 type  1   force =     0.00147843    0.00133025   -0.00070172
     atom   18 type  1   force =    -0.00097989    0.00033466   -0.00035583
     atom   19 type  1   force =    -0.00139357    0.00056807    0.00178211
     atom   20 type  1   force =    -0.00051006    0.00009524    0.00038879
     atom   21 type  1   force =     0.00279961    0.00003941    0.00020502
     atom   22 type  1   force =     0.00083477    0.00008076   -0.00035931
     atom   23 type  1   force =    -0.00238764    0.00159994    0.00133849
     atom   24 type  1   force =    -0.00035472   -0.00072512   -0.00093690
     atom   25 type  1   force =    -0.00083855    0.00053877    0.00005185
     atom   26 type  1   force =     0.00149578    0.00146364   -0.00033130
     atom   27 type  1   force =    -0.00289298    0.00173289    0.00043927
     atom   28 type  1   force =     0.00054925    0.00109558   -0.00059358
     atom   29 type  1   force =     0.00049919    0.00040308   -0.00087941
     atom   30 type  1   force =     0.00169718    0.00126660    0.00070085
     atom   31 type  1   force =    -0.00090138    0.00001862    0.00244844
     atom   32 type  1   force =    -0.00230492   -0.00233901    0.00035742
     atom   33 type  1   force =     0.00002796   -0.00004371    0.00033135
     atom   34 type  1   force =    -0.00081705   -0.00133290   -0.00112026
     atom   35 type  1   force =     0.00162784   -0.00147785   -0.00212705
     atom   36 type  1   force =     0.00021161    0.00071446   -0.00090075
     atom   37 type  1   force =    -0.00020614    0.00403586    0.00299275
     atom   38 type  1   force =    -0.00028809   -0.00201237    0.00015061
     atom   39 type  1   force =     0.00154080    0.00001574   -0.00044491
     atom   40 type  1   force =    -0.00186163    0.00005425   -0.00139401
     atom   41 type  1   force =    -0.00213091    0.00086968    0.00140140
     atom   42 type  1   force =    -0.00163397   -0.00107187   -0.00056684
     atom   43 type  1   force =    -0.00009963    0.00125863    0.00114668
     atom   44 type  1   force =     0.00050825    0.00030110   -0.00044528
     atom   45 type  1   force =     0.00071672    0.00009636   -0.00042279
     atom   46 type  1   force =     0.00052600   -0.00093034    0.00143865
     atom   47 type  1   force =    -0.00006267    0.00165866    0.00141930
     atom   48 type  1   force =    -0.00001876   -0.00014346    0.00145345
     atom   49 type  1   force =    -0.00161847   -0.00075277    0.00060120
     atom   50 type  1   force =     0.00321363   -0.00024875    0.00005238
     atom   51 type  1   force =    -0.00370613   -0.00554334   -0.00080882
     atom   52 type  1   force =    -0.00376659    0.00117961   -0.00058562
     atom   53 type  1   force =    -0.00003927   -0.00162400    0.00125629
     atom   54 type  1   force =    -0.00170676   -0.00019727   -0.00046899
     atom   55 type  1   force =    -0.00427658   -0.00144461   -0.00067077
     atom   56 type  1   force =    -0.00254238    0.00411151    0.00587901
     atom   57 type  2   force =     0.00100574   -0.00166119    0.00058350
     atom   58 type  2   force =    -0.00120151    0.00243239   -0.00049575
     atom   59 type  2   force =    -0.00110010   -0.00240939   -0.00304586
     atom   60 type  2   force =    -0.00026214   -0.00062534   -0.00068680
     atom   61 type  2   force =    -0.00072278   -0.00033578    0.00121631
     atom   62 type  2   force =    -0.00379856   -0.00297103   -0.00013756
     atom   63 type  2   force =     0.00171972    0.00023085    0.00090356
     atom   64 type  2   force =    -0.00199352   -0.00011984   -0.00048303
     atom   65 type  2   force =     0.00149383    0.00082004    0.00057047
     atom   66 type  2   force =    -0.00204713    0.00032476   -0.00089969
     atom   67 type  2   force =    -0.00045905   -0.00213082   -0.00168027
     atom   68 type  2   force =     0.00019484    0.00162267   -0.00085934
     atom   69 type  2   force =     0.00276154   -0.00048432    0.00014044
     atom   70 type  2   force =    -0.00001108   -0.00057292   -0.00042257
     atom   71 type  2   force =     0.00168636    0.00303477   -0.00307924
     atom   72 type  2   force =    -0.00029833   -0.00110555    0.00238071
     atom   73 type  2   force =    -0.00070498    0.00013162    0.00026456
     atom   74 type  2   force =    -0.00068924    0.00345286    0.00175761
     atom   75 type  2   force =    -0.00080175   -0.00122714    0.00017241
     atom   76 type  2   force =    -0.00019712   -0.00000319    0.00170219
     atom   77 type  2   force =    -0.00040091   -0.00207821   -0.00087537
     atom   78 type  2   force =    -0.00061206    0.00117665   -0.00084061
     atom   79 type  2   force =    -0.00099985    0.00064128   -0.00275831
     atom   80 type  2   force =    -0.00215676   -0.00102989   -0.00135903
     atom   81 type  3   force =    -0.00008338   -0.00076724    0.00014386
     atom   82 type  3   force =    -0.00087554   -0.00035126    0.00013642
     atom   83 type  3   force =    -0.00044661    0.00042063    0.00056173
     atom   84 type  3   force =    -0.00117487    0.00130520    0.00007788
     atom   85 type  3   force =     0.00003536    0.00110817    0.00035591
     atom   86 type  3   force =     0.00033962    0.00065861   -0.00037685
     atom   87 type  3   force =    -0.00003003    0.00037778    0.00101963
     atom   88 type  3   force =    -0.00125971   -0.00066727   -0.00124943
     atom   89 type  3   force =     0.00111765   -0.00315693   -0.00018663
     atom   90 type  3   force =    -0.00043340   -0.00186637   -0.00122673
     atom   91 type  3   force =     0.00470248    0.00320036   -0.00069920
     atom   92 type  3   force =     0.00456222   -0.00196828    0.00223963
     atom   93 type  3   force =     0.00052643   -0.00003620   -0.00099942
     atom   94 type  3   force =    -0.00230445   -0.00198662    0.00014430
     atom   95 type  3   force =     0.00365255    0.00223623    0.00062821
     atom   96 type  3   force =     0.00311839   -0.00156140   -0.00681169
     atom   97 type  4   force =    -0.00058157   -0.00108118   -0.00033354
     atom   98 type  4   force =     0.00129030    0.00071684   -0.00011554
     atom   99 type  4   force =     0.00177965   -0.00020262   -0.00131335
     atom  100 type  4   force =     0.00308883   -0.00431674   -0.00046249
     atom  101 type  5   force =    -0.00227187    0.00466776    0.00182819
     atom  102 type  5   force =     0.00267563   -0.00240765    0.00086246
     atom  103 type  5   force =     0.00115085    0.00027800    0.00069081
     atom  104 type  5   force =    -0.00021466   -0.00246768    0.00226290
     atom  105 type  5   force =     0.00036921   -0.00135164   -0.00015775
     atom  106 type  5   force =     0.00001189    0.00070091   -0.00229259
     atom  107 type  5   force =     0.00241134   -0.00247732    0.00194298
     atom  108 type  5   force =    -0.00113296    0.00035318    0.00120092
     atom  109 type  5   force =    -0.00058850    0.00198338    0.00137692
     atom  110 type  5   force =    -0.00021237    0.00285587    0.00166391
     atom  111 type  5   force =     0.00080655    0.00015403    0.00056126
     atom  112 type  5   force =     0.00000154   -0.00079874    0.00241986
     atom  113 type  5   force =    -0.00056214    0.00092704   -0.00063907
     atom  114 type  5   force =    -0.00020620   -0.00147324    0.00052638
     atom  115 type  5   force =     0.00296800   -0.00187815   -0.00049956
     atom  116 type  5   force =     0.00038193    0.00022913    0.00159890
     atom  117 type  5   force =     0.00188801    0.00266033   -0.00051809
     atom  118 type  5   force =    -0.00052497    0.00263636   -0.00009683
     atom  119 type  5   force =     0.00139293   -0.00154020   -0.00104980
     atom  120 type  5   force =    -0.00153058    0.00162468   -0.00058340
     atom  121 type  5   force =    -0.00131763   -0.00094080   -0.00186208
     atom  122 type  5   force =     0.00191280   -0.00233210   -0.00840033
     atom  123 type  5   force =     0.00046500   -0.00559266   -0.00078096
     atom  124 type  5   force =    -0.00111995    0.00380377    0.00206338

     Total force =     0.032430     Total SCF correction =     0.000856

     number of scf cycles    =  57
     number of bfgs steps    =  50

     energy   old            =   -2145.1451716395 Ry
     energy   new            =   -2145.1471436866 Ry

     CASE: energy  _new < energy  _old

     new trust radius        =       0.0343464921 bohr
     new conv_thr            =       0.0000000840 Ry


ATOMIC_POSITIONS (crystal)
C             0.3094545554        0.9563437288        0.5291713154
C             0.0341093481        0.0345683971        0.0363907122
C             0.4065814281        0.0025690153        0.5690669651
C             0.1311000982        0.9850585314        0.0717330284
C             0.4553759546        0.9725197763        0.6865531809
C             0.1814104182        0.0124327329        0.1892574428
C             0.1869072961        0.5312053214        0.5141156186
C             0.4568409974        0.4748483049        0.0178217012
C             0.2319439314        0.6133646874        0.5909630039
C             0.5075916542        0.3998190922        0.1011257883
C             0.2609497426        0.8831896530        0.6110998607
C            -0.0100565586        0.1087626384        0.1215383630
C             0.4045872511        0.8943815893        0.7624292014
C             0.1354993058        0.0928000108        0.2672482758
C             0.0857968352        0.6061507190        0.7301070010
C             0.3769898883        0.4268304611        0.2574708897
C             0.0389577086        0.5218190862        0.6605288251
C             0.3225991967        0.5013067846        0.1789045626
C             0.0902986944        0.4864130653        0.5490976590
C             0.3620716042        0.5225860362        0.0557649603
C             0.4590466942        0.0847920850        0.4894081663
C             0.1820769649        0.9040784775        0.9885673255
C             0.0449719228        0.4018857222        0.4676221032
C             0.3068991889        0.5966642199        0.9666579014
C             0.7724069053        0.9759580297        0.5410568124
C             0.5575388756        0.0425147201        0.0158096825
C             0.8704578897        0.0244865673        0.5726373250
C             0.6495005230        0.9893398407        0.0585509752
C             0.9336455642        0.9855315738        0.6759444217
C             0.6974770198        0.0159153987        0.1781691990
C             0.7051756785        0.5170004675        0.5296938427
C             0.9418822202        0.4707306644        0.0212593576
C             0.7377579906        0.6103946730        0.5952258713
C             0.9764115980        0.3832017802        0.0973810858
C             0.7390260048        0.8891320146        0.6145307925
C             0.5088473430        0.1157563766        0.0989060503
C             0.8950658087        0.8966412268        0.7457554143
C             0.6531710636        0.1002435160        0.2481133869
C             0.5854409097        0.6040001830        0.7248756716
C             0.8330971903        0.4050558205        0.2386075155
C             0.5489329648        0.5107850608        0.6638882225
C             0.7928367418        0.4908324393        0.1658913196
C             0.6110333243        0.4673747509        0.5656182317
C             0.8461063795        0.5199505194        0.0531168909
C             0.9087176472        0.1138752087        0.4934415596
C             0.6920642349        0.9034079538        0.9786591296
C             0.5750544651        0.3738520506        0.4930618295
C             0.7994388755        0.5986102002        0.9642964167
C             0.4603742174        0.8031999016        0.9696456457
C             0.2087412326        0.1884751510        0.4618439295
C             0.4064326903        0.7062613469        0.5477938595
C             0.6743533947        0.2956622202        0.0509202492
C             0.9648003096        0.8016267912        0.9427745234
C             0.3406793650        0.2047525133        0.1194672002
C             0.9051553125        0.7140368215        0.5453845916
C             0.1108142555        0.2953044336       -0.0301717102
H             0.2718250089        0.9760585822        0.4383535226
H             0.5200629104        0.0265671504        0.9239429157
H             0.0095371819        1.0198127375        0.7037092323
H             0.2567721592        0.9784664106        0.2196227612
H             0.2288638122        0.5042619904        0.4307286460
H            -0.0105381963        0.4965146020        0.9413197797
H             0.1845334761        0.8474283646        0.5876001182
H             0.0490483304        0.6374577542        0.8153582085
H             0.3460643331        0.4038017244        0.3499285473
H             0.4753947039        0.4747090855        0.6927381863
H             0.2517526272        0.5392859264        0.2130877030
H             0.7216644139        1.0037901969        0.4634820053
H             0.9922499094        0.0185019520        0.9468141444
H             0.5307397576        1.0051028940        0.7181944827
H             0.7670148926        0.9752481531        0.2158277301
H             0.7548913864        0.4873244508        0.4544304704
H             0.4931844978        0.4915611502        0.9266999083
H             0.6643341161        0.8488982120        0.5950867120
H             0.9149766158        0.1474159601        0.0995139137
H             0.6915175424        0.1316794908        0.3338176213
H             0.5409269089        0.6409533101        0.8011777993
H             0.7928012866        0.3740796438        0.3213701626
H             0.9657785433        0.4872040085        0.6935094600
H             0.7217283321        0.5314122086        0.1951383672
N             0.3094137489        0.8502515192        0.7223451004
N             0.0392430267        0.1386674858        0.2334762262
N             0.1788575988        0.6524241656        0.6973092682
N             0.4655181046        0.3739879876        0.2202522642
N             0.7993041141        0.8498202349        0.7136770200
N             0.5610012633        0.1477919622        0.2114453377
N             0.6774585022        0.6527298520        0.6936804788
N             0.9218119307        0.3522082742        0.2052914920
N             0.4474256824        0.8630448408        0.8774017545
N             0.1896387295        0.1252106581        0.3741812641
N             0.3291966904        0.6489911552        0.5566433027
N             0.5973462437        0.3535418737        0.0569036699
N             0.9540393852        0.8535619774        0.8429500781
N             0.4106800018        0.1546615196        0.0634782738
N             0.8302489764        0.6545023662        0.5571424671
N             0.0632302761        0.3241281121        0.0669232846
Ni            0.2401794582        0.7474241739        0.8366350898
Ni            0.5037443390        0.2473780305        0.3401486686
Ni            0.7347339579        0.7470609674        0.8358167196
Ni            0.9772559018        0.2521532605        0.3410721937
O             0.0983986974        0.3588732489        0.3745449583
O             0.3565915550        0.6353410519        0.8672911035
O             0.4075854286        0.1273040657        0.3902478818
O             0.1480478591        0.8850681728        0.8708266266
O             0.4785459477        0.3390500260        0.5001036216
O             0.2112118197        0.6292067826        0.9822840435
O             0.0017076599        0.1539470533        0.5123547799
O             0.2596692528        0.8469446921        1.0293015959
O             0.6354865216        0.3269117589        0.4102452709
O             0.8516022068        0.6333763840        0.8654132927
O             0.8534915212        0.1531875155        0.3968302627
O             0.6444444176        0.8775798359        0.8691914454
O             0.9501986284        0.3664424043        0.4840780219
O             0.7049104533        0.6364997749        0.9791589286
O             0.5525478006        0.1170026010        0.5157706634
O             0.7730782319        0.8479020857        1.0115727537
O             0.4840619112        0.7541902069        1.0621622031
O             0.2386910733        0.2387618924        0.5503684415
O             0.4843333123        0.7564449620        0.5315007889
O             0.7510262206        0.2437094414        0.0342385313
O             0.9911071319        0.7580865514        1.0383252748
O             0.2672646620        0.2517196422        0.1581285864
O             0.9804709357        0.7674686107        0.5273383820
O             0.1629341536        0.2563585116       -0.1099569553



     Writing output data file /nfs/hpc/share/gantzlen/NiPyC2_relax_sc211_ortho_functionalized_N-C-O_vdw-df2_relax.save/
     NEW-OLD atomic charge density approx. for the potential

     Check: negative core charge=   -0.000145

     total cpu time spent up to now is   239280.1 secs

     Self-consistent Calculation

     iteration #  1     ecut=   100.00 Ry     beta= 0.70
     Davidson diagonalization with overlap
