/apps/openmpi/3.1_intel-19/bin/mpiexec
/apps/qe/6.5/bin/pw.x
starting QE Wed Jul 29 11:44:53 PDT 2020

     Program PWSCF v.6.5 starts on 29Jul2020 at 11:44:55 

     This program is part of the open-source Quantum ESPRESSO suite
     for quantum simulation of materials; please cite
         "P. Giannozzi et al., J. Phys.:Condens. Matter 21 395502 (2009);
         "P. Giannozzi et al., J. Phys.:Condens. Matter 29 465901 (2017);
          URL http://www.quantum-espresso.org", 
     in publications or presentations arising from this work. More details at
     http://www.quantum-espresso.org/quote

     Parallel version (MPI & OpenMP), running on      16 processor cores
     Number of MPI processes:                16
     Threads/MPI process:                     1

     MPI processes distributed on     1 nodes
     K-points division:     npool     =       2
     R & G space division:  proc/nbgrp/npool/nimage =       8
     Reading input from ./QE_input_scripts/pw.NiPyC2_relax_sc211_meta_functionalized_OH_vdw-df2_relax.in
Warning: card &CELL ignored
Warning: card    CELL_DYNAMICS = 'BFGS' ignored
Warning: card    CELL_DOFREE = 'XYZ' ignored
Warning: card / ignored

     Current dimensions of program PWSCF are:
     Max number of different atomic species (ntypx) = 10
     Max number of k-points (npk) =  40000
     Max angular momentum in pseudopotentials (lmaxx) =  3

     IMPORTANT: XC functional enforced from input :
     Exchange-correlation= VDW-DF2
                           (   1   4  13   0   2   0   0)
     Any further DFT definition will be discarded
     Please, verify this is what you really want


     -------------------------------------------------
     Parameters for Dispersion (Grimme-D2) Correction:
     -------------------------------------------------
       atom      VdW radius       C_6     

        C          2.744         60.710
        H          1.892          4.857
        N          2.640         42.670
        Ni         2.952        374.666
        O          2.536         24.284

     gamma-point specific algorithms are used

     Subspace diagonalization in iterative solution of the eigenvalue problem:
     a serial algorithm will be used

 
     Parallelization info
     --------------------
     sticks:   dense  smooth     PW     G-vecs:    dense   smooth      PW
     Min        2228    2228    556               183376   183376   22914
     Max        2230    2230    558               183380   183380   22917
     Sum       17829   17829   4453              1467017  1467017  183325
 


     bravais-lattice index     =            0
     lattice parameter (alat)  =      23.6322  a.u.
     unit-cell volume          =   10858.6228 (a.u.)^3
     number of atoms/cell      =          116
     number of atomic types    =            5
     number of electrons       =       448.00 (up: 228.00, down: 220.00)
     number of Kohn-Sham states=          274
     kinetic-energy cutoff     =     100.0000  Ry
     charge density cutoff     =     400.0000  Ry
     convergence threshold     =      1.0E-06
     mixing beta               =       0.7000
     number of iterations used =            8  local-TF  mixing
     Exchange-correlation= VDW-DF2
                           (   1   4  13   0   2   0   0)
     nstep                     =          200


     celldm(1)=  23.632159  celldm(2)=   0.000000  celldm(3)=   0.000000
     celldm(4)=   0.000000  celldm(5)=   0.000000  celldm(6)=   0.000000

     crystal axes: (cart. coord. in units of alat)
               a(1) = (   1.000000   0.000000   0.000000 )  
               a(2) = (   0.000000   1.001423   0.000000 )  
               a(3) = (  -0.018199   0.000000   0.821574 )  

     reciprocal axes: (cart. coord. in units 2 pi/alat)
               b(1) = (  1.000000  0.000000  0.022152 )  
               b(2) = (  0.000000  0.998579  0.000000 )  
               b(3) = (  0.000000  0.000000  1.217175 )  


     PseudoPot. # 1 for C  read from file:
     ./pseudo/C.pbesol-nc.UPF
     MD5 check sum: ce26087537ded160c8d400e183a8bf42
     Pseudo is Norm-conserving, Zval =  4.0
     Generated using "atomic" code by A. Dal Corso v.6.5
     Using radial grid of 1073 points,  1 beta functions with: 
                l(1) =   1

     PseudoPot. # 2 for H  read from file:
     ./pseudo/H.pbesol-n-nc.UPF
     MD5 check sum: 7995ef24074557c85b430109caaacc09
     Pseudo is Norm-conserving, Zval =  1.0
     Generated using "atomic" code by A. Dal Corso v.6.5
     Using radial grid of  929 points,  0 beta functions with: 

     PseudoPot. # 3 for N  read from file:
     ./pseudo/N.pbesol-nc.UPF
     MD5 check sum: e18cc5e4b8a5600c1a19b30c2cab1ca0
     Pseudo is Norm-conserving, Zval =  5.0
     Generated using "atomic" code by A. Dal Corso v.6.5
     Using radial grid of 1085 points,  1 beta functions with: 
                l(1) =   1

     PseudoPot. # 4 for Ni read from file:
     ./pseudo/Ni.pbesol-n-nc.UPF
     MD5 check sum: 623411631e0c2eb7c0b2b9815547d2d9
     Pseudo is Norm-conserving + core correction, Zval = 10.0
     Generated using "atomic" code by A. Dal Corso v.6.5
     Using radial grid of 1195 points,  2 beta functions with: 
                l(1) =   1
                l(2) =   2

     PseudoPot. # 5 for O  read from file:
     ./pseudo/O.pbesol-nc.UPF
     MD5 check sum: 73d10e7e91dbfcbe8a7e362101007f84
     Pseudo is Norm-conserving, Zval =  6.0
     Generated using "atomic" code by A. Dal Corso v.6.5
     Using radial grid of 1095 points,  1 beta functions with: 
                l(1) =   1

     atomic species   valence    mass     pseudopotential
        C              4.00    12.01070     C ( 1.00)
        H              1.00     1.00794     H ( 1.00)
        N              5.00    14.00670     N ( 1.00)
        Ni            10.00    58.69340     Ni( 1.00)
        O              6.00    15.99940     O ( 1.00)

     Starting magnetic structure 
     atomic species   magnetization
        C            0.000
        H            0.000
        N            0.000
        Ni           0.250
        O            0.000

     No symmetry found



   Cartesian axes

     site n.     atom                  positions (alat units)
         1           C   tau(   1) = (   0.2787122   0.9714307   0.4288486  )
         2           C   tau(   2) = (   0.0379730   0.0311503   0.0183277  )
         3           C   tau(   3) = (   0.3806882   0.0117868   0.4489838  )
         4           C   tau(   4) = (   0.1394042   0.9891499   0.0379124  )
         5           C   tau(   5) = (   0.4400787   0.9715829   0.5343281  )
         6           C   tau(   6) = (   0.1997920   0.0283934   0.1231482  )
         7           C   tau(   7) = (   0.1986011   0.5304580   0.4324635  )
         8           C   tau(   8) = (   0.4580372   0.4720800   0.0229252  )
         9           C   tau(   9) = (   0.2341003   0.6142040   0.4982314  )
        10           C   tau(  10) = (   0.4948422   0.3892302   0.0892369  )
        11           C   tau(  11) = (   0.2384981   0.8904717   0.4955761  )
        12           C   tau(  12) = (  -0.0008282   0.1123917   0.0856467  )
        13           C   tau(  13) = (   0.3947360   0.8906489   0.5977380  )
        14           C   tau(  14) = (   0.1557890   0.1097029   0.1871645  )
        15           C   tau(  15) = (   0.0756247   0.6098498   0.5975737  )
        16           C   tau(  16) = (   0.3367152   0.3921904   0.1884642  )
        17           C   tau(  17) = (   0.0350715   0.5258264   0.5351012  )
        18           C   tau(  18) = (   0.2948780   0.4753867   0.1254988  )
        19           C   tau(  19) = (   0.0981522   0.4849593   0.4519611  )
        20           C   tau(  20) = (   0.3569104   0.5163900   0.0416029  )
        21           C   tau(  21) = (   0.4248178   0.0994604   0.3833638  )
        22           C   tau(  22) = (   0.1639424   0.9010006   0.7933713  )
        23           C   tau(  23) = (   0.0588120   0.3950355   0.3866953  )
        24           C   tau(  24) = (   0.2984059   0.6050320   0.7961934  )
        25           C   tau(  25) = (   0.7787122   0.9714307   0.4288486  )
        26           C   tau(  26) = (   0.5379730   0.0311503   0.0183277  )
        27           C   tau(  27) = (   0.8806882   0.0117868   0.4489838  )
        28           C   tau(  28) = (   0.6394042   0.9891499   0.0379124  )
        29           C   tau(  29) = (   0.9400787   0.9715829   0.5343281  )
        30           C   tau(  30) = (   0.6997920   0.0283934   0.1231482  )
        31           C   tau(  31) = (   0.6986021   0.5304580   0.4324635  )
        32           C   tau(  32) = (   0.9580382   0.4720800   0.0229252  )
        33           C   tau(  33) = (   0.7341003   0.6142040   0.4982314  )
        34           C   tau(  34) = (   0.9948422   0.3892302   0.0892369  )
        35           C   tau(  35) = (   0.7384981   0.8904717   0.4955761  )
        36           C   tau(  36) = (   0.4991718   0.1123917   0.0856467  )
        37           C   tau(  37) = (   0.8947360   0.8906489   0.5977380  )
        38           C   tau(  38) = (   0.6557880   0.1097029   0.1871645  )
        39           C   tau(  39) = (   0.5756247   0.6098498   0.5975737  )
        40           C   tau(  40) = (   0.8367152   0.3921904   0.1884642  )
        41           C   tau(  41) = (   0.5350715   0.5258264   0.5351012  )
        42           C   tau(  42) = (   0.7948780   0.4753867   0.1254988  )
        43           C   tau(  43) = (   0.5981522   0.4849593   0.4519611  )
        44           C   tau(  44) = (   0.8569104   0.5163900   0.0416029  )
        45           C   tau(  45) = (   0.9248178   0.0994604   0.3833638  )
        46           C   tau(  46) = (   0.6639424   0.9010006   0.7933713  )
        47           C   tau(  47) = (   0.5588110   0.3950355   0.3866953  )
        48           C   tau(  48) = (   0.7984059   0.6050320   0.7961934  )
        49           H   tau(  49) = (   0.2290596   1.0009978   0.3640502  )
        50           H   tau(  50) = (   0.4693669   0.0026958   0.7751545  )
        51           H   tau(  51) = (   0.0198054   1.0002267   0.5533467  )
        52           H   tau(  52) = (   0.3118554   0.6514319   0.4868937  )
        53           H   tau(  53) = (   0.0732386   0.3533532   0.0780726  )
        54           H   tau(  54) = (   0.1594426   0.8563401   0.4835457  )
        55           H   tau(  55) = (   0.4206861   0.1479423   0.0738480  )
        56           H   tau(  56) = (   0.4386511   0.8563902   0.6644572  )
        57           H   tau(  57) = (   0.2006191   0.1433067   0.2536997  )
        58           H   tau(  58) = (   0.0290492   0.6438591   0.6626884  )
        59           H   tau(  59) = (   0.2907535   0.3580349   0.2539083  )
        60           H   tau(  60) = (   0.9693669   0.0026958   0.7751545  )
        61           H   tau(  61) = (   0.7505234   0.5016080   0.3691185  )
        62           H   tau(  62) = (   0.4913416   0.5011092   0.7809458  )
        63           H   tau(  63) = (   0.8118554   0.6514319   0.4868937  )
        64           H   tau(  64) = (   0.5732386   0.3533532   0.0780726  )
        65           H   tau(  65) = (   0.6594426   0.8563401   0.4835457  )
        66           H   tau(  66) = (   0.9206861   0.1479423   0.0738480  )
        67           H   tau(  67) = (   0.9386511   0.8563902   0.6644572  )
        68           H   tau(  68) = (   0.7006201   0.1433067   0.2536997  )
        69           H   tau(  69) = (   0.5290492   0.6438591   0.6626884  )
        70           H   tau(  70) = (   0.7907535   0.3580349   0.2539083  )
        71           H   tau(  71) = (   0.9564147   0.4939330   0.5533319  )
        72           H   tau(  72) = (   0.7157623   0.5059201   0.1439924  )
        73           H   tau(  73) = (   0.5811489   0.9795162   0.6152137  )
        74           H   tau(  74) = (   0.3412018   0.0184693   0.2032000  )
        75           H   tau(  75) = (   0.3309411   0.5260397   0.3376662  )
        76           H   tau(  76) = (   0.1528660   0.4865636   0.2042738  )
        77           H   tau(  77) = (   0.6481047   0.9794892   0.3317681  )
        78           H   tau(  78) = (   0.8412018   0.0184703   0.2032000  )
        79           H   tau(  79) = (   0.3927090   0.5136451   0.6129979  )
        80           H   tau(  80) = (   0.0725058   0.4778612   0.7499700  )
        81           N   tau(  81) = (   0.2956096   0.8524646   0.5790685  )
        82           N   tau(  82) = (   0.0569790   0.1490689   0.1692870  )
        83           N   tau(  83) = (   0.1736962   0.6512356   0.5798983  )
        84           N   tau(  84) = (   0.4350238   0.3514275   0.1709211  )
        85           N   tau(  85) = (   0.7956096   0.8524646   0.5790685  )
        86           N   tau(  86) = (   0.5569790   0.1490689   0.1692870  )
        87           N   tau(  87) = (   0.6736972   0.6512356   0.5798983  )
        88           N   tau(  88) = (   0.9350238   0.3514275   0.1709211  )
        89           Ni  tau(  89) = (   0.2317814   0.7525556   0.6871039  )
        90           Ni  tau(  90) = (   0.4937992   0.2483520   0.2786599  )
        91           Ni  tau(  91) = (   0.7317814   0.7525556   0.6871039  )
        92           Ni  tau(  92) = (   0.9937992   0.2483520   0.2786599  )
        93           O   tau(  93) = (   0.1158100   0.3481839   0.3145586  )
        94           O   tau(  94) = (   0.3551690   0.6519036   0.7240468  )
        95           O   tau(  95) = (   0.3707656   0.1477170   0.3098797  )
        96           O   tau(  96) = (   0.1091506   0.8535652   0.7199135  )
        97           O   tau(  97) = (   0.4642788   0.3566669   0.3968154  )
        98           O   tau(  98) = (   0.2033039   0.6423280   0.8050417  )
        99           O   tau(  99) = (   0.0200847   0.1353504   0.3952413  )
       100           O   tau( 100) = (   0.2588616   0.8639860   0.8046490  )
       101           O   tau( 101) = (   0.6158110   0.3481839   0.3145586  )
       102           O   tau( 102) = (   0.8551690   0.6519036   0.7240468  )
       103           O   tau( 103) = (   0.8707656   0.1477170   0.3098797  )
       104           O   tau( 104) = (   0.6091506   0.8535652   0.7199135  )
       105           O   tau( 105) = (   0.9642788   0.3566669   0.3968154  )
       106           O   tau( 106) = (   0.7033039   0.6423280   0.8050417  )
       107           O   tau( 107) = (   0.5200847   0.1353504   0.3952413  )
       108           O   tau( 108) = (   0.7588616   0.8639860   0.8046490  )
       109           O   tau( 109) = (   0.5393362   0.0062279   0.5564670  )
       110           O   tau( 110) = (   0.2987240   0.9924746   0.1445921  )
       111           O   tau( 111) = (   0.2613722   0.4952750   0.3519731  )
       112           O   tau( 112) = (   0.1964508   0.5142019   0.1465894  )
       113           O   tau( 113) = (   0.7186717   0.0061838   0.3466214  )
       114           O   tau( 114) = (   0.7987240   0.9924746   0.1445921  )
       115           O   tau( 115) = (   0.4369778   0.4860649   0.5558090  )
       116           O   tau( 116) = (   0.0024461   0.5076896   0.7638603  )

     number of k points=     1  Marzari-Vanderbilt smearing, width (Ry)=  0.2000
                       cart. coord. in units 2pi/alat
        k(    1) = (   0.0000000   0.0000000   0.0000000), wk =   1.0000000

     Dense  grid:   733509 G-vectors     FFT dimensions: ( 160, 160, 125)

     Estimated max dynamical RAM per process >     632.20 MB

     Estimated total dynamical RAM >       9.88 GB
     Generating pointlists ...
     new r_m :   0.0358 (alat units)  0.8461 (a.u.) for type    1
     new r_m :   0.0319 (alat units)  0.7545 (a.u.) for type    2
     new r_m :   0.0445 (alat units)  1.0514 (a.u.) for type    3
     new r_m :   0.0654 (alat units)  1.5454 (a.u.) for type    4
     new r_m :   0.0319 (alat units)  0.7545 (a.u.) for type    5

     Check: negative core charge=   -0.000145

     Initial potential from superposition of free atoms

     starting charge  447.99668, renormalised to  448.00000


     %%%%%%%%%%%%%%%%%%%%%%%%%%%%%%%%%%%%%%%%%%%%%%%%%%%%%%%%%%%%%%%%%%%%%%%%
     %                                                                      %
     % You are using vdW-DF, which was implemented by the Thonhauser group. %
     % Please cite the following two papers that made this development      %
     % possible and the two reviews that describe the various versions:     %
     %                                                                      %
     %   T. Thonhauser et al., PRL 115, 136402 (2015).                      %
     %   T. Thonhauser et al., PRB 76, 125112 (2007).                       %
     %   K. Berland et al., Rep. Prog. Phys. 78, 066501 (2015).             %
     %   D.C. Langreth et al., J. Phys.: Condens. Matter 21, 084203 (2009). %
     %                                                                      %
     %                                                                      %
     % If you are calculating the stress with vdW-DF, please also cite:     %
     %                                                                      %
     %   R. Sabatini et al., J. Phys.: Condens. Matter 24, 424209 (2012).   %
     %                                                                      %
     %%%%%%%%%%%%%%%%%%%%%%%%%%%%%%%%%%%%%%%%%%%%%%%%%%%%%%%%%%%%%%%%%%%%%%%%


     Starting wfcs are  388 randomized atomic wfcs

     total cpu time spent up to now is       46.7 secs

     Self-consistent Calculation

     iteration #  1     ecut=   100.00 Ry     beta= 0.70
     Davidson diagonalization with overlap
     ethr =  1.00E-02,  avg # of iterations =  5.0

     total cpu time spent up to now is      152.7 secs

     total energy              =   -1898.15413223 Ry
     Harris-Foulkes estimate   =   -1908.27705385 Ry
     estimated scf accuracy    <      25.14636643 Ry

     total magnetization       =     8.00 Bohr mag/cell
     absolute magnetization    =     8.90 Bohr mag/cell

     iteration #  2     ecut=   100.00 Ry     beta= 0.70
     Davidson diagonalization with overlap
     ethr =  5.61E-03,  avg # of iterations =  2.0

     total cpu time spent up to now is      224.1 secs

     total energy              =   -1902.20294546 Ry
     Harris-Foulkes estimate   =   -1906.53215808 Ry
     estimated scf accuracy    <      20.04813630 Ry

     total magnetization       =     8.00 Bohr mag/cell
     absolute magnetization    =     8.20 Bohr mag/cell

     iteration #  3     ecut=   100.00 Ry     beta= 0.70
     Davidson diagonalization with overlap
     ethr =  4.48E-03,  avg # of iterations =  1.0

     total cpu time spent up to now is      284.5 secs

     total energy              =   -1902.15912351 Ry
     Harris-Foulkes estimate   =   -1903.15721607 Ry
     estimated scf accuracy    <       2.95291862 Ry

     total magnetization       =     8.00 Bohr mag/cell
     absolute magnetization    =     8.19 Bohr mag/cell

     iteration #  4     ecut=   100.00 Ry     beta= 0.70
     Davidson diagonalization with overlap
     ethr =  6.59E-04,  avg # of iterations =  7.0

     total cpu time spent up to now is      363.0 secs

     total energy              =   -1902.03091604 Ry
     Harris-Foulkes estimate   =   -1903.03626739 Ry
     estimated scf accuracy    <       7.57382941 Ry

     total magnetization       =     8.00 Bohr mag/cell
     absolute magnetization    =     8.27 Bohr mag/cell

     iteration #  5     ecut=   100.00 Ry     beta= 0.70
     Davidson diagonalization with overlap
     ethr =  6.59E-04,  avg # of iterations =  2.5

     total cpu time spent up to now is      422.5 secs

     total energy              =   -1902.50761373 Ry
     Harris-Foulkes estimate   =   -1902.57960506 Ry
     estimated scf accuracy    <       0.54412667 Ry

     total magnetization       =     8.00 Bohr mag/cell
     absolute magnetization    =     8.27 Bohr mag/cell

     iteration #  6     ecut=   100.00 Ry     beta= 0.70
     Davidson diagonalization with overlap
     ethr =  1.21E-04,  avg # of iterations =  6.5

     total cpu time spent up to now is      488.6 secs

     total energy              =   -1902.49645796 Ry
     Harris-Foulkes estimate   =   -1902.53858221 Ry
     estimated scf accuracy    <       0.80775882 Ry

     total magnetization       =     8.00 Bohr mag/cell
     absolute magnetization    =     8.29 Bohr mag/cell

     iteration #  7     ecut=   100.00 Ry     beta= 0.70
     Davidson diagonalization with overlap
     ethr =  1.21E-04,  avg # of iterations =  2.0

     total cpu time spent up to now is      550.8 secs

     total energy              =   -1902.42660986 Ry
     Harris-Foulkes estimate   =   -1902.51582515 Ry
     estimated scf accuracy    <       0.51644171 Ry

     total magnetization       =     8.00 Bohr mag/cell
     absolute magnetization    =     8.30 Bohr mag/cell

     iteration #  8     ecut=   100.00 Ry     beta= 0.70
     Davidson diagonalization with overlap
     ethr =  1.15E-04,  avg # of iterations =  2.0

     total cpu time spent up to now is      613.5 secs

     total energy              =   -1902.45177538 Ry
     Harris-Foulkes estimate   =   -1902.47044816 Ry
     estimated scf accuracy    <       0.09517982 Ry

     total magnetization       =     8.00 Bohr mag/cell
     absolute magnetization    =     8.32 Bohr mag/cell

     iteration #  9     ecut=   100.00 Ry     beta= 0.70
     Davidson diagonalization with overlap
     ethr =  2.12E-05,  avg # of iterations =  7.5

     total cpu time spent up to now is      689.1 secs

     total energy              =   -1902.45011454 Ry
     Harris-Foulkes estimate   =   -1902.45636701 Ry
     estimated scf accuracy    <       0.01620134 Ry

     total magnetization       =     8.00 Bohr mag/cell
     absolute magnetization    =     8.32 Bohr mag/cell

     iteration # 10     ecut=   100.00 Ry     beta= 0.70
     Davidson diagonalization with overlap
     ethr =  3.62E-06,  avg # of iterations =  4.0

     total cpu time spent up to now is      760.5 secs

     total energy              =   -1902.44986686 Ry
     Harris-Foulkes estimate   =   -1902.45346685 Ry
     estimated scf accuracy    <       0.04158469 Ry

     total magnetization       =     8.00 Bohr mag/cell
     absolute magnetization    =     8.31 Bohr mag/cell

     iteration # 11     ecut=   100.00 Ry     beta= 0.70
     Davidson diagonalization with overlap
     ethr =  3.62E-06,  avg # of iterations =  1.5

     total cpu time spent up to now is      820.7 secs

     total energy              =   -1902.44989794 Ry
     Harris-Foulkes estimate   =   -1902.45195482 Ry
     estimated scf accuracy    <       0.01646269 Ry

     total magnetization       =     8.00 Bohr mag/cell
     absolute magnetization    =     8.31 Bohr mag/cell

     iteration # 12     ecut=   100.00 Ry     beta= 0.70
     Davidson diagonalization with overlap
     ethr =  3.62E-06,  avg # of iterations =  2.5

     total cpu time spent up to now is      881.3 secs

     total energy              =   -1902.45058541 Ry
     Harris-Foulkes estimate   =   -1902.45065949 Ry
     estimated scf accuracy    <       0.00125968 Ry

     total magnetization       =     8.00 Bohr mag/cell
     absolute magnetization    =     8.31 Bohr mag/cell

     iteration # 13     ecut=   100.00 Ry     beta= 0.70
     Davidson diagonalization with overlap
     ethr =  2.81E-07,  avg # of iterations =  4.0

     total cpu time spent up to now is      948.7 secs

     total energy              =   -1902.45069914 Ry
     Harris-Foulkes estimate   =   -1902.45067391 Ry
     estimated scf accuracy    <       0.00066214 Ry

     total magnetization       =     8.00 Bohr mag/cell
     absolute magnetization    =     8.30 Bohr mag/cell

     iteration # 14     ecut=   100.00 Ry     beta= 0.70
     Davidson diagonalization with overlap
     ethr =  1.48E-07,  avg # of iterations =  4.0

     total cpu time spent up to now is     1015.5 secs

     total energy              =   -1902.45068690 Ry
     Harris-Foulkes estimate   =   -1902.45082622 Ry
     estimated scf accuracy    <       0.00222382 Ry

     total magnetization       =     8.00 Bohr mag/cell
     absolute magnetization    =     8.30 Bohr mag/cell

     iteration # 15     ecut=   100.00 Ry     beta= 0.70
     Davidson diagonalization with overlap
     ethr =  1.48E-07,  avg # of iterations =  4.0

     total cpu time spent up to now is     1078.9 secs

     total energy              =   -1902.45074450 Ry
     Harris-Foulkes estimate   =   -1902.45078230 Ry
     estimated scf accuracy    <       0.00023280 Ry

     total magnetization       =     8.00 Bohr mag/cell
     absolute magnetization    =     8.30 Bohr mag/cell

     iteration # 16     ecut=   100.00 Ry     beta= 0.70
     Davidson diagonalization with overlap
     ethr =  5.20E-08,  avg # of iterations =  5.0

     total cpu time spent up to now is     1147.5 secs

     total energy              =   -1902.45075318 Ry
     Harris-Foulkes estimate   =   -1902.45076304 Ry
     estimated scf accuracy    <       0.00005092 Ry

     total magnetization       =     8.00 Bohr mag/cell
     absolute magnetization    =     8.30 Bohr mag/cell

     iteration # 17     ecut=   100.00 Ry     beta= 0.70
     Davidson diagonalization with overlap
     ethr =  1.14E-08,  avg # of iterations =  5.0

     total cpu time spent up to now is     1221.7 secs

     total energy              =   -1902.45075406 Ry
     Harris-Foulkes estimate   =   -1902.45076002 Ry
     estimated scf accuracy    <       0.00004681 Ry

     total magnetization       =     8.00 Bohr mag/cell
     absolute magnetization    =     8.30 Bohr mag/cell

     iteration # 18     ecut=   100.00 Ry     beta= 0.70
     Davidson diagonalization with overlap
     ethr =  1.04E-08,  avg # of iterations =  3.5

     total cpu time spent up to now is     1288.6 secs

     total energy              =   -1902.45076994 Ry
     Harris-Foulkes estimate   =   -1902.45075893 Ry
     estimated scf accuracy    <       0.00002625 Ry

     total magnetization       =     8.00 Bohr mag/cell
     absolute magnetization    =     8.30 Bohr mag/cell

     iteration # 19     ecut=   100.00 Ry     beta= 0.70
     Davidson diagonalization with overlap
     ethr =  5.86E-09,  avg # of iterations =  3.5

     total cpu time spent up to now is     1355.6 secs

     total energy              =   -1902.45076761 Ry
     Harris-Foulkes estimate   =   -1902.45077226 Ry
     estimated scf accuracy    <       0.00000594 Ry

     total magnetization       =     8.00 Bohr mag/cell
     absolute magnetization    =     8.30 Bohr mag/cell

     iteration # 20     ecut=   100.00 Ry     beta= 0.70
     Davidson diagonalization with overlap
     ethr =  1.33E-09,  avg # of iterations =  4.5

     total cpu time spent up to now is     1444.4 secs

     total energy              =   -1902.45076991 Ry
     Harris-Foulkes estimate   =   -1902.45076932 Ry
     estimated scf accuracy    <       0.00000350 Ry

     total magnetization       =     8.00 Bohr mag/cell
     absolute magnetization    =     8.31 Bohr mag/cell

     iteration # 21     ecut=   100.00 Ry     beta= 0.70
     Davidson diagonalization with overlap
     ethr =  7.81E-10,  avg # of iterations =  4.5

     total cpu time spent up to now is     1530.6 secs

     total energy              =   -1902.45077205 Ry
     Harris-Foulkes estimate   =   -1902.45077089 Ry
     estimated scf accuracy    <       0.00000251 Ry

     total magnetization       =     8.00 Bohr mag/cell
     absolute magnetization    =     8.31 Bohr mag/cell

     iteration # 22     ecut=   100.00 Ry     beta= 0.70
     Davidson diagonalization with overlap
     ethr =  5.60E-10,  avg # of iterations =  4.5

     total cpu time spent up to now is     1611.5 secs

     total energy              =   -1902.45077114 Ry
     Harris-Foulkes estimate   =   -1902.45077258 Ry
     estimated scf accuracy    <       0.00000186 Ry

     total magnetization       =     8.00 Bohr mag/cell
     absolute magnetization    =     8.31 Bohr mag/cell

     iteration # 23     ecut=   100.00 Ry     beta= 0.70
     Davidson diagonalization with overlap
     ethr =  4.16E-10,  avg # of iterations =  4.0
 
     Magnetic moment per site:
     atom:    1    charge:    0.8599    magn:    0.0046    constr:    0.0000
     atom:    2    charge:    0.8598    magn:    0.0048    constr:    0.0000
     atom:    3    charge:    0.8684    magn:    0.0067    constr:    0.0000
     atom:    4    charge:    0.8674    magn:    0.0072    constr:    0.0000
     atom:    5    charge:    0.8449    magn:    0.0021    constr:    0.0000
     atom:    6    charge:    0.8461    magn:    0.0019    constr:    0.0000
     atom:    7    charge:    0.8466    magn:    0.0024    constr:    0.0000
     atom:    8    charge:    0.8605    magn:    0.0046    constr:    0.0000
     atom:    9    charge:    0.8583    magn:    0.0097    constr:    0.0000
     atom:   10    charge:    0.8518    magn:    0.0069    constr:    0.0000
     atom:   11    charge:    0.8523    magn:    0.0068    constr:    0.0000
     atom:   12    charge:    0.8528    magn:    0.0070    constr:    0.0000
     atom:   13    charge:    0.8597    magn:    0.0094    constr:    0.0000
     atom:   14    charge:    0.8589    magn:    0.0097    constr:    0.0000
     atom:   15    charge:    0.8558    magn:    0.0069    constr:    0.0000
     atom:   16    charge:    0.8605    magn:    0.0093    constr:    0.0000
     atom:   17    charge:    0.8609    magn:    0.0052    constr:    0.0000
     atom:   18    charge:    0.8457    magn:    0.0022    constr:    0.0000
     atom:   19    charge:    0.8702    magn:    0.0065    constr:    0.0000
     atom:   20    charge:    0.8679    magn:    0.0068    constr:    0.0000
     atom:   21    charge:    0.8361    magn:   -0.0020    constr:    0.0000
     atom:   22    charge:    0.8363    magn:   -0.0028    constr:    0.0000
     atom:   23    charge:    0.8363    magn:   -0.0020    constr:    0.0000
     atom:   24    charge:    0.8374    magn:   -0.0022    constr:    0.0000
     atom:   25    charge:    0.8447    magn:    0.0025    constr:    0.0000
     atom:   26    charge:    0.8602    magn:    0.0048    constr:    0.0000
     atom:   27    charge:    0.8682    magn:    0.0066    constr:    0.0000
     atom:   28    charge:    0.8677    magn:    0.0068    constr:    0.0000
     atom:   29    charge:    0.8601    magn:    0.0050    constr:    0.0000
     atom:   30    charge:    0.8468    magn:    0.0021    constr:    0.0000
     atom:   31    charge:    0.8611    magn:    0.0045    constr:    0.0000
     atom:   32    charge:    0.8445    magn:    0.0021    constr:    0.0000
     atom:   33    charge:    0.8525    magn:    0.0068    constr:    0.0000
     atom:   34    charge:    0.8572    magn:    0.0097    constr:    0.0000
     atom:   35    charge:    0.8579    magn:    0.0095    constr:    0.0000
     atom:   36    charge:    0.8528    magn:    0.0071    constr:    0.0000
     atom:   37    charge:    0.8546    magn:    0.0067    constr:    0.0000
     atom:   38    charge:    0.8606    magn:    0.0097    constr:    0.0000
     atom:   39    charge:    0.8592    magn:    0.0095    constr:    0.0000
     atom:   40    charge:    0.8539    magn:    0.0067    constr:    0.0000
     atom:   41    charge:    0.8455    magn:    0.0021    constr:    0.0000
     atom:   42    charge:    0.8602    magn:    0.0048    constr:    0.0000
     atom:   43    charge:    0.8700    magn:    0.0070    constr:    0.0000
     atom:   44    charge:    0.8672    magn:    0.0071    constr:    0.0000
     atom:   45    charge:    0.8357    magn:   -0.0021    constr:    0.0000
     atom:   46    charge:    0.8367    magn:   -0.0020    constr:    0.0000
     atom:   47    charge:    0.8364    magn:   -0.0025    constr:    0.0000
     atom:   48    charge:    0.8367    magn:   -0.0029    constr:    0.0000
     atom:   49    charge:    0.3983    magn:   -0.0011    constr:    0.0000
     atom:   50    charge:    0.3977    magn:   -0.0011    constr:    0.0000
     atom:   51    charge:    0.3959    magn:   -0.0011    constr:    0.0000
     atom:   52    charge:    0.3982    magn:   -0.0009    constr:    0.0000
     atom:   53    charge:    0.3980    magn:   -0.0010    constr:    0.0000
     atom:   54    charge:    0.4003    magn:   -0.0011    constr:    0.0000
     atom:   55    charge:    0.4011    magn:   -0.0010    constr:    0.0000
     atom:   56    charge:    0.3946    magn:   -0.0010    constr:    0.0000
     atom:   57    charge:    0.3943    magn:   -0.0010    constr:    0.0000
     atom:   58    charge:    0.3963    magn:   -0.0007    constr:    0.0000
     atom:   59    charge:    0.3935    magn:   -0.0008    constr:    0.0000
     atom:   60    charge:    0.3967    magn:   -0.0011    constr:    0.0000
     atom:   61    charge:    0.3964    magn:   -0.0011    constr:    0.0000
     atom:   62    charge:    0.3982    magn:   -0.0011    constr:    0.0000
     atom:   63    charge:    0.4004    magn:   -0.0011    constr:    0.0000
     atom:   64    charge:    0.4003    magn:   -0.0010    constr:    0.0000
     atom:   65    charge:    0.3982    magn:   -0.0009    constr:    0.0000
     atom:   66    charge:    0.4010    magn:   -0.0010    constr:    0.0000
     atom:   67    charge:    0.3974    magn:   -0.0010    constr:    0.0000
     atom:   68    charge:    0.3940    magn:   -0.0007    constr:    0.0000
     atom:   69    charge:    0.3943    magn:   -0.0010    constr:    0.0000
     atom:   70    charge:    0.3969    magn:   -0.0010    constr:    0.0000
     atom:   71    charge:    0.3960    magn:   -0.0012    constr:    0.0000
     atom:   72    charge:    0.3966    magn:   -0.0011    constr:    0.0000
     atom:   73    charge:    0.3934    magn:   -0.0000    constr:    0.0000
     atom:   74    charge:    0.3937    magn:    0.0000    constr:    0.0000
     atom:   75    charge:    0.3960    magn:   -0.0001    constr:    0.0000
     atom:   76    charge:    0.3926    magn:    0.0000    constr:    0.0000
     atom:   77    charge:    0.3955    magn:   -0.0001    constr:    0.0000
     atom:   78    charge:    0.3926    magn:    0.0001    constr:    0.0000
     atom:   79    charge:    0.3940    magn:    0.0000    constr:    0.0000
     atom:   80    charge:    0.3958    magn:   -0.0000    constr:    0.0000
     atom:   81    charge:    2.4971    magn:    0.0105    constr:    0.0000
     atom:   82    charge:    2.4974    magn:    0.0102    constr:    0.0000
     atom:   83    charge:    2.5011    magn:    0.0105    constr:    0.0000
     atom:   84    charge:    2.4975    magn:    0.0105    constr:    0.0000
     atom:   85    charge:    2.4976    magn:    0.0107    constr:    0.0000
     atom:   86    charge:    2.4979    magn:    0.0102    constr:    0.0000
     atom:   87    charge:    2.5003    magn:    0.0103    constr:    0.0000
     atom:   88    charge:    2.4976    magn:    0.0106    constr:    0.0000
     atom:   89    charge:    7.4599    magn:    1.1744    constr:    0.0000
     atom:   90    charge:    7.4595    magn:    1.1729    constr:    0.0000
     atom:   91    charge:    7.4602    magn:    1.1735    constr:    0.0000
     atom:   92    charge:    7.4600    magn:    1.1709    constr:    0.0000
     atom:   93    charge:    1.9694    magn:    0.0353    constr:    0.0000
     atom:   94    charge:    1.9688    magn:    0.0345    constr:    0.0000
     atom:   95    charge:    1.9711    magn:    0.0332    constr:    0.0000
     atom:   96    charge:    1.9654    magn:    0.0393    constr:    0.0000
     atom:   97    charge:    1.9661    magn:    0.0403    constr:    0.0000
     atom:   98    charge:    1.9675    magn:    0.0400    constr:    0.0000
     atom:   99    charge:    1.9672    magn:    0.0381    constr:    0.0000
     atom:  100    charge:    1.9652    magn:    0.0422    constr:    0.0000
     atom:  101    charge:    1.9672    magn:    0.0380    constr:    0.0000
     atom:  102    charge:    1.9650    magn:    0.0414    constr:    0.0000
     atom:  103    charge:    1.9704    magn:    0.0350    constr:    0.0000
     atom:  104    charge:    1.9695    magn:    0.0334    constr:    0.0000
     atom:  105    charge:    1.9669    magn:    0.0376    constr:    0.0000
     atom:  106    charge:    1.9684    magn:    0.0400    constr:    0.0000
     atom:  107    charge:    1.9666    magn:    0.0394    constr:    0.0000
     atom:  108    charge:    1.9650    magn:    0.0404    constr:    0.0000
     atom:  109    charge:    1.9841    magn:    0.0149    constr:    0.0000
     atom:  110    charge:    1.9836    magn:    0.0155    constr:    0.0000
     atom:  111    charge:    1.9883    magn:    0.0123    constr:    0.0000
     atom:  112    charge:    1.9849    magn:    0.0160    constr:    0.0000
     atom:  113    charge:    1.9884    magn:    0.0127    constr:    0.0000
     atom:  114    charge:    1.9836    magn:    0.0175    constr:    0.0000
     atom:  115    charge:    1.9820    magn:    0.0141    constr:    0.0000
     atom:  116    charge:    1.9841    magn:    0.0142    constr:    0.0000

     total cpu time spent up to now is     1693.7 secs

     End of self-consistent calculation

 ------ SPIN UP ------------


          k = 0.0000 0.0000 0.0000 ( 91663 PWs)   bands (ev):

   -22.1057 -22.0850 -22.0678 -22.0601 -21.9874 -21.9592 -21.9264 -21.9236
   -21.6370 -21.6116 -21.4474 -21.4351 -21.4036 -21.3611 -21.2977 -21.2424
   -19.1243 -19.1082 -19.1019 -19.0964 -19.0861 -19.0578 -19.0246 -19.0178
   -18.9563 -18.9545 -18.9398 -18.9175 -18.8570 -18.8532 -18.8454 -18.8233
   -15.4000 -15.3766 -15.3553 -15.3517 -15.3331 -15.3252 -15.3186 -15.2896
   -14.0894 -14.0536 -14.0155 -13.9980 -13.9748 -13.9710 -13.9141 -13.8826
   -11.7476 -11.6826 -11.6723 -11.6349 -11.6232 -11.5982 -11.5948 -11.5753
   -11.3029 -11.2911 -11.2483 -11.2369 -11.2104 -11.1983 -11.1749 -11.0996
    -9.5380  -9.4719  -9.3680  -9.3022  -9.2726  -9.2623  -9.1790  -9.1471
    -9.0476  -8.9932  -8.9833  -8.9275  -8.8980  -8.8896  -8.8451  -8.7905
    -7.8955  -7.6453  -7.6362  -7.6256  -7.5855  -7.5832  -7.5538  -7.5235
    -7.4986  -7.4064  -7.4007  -7.3908  -7.1442  -7.1195  -7.0011  -6.9355
    -6.6500  -6.5809  -6.5492  -6.5330  -6.5289  -6.4889  -6.4628  -6.4331
    -6.4117  -6.3911  -6.2977  -6.2368  -6.2275  -6.2078  -6.1809  -6.1731
    -6.1293  -6.1118  -6.0867  -6.0638  -6.0557  -6.0211  -6.0121  -5.9838
    -5.9603  -5.8796  -5.8575  -5.8192  -5.7958  -5.7934  -5.7600  -5.7181
    -5.6618  -5.4411  -5.3973  -5.3852  -5.3497  -5.2990  -5.1298  -4.9572
    -4.7704  -4.7366  -4.7014  -4.6402  -4.6340  -4.5956  -4.5526  -4.5094
    -4.4705  -4.4131  -4.3764  -4.3619  -4.3362  -4.3281  -4.2850  -4.2597
    -4.2283  -4.1891  -4.1180  -4.1046  -4.0682  -4.0350  -3.9983  -3.9639
    -3.9554  -3.8500  -3.8204  -3.7825  -3.7042  -3.6187  -3.5861  -3.4792
    -3.2566  -3.1623  -3.1527  -3.0529  -3.0198  -3.0054  -2.9782  -2.9289
    -2.9205  -2.8475  -2.8330  -2.8224  -2.8030  -2.7233  -2.6740  -2.6653
    -2.5546  -2.4983  -2.4359  -2.3573  -2.2801  -2.2492  -2.2276  -2.1668
    -2.1470  -2.1183  -2.0897  -2.0636  -2.0391  -2.0089  -1.9764  -1.9500
    -1.9132  -1.8871  -1.8755  -1.8671  -1.8451  -1.8043  -1.7618  -1.7523
    -1.6740  -1.6584  -1.6356  -1.5613  -1.1837  -1.1215  -1.0889  -1.0612
    -1.0173  -0.9792  -0.9121  -0.7608  -0.0578  -0.0399   0.0409   0.0582
     0.2597   0.2710   0.3547   0.3616   2.0988   2.1098   2.1253   2.1396
     2.1434   2.2093   2.2407   2.2549   2.6877   3.1569   3.3392   3.3926
     3.4388   3.4707   3.5373   3.5961   3.6473   3.6678   3.7087   3.7660
     3.9462   4.2519   4.3979   4.4076   4.4745   4.5667   4.6025   4.6561
     4.7070   4.7303   4.7764   4.7883   4.8260   4.9415   4.9675   5.0437
     5.1673   5.2765   5.3323   5.7300   5.8769   5.9255   5.9626   5.9913
     6.1250   6.1952

 ------ SPIN DOWN ----------


          k = 0.0000 0.0000 0.0000 ( 91663 PWs)   bands (ev):

   -22.0147 -21.9909 -21.9711 -21.9620 -21.9004 -21.8631 -21.8254 -21.8231
   -21.5929 -21.5647 -21.4029 -21.3911 -21.3593 -21.3136 -21.2521 -21.1930
   -18.9979 -18.9818 -18.9750 -18.9678 -18.9618 -18.9336 -18.9244 -18.9152
   -18.9104 -18.8858 -18.8811 -18.8646 -18.8217 -18.8175 -18.8089 -18.7897
   -15.3639 -15.3403 -15.3188 -15.3159 -15.2967 -15.2882 -15.2819 -15.2520
   -14.0459 -14.0098 -13.9722 -13.9549 -13.9312 -13.9275 -13.8700 -13.8377
   -11.7077 -11.6427 -11.6327 -11.5989 -11.5852 -11.5607 -11.5576 -11.5372
   -11.2797 -11.2677 -11.2256 -11.2141 -11.1883 -11.1753 -11.1516 -11.0769
    -9.5180  -9.4535  -9.3492  -9.2844  -9.2551  -9.2441  -9.1625  -9.1290
    -9.0217  -8.9635  -8.9536  -8.8980  -8.8660  -8.8571  -8.8145  -8.7602
    -7.8545  -7.6166  -7.6057  -7.5959  -7.5597  -7.5538  -7.5221  -7.4975
    -7.4732  -7.3628  -7.3516  -7.3403  -7.0877  -7.0614  -6.9513  -6.8675
    -6.5924  -6.5115  -6.4616  -6.4398  -6.4329  -6.3923  -6.3674  -6.3522
    -6.3158  -6.2938  -6.1793  -6.1631  -6.1521  -6.1266  -6.1184  -6.0937
    -6.0580  -6.0186  -6.0160  -5.9985  -5.9537  -5.9439  -5.9140  -5.8938
    -5.8685  -5.8049  -5.7762  -5.7461  -5.7440  -5.7219  -5.6942  -5.6701
    -5.5607  -5.3336  -5.2917  -5.2879  -5.2507  -5.1957  -5.0239  -4.8596
    -4.7341  -4.7062  -4.6431  -4.5994  -4.5926  -4.5453  -4.5165  -4.4569
    -4.4085  -4.3195  -4.2622  -4.2356  -4.1941  -4.1349  -4.1195  -4.0974
    -4.0548  -4.0044  -4.0007  -3.9742  -3.9664  -3.9072  -3.8877  -3.8134
    -3.8120  -3.7217  -3.6620  -3.5491  -3.3355  -3.2823  -3.2562  -3.2030
    -2.9362  -2.8520  -2.8448  -2.7517  -2.7205  -2.6136  -2.5789  -2.5130
    -2.4406  -2.4123  -2.4034  -2.3879  -2.3617  -2.3315  -2.2946  -2.2497
    -2.2004  -2.1439  -2.1182  -2.0319  -2.0180  -1.9809  -1.9426  -1.9159
    -1.8767  -1.8183  -1.8073  -1.7623  -1.7021  -1.5995  -1.5593  -1.4354
    -1.3078  -1.1937  -1.1806  -1.1604  -1.0673  -1.0505  -1.0270  -0.9932
    -0.9807  -0.9760  -0.9690  -0.9397  -0.9039  -0.8738  -0.8571  -0.8423
    -0.8283  -0.7858  -0.7587  -0.6163   0.8393   0.8555   0.9142   0.9281
     1.0861   1.1095   1.1608   1.1639   2.2092   2.2310   2.2403   2.2613
     2.2698   2.3369   2.3599   2.3738   2.6457   3.1248   3.3931   3.4245
     3.4687   3.5246   3.5967   3.6906   3.7315   3.7640   3.8095   3.8654
     3.9196   4.2289   4.3922   4.4075   4.4521   4.5720   4.6610   4.6871
     4.7621   4.7791   4.8430   4.8466   4.9000   4.9830   5.0099   5.0530
     5.1909   5.2805   5.3333   5.7389   5.8729   5.9281   5.9650   5.9946
     6.1211   6.1885

     the spin up/dw Fermi energies are     0.5720    0.2486 ev

!    total energy              =   -1902.45077398 Ry
     Harris-Foulkes estimate   =   -1902.45077155 Ry
     estimated scf accuracy    <       0.00000046 Ry

     The total energy is the sum of the following terms:

     one-electron contribution =   -2664.43755178 Ry
     hartree contribution      =    1502.98676155 Ry
     xc contribution           =    -575.88286722 Ry
     ewald contribution        =    -167.40740117 Ry
     Dispersion Correction     =      -0.49293847 Ry
     smearing contrib. (-TS)   =       2.78322311 Ry

     total magnetization       =     8.00 Bohr mag/cell
     absolute magnetization    =     8.31 Bohr mag/cell

     convergence has been achieved in  23 iterations

     Forces acting on atoms (cartesian axes, Ry/au):

     atom    1 type  1   force =    -0.00445204   -0.00192548    0.00104284
     atom    2 type  1   force =    -0.00410505   -0.00035597   -0.00220887
     atom    3 type  1   force =    -0.00621184    0.03078912   -0.03997347
     atom    4 type  1   force =    -0.00766779   -0.02912545   -0.03790282
     atom    5 type  1   force =     0.06354778   -0.01526323    0.05416310
     atom    6 type  1   force =     0.06567818    0.01311390    0.05189415
     atom    7 type  1   force =     0.07641722    0.02206348   -0.02437605
     atom    8 type  1   force =     0.00474483   -0.00241761    0.00135249
     atom    9 type  1   force =     0.01176741    0.02857942    0.02430404
     atom   10 type  1   force =     0.02370396    0.00316599   -0.01453129
     atom   11 type  1   force =    -0.02144276    0.00376800   -0.01486629
     atom   12 type  1   force =    -0.01839614    0.00004036   -0.01603086
     atom   13 type  1   force =    -0.01087480   -0.03453486    0.03077401
     atom   14 type  1   force =    -0.00940130    0.03458596    0.03176717
     atom   15 type  1   force =    -0.03018594    0.02241009    0.01067717
     atom   16 type  1   force =     0.00812539   -0.05717433    0.02452257
     atom   17 type  1   force =     0.00056689    0.00165646   -0.00600629
     atom   18 type  1   force =    -0.06900000   -0.01099344    0.04776888
     atom   19 type  1   force =    -0.03481426   -0.03177495   -0.01087424
     atom   20 type  1   force =     0.00850331    0.03093995   -0.03939240
     atom   21 type  1   force =     0.00889436   -0.00723912    0.02321661
     atom   22 type  1   force =     0.00007993    0.00813024    0.01103784
     atom   23 type  1   force =     0.00043680    0.00870986    0.01271634
     atom   24 type  1   force =    -0.01008556   -0.00740569    0.02132565
     atom   25 type  1   force =    -0.07717236   -0.01771571   -0.02747268
     atom   26 type  1   force =    -0.00348583    0.00080824   -0.00094445
     atom   27 type  1   force =     0.03580007    0.03103700   -0.01075881
     atom   28 type  1   force =    -0.00747847   -0.03017106   -0.03845667
     atom   29 type  1   force =    -0.00094729   -0.00546400    0.00029781
     atom   30 type  1   force =     0.07429646    0.00966189    0.04725016
     atom   31 type  1   force =     0.00529869    0.00177306    0.00136474
     atom   32 type  1   force =     0.08231451   -0.01547143   -0.03620217
     atom   33 type  1   force =     0.02117362   -0.00327650   -0.01474476
     atom   34 type  1   force =     0.01073752   -0.03084749    0.02639942
     atom   35 type  1   force =    -0.01133274   -0.03013234    0.02497944
     atom   36 type  1   force =    -0.02114697   -0.00022525   -0.01670393
     atom   37 type  1   force =     0.03030498   -0.00219893    0.01914423
     atom   38 type  1   force =    -0.00890160    0.06355977    0.02431280
     atom   39 type  1   force =     0.00876355    0.03363969    0.02786656
     atom   40 type  1   force =    -0.03115632   -0.00051952    0.01667672
     atom   41 type  1   force =    -0.06016669    0.01544831    0.05073645
     atom   42 type  1   force =     0.00157089   -0.00474351   -0.00052317
     atom   43 type  1   force =     0.00754125   -0.03087124   -0.03848434
     atom   44 type  1   force =    -0.03557712    0.03162405   -0.01014636
     atom   45 type  1   force =     0.00058442   -0.00705414    0.01485730
     atom   46 type  1   force =     0.01539149    0.00910808    0.02518811
     atom   47 type  1   force =     0.00227389    0.00832879    0.01114051
     atom   48 type  1   force =     0.01081192   -0.00700728    0.00390456
     atom   49 type  2   force =     0.01027254   -0.00357441    0.01316974
     atom   50 type  2   force =     0.01020904    0.00324203    0.01401881
     atom   51 type  2   force =    -0.01542218   -0.00244233   -0.00734663
     atom   52 type  2   force =    -0.01087129   -0.00769121   -0.00255886
     atom   53 type  2   force =    -0.01179656    0.00704165   -0.00258376
     atom   54 type  2   force =     0.01387760    0.00671214    0.00206401
     atom   55 type  2   force =     0.01660198   -0.00731446    0.00075685
     atom   56 type  2   force =    -0.00865086    0.00806631   -0.01370526
     atom   57 type  2   force =    -0.00920483   -0.00770374   -0.01441700
     atom   58 type  2   force =     0.01852314   -0.00508830   -0.02743451
     atom   59 type  2   force =     0.01265270    0.00609743   -0.02592807
     atom   60 type  2   force =     0.01206257    0.00283178    0.01295285
     atom   61 type  2   force =    -0.01254438    0.00265755    0.01096505
     atom   62 type  2   force =    -0.00985397   -0.00279796    0.01184962
     atom   63 type  2   force =    -0.01419057   -0.00738266    0.00311459
     atom   64 type  2   force =    -0.01402963    0.00669748    0.00223365
     atom   65 type  2   force =     0.01264877    0.00717488   -0.00361395
     atom   66 type  2   force =     0.01673490   -0.00729097    0.00131425
     atom   67 type  2   force =    -0.01361209    0.00691077   -0.01622709
     atom   68 type  2   force =    -0.01502733   -0.00369911   -0.03110130
     atom   69 type  2   force =     0.00836810   -0.00765319   -0.01282315
     atom   70 type  2   force =     0.01237067    0.00686203   -0.01538178
     atom   71 type  2   force =     0.01661080    0.00454934   -0.00786510
     atom   72 type  2   force =     0.01412759   -0.00199422   -0.00855694
     atom   73 type  2   force =    -0.03586171   -0.03792685    0.01489950
     atom   74 type  2   force =    -0.03502072    0.03807309    0.01344612
     atom   75 type  2   force =    -0.00184121    0.02527200    0.03893157
     atom   76 type  2   force =     0.03977119   -0.03499370    0.01334975
     atom   77 type  2   force =    -0.00022468   -0.02456824    0.04123458
     atom   78 type  2   force =    -0.03951845    0.03637064    0.01346926
     atom   79 type  2   force =     0.03352456    0.03696654    0.01344051
     atom   80 type  2   force =    -0.00208646   -0.02369209    0.03949563
     atom   81 type  3   force =     0.01613521    0.00285546   -0.00400374
     atom   82 type  3   force =     0.01477458   -0.00213296   -0.00549299
     atom   83 type  3   force =     0.00398506   -0.00495217   -0.02200439
     atom   84 type  3   force =    -0.01599377    0.00650277   -0.00928063
     atom   85 type  3   force =    -0.00652202    0.00336444   -0.01741090
     atom   86 type  3   force =     0.01519443   -0.00679601   -0.00902701
     atom   87 type  3   force =    -0.01831016   -0.00265505   -0.00620419
     atom   88 type  3   force =     0.00640083    0.00238755   -0.01851350
     atom   89 type  4   force =     0.00492981    0.02095834    0.00039195
     atom   90 type  4   force =    -0.00306660   -0.01658241    0.01137194
     atom   91 type  4   force =     0.01110248    0.01425120    0.00283852
     atom   92 type  4   force =    -0.00647049   -0.01774973    0.01496557
     atom   93 type  5   force =     0.01826265    0.00003586   -0.01518563
     atom   94 type  5   force =     0.03599553   -0.00792792   -0.01447138
     atom   95 type  5   force =    -0.03161475   -0.01058349   -0.01612342
     atom   96 type  5   force =    -0.02333343    0.00852165   -0.00811151
     atom   97 type  5   force =    -0.01629563    0.00329743    0.00478252
     atom   98 type  5   force =    -0.01049772   -0.00663883    0.00466289
     atom   99 type  5   force =     0.01598612   -0.01297442    0.01719193
     atom  100 type  5   force =     0.01467819    0.00355129    0.00465700
     atom  101 type  5   force =     0.02459230    0.00565344   -0.00709232
     atom  102 type  5   force =     0.01363986    0.00290702   -0.00299044
     atom  103 type  5   force =    -0.01747871   -0.00272360   -0.01456024
     atom  104 type  5   force =    -0.03328273    0.01078757   -0.01953999
     atom  105 type  5   force =    -0.01921948    0.01093495    0.01840191
     atom  106 type  5   force =    -0.02131542   -0.01050835    0.01695512
     atom  107 type  5   force =     0.00952929   -0.00693350    0.00366302
     atom  108 type  5   force =     0.00918886    0.00576771    0.00513685
     atom  109 type  5   force =    -0.01532441    0.03976899   -0.05658353
     atom  110 type  5   force =    -0.01892651   -0.04287962   -0.05098945
     atom  111 type  5   force =    -0.05490193   -0.01412889    0.01619536
     atom  112 type  5   force =     0.01510464    0.03780118   -0.06082808
     atom  113 type  5   force =     0.06128288    0.00466449    0.02237768
     atom  114 type  5   force =    -0.02146245   -0.03898830   -0.06425460
     atom  115 type  5   force =     0.01199684   -0.04140754   -0.04997473
     atom  116 type  5   force =    -0.06268900    0.01380610    0.01780571

     Total force =     0.438915     Total SCF correction =     0.001464

     BFGS Geometry Optimization

     number of scf cycles    =   1
     number of bfgs steps    =   0

     energy   new            =   -1902.4507739787 Ry

     new trust radius        =       0.0912449472 bohr
     new conv_thr            =       0.0000010000 Ry


ATOMIC_POSITIONS (crystal)
C             0.2880245885        0.9699686385        0.5220377117
C             0.0382032234        0.0310909583        0.0221942320
C             0.3903336752        0.0130709965        0.5444331646
C             0.1398840073        0.9865133019        0.0441938136
C             0.4546548085        0.9695570510        0.6531606730
C             0.2053478302        0.0289071288        0.1525658108
C             0.2113917623        0.5306362941        0.5251285105
C             0.4587470463        0.4713068435        0.0279736602
C             0.2456577222        0.6145386254        0.6076867808
C             0.4978084171        0.3888107791        0.1078685651
C             0.2485547100        0.8893652172        0.6024373112
C             0.0002755366        0.1122337054        0.1034213297
C             0.4075456769        0.8879237269        0.7291370170
C             0.1595669594        0.1110084323        0.2294481696
C             0.0875946835        0.6099299401        0.7279019282
C             0.3412568140        0.3892170942        0.2306570362
C             0.0469433582        0.5251489939        0.6510026459
C             0.2947830264        0.4742464714        0.1552143381
C             0.1066806339        0.4829273473        0.5495559218
C             0.3581548945        0.5169633697        0.0486090925
C             0.4337081292        0.0990131103        0.4678167723
C             0.1815307285        0.9000635438        0.9662405045
C             0.0674084030        0.3948420356        0.4713309558
C             0.3156362169        0.6038590721        0.9702053787
C             0.7849206827        0.9693014211        0.5205690181
C             0.5382306112        0.0311401524        0.0222593560
C             0.8921388031        0.0130814708        0.5459378669
C             0.6398914992        0.9864691196        0.0441652874
C             0.9518751944        0.9699711182        0.6503863388
C             0.7057081614        0.0287612640        0.1523266219
C             0.7084074944        0.5297789210        0.5264542912
C             0.9619952221        0.4707552535        0.0260394057
C             0.7460191451        0.6131925514        0.6056755707
C             0.9972981062        0.3873735369        0.1099767035
C             0.7490198675        0.8879327557        0.6044895674
C             0.5001585036        0.1122224821        0.1033866633
C             0.9092773068        0.8892900840        0.7285380247
C             0.6595801166        0.1122327228        0.2290642317
C             0.5892589525        0.6104044476        0.7287872682
C             0.8395872455        0.3916110476        0.2302529352
C             0.5444265915        0.5257317696        0.6539251831
C             0.7977239820        0.4745105627        0.1527270541
C             0.6084470361        0.4829655336        0.5481338623
C             0.8563170356        0.5169922767        0.0501154113
C             0.9333486566        0.0990209267        0.4673862257
C             0.6821919044        0.9001048628        0.9669693149
C             0.5674836628        0.3948259335        0.4712497923
C             0.8165041689        0.6038759070        0.9693081044
H             0.2375710295        0.9994239631        0.4437913080
H             0.4869831383        0.0028289922        0.9442210396
H             0.0314035208        0.9987017991        0.6731416115
H             0.3221785803        0.6501810073        0.5925032058
H             0.0744664039        0.3531485454        0.0948949232
H             0.1707431685        0.8554066220        0.5886663068
H             0.4230252259        0.1474229271        0.0899249817
H             0.4529910901        0.8555138425        0.8080551098
H             0.2058359816        0.1427774778        0.3080544518
H             0.0444870946        0.6427289936        0.8051949845
H             0.2968890977        0.3577836472        0.3077155733
H             0.9870605718        0.0028116570        0.9441661373
H             0.7581794600        0.5010072949        0.4498467553
H             0.5082351345        0.5002787719        0.9511583151
H             0.8220434426        0.6501940452        0.5927954169
H             0.5743764267        0.3531340025        0.0951430443
H             0.6706858480        0.8554261750        0.5883738635
H             0.9230313731        0.1474239196        0.0899536904
H             0.9527787907        0.8554650152        0.8079252229
H             0.7055749621        0.1429466940        0.3071951260
H             0.5440710782        0.6426206137        0.8059475430
H             0.7968870492        0.3578159554        0.3082587608
H             0.9693675174        0.4934232327        0.6730969079
H             0.7195417913        0.5051167340        0.1748232743
H             0.5932734702        0.9765213981        0.7495903995
H             0.3442336943        0.0200517811        0.2480225430
H             0.3383795818        0.5263598703        0.4130041724
H             0.1590864401        0.4843933385        0.2493245797
H             0.6554831440        0.9770588673        0.4059437891
H             0.8440433935        0.0199808443        0.2480237347
H             0.4077191976        0.5144770241        0.7468182541
H             0.0890677326        0.4761808889        0.9148792241
N             0.3091160121        0.8513736579        0.7046217870
N             0.0613490406        0.1487668715        0.2057690832
N             0.1866900026        0.6501007458        0.7047046629
N             0.4381245210        0.3512027749        0.2075630006
N             0.8081446991        0.8513951645        0.7039312507
N             0.5613634942        0.1485698341        0.2055870636
N             0.6857623860        0.6501978106        0.7055184528
N             0.9390634989        0.3510288860        0.2070874613
Ni            0.2472109734        0.7523715964        0.8363461875
Ni            0.4998528958        0.2472983090        0.3397637124
Ni            0.7474744648        0.7520881856        0.8364721983
Ni            0.9997122278        0.2472489837        0.3399488024
O             0.1235365535        0.3476905154        0.3820908636
O             0.3727175941        0.6506420051        0.8805466510
O             0.3762771014        0.1470597938        0.3763475623
O             0.1241030373        0.8527120830        0.8758432163
O             0.4723839299        0.3562993334        0.4832403241
O             0.2206971575        0.6411344757        0.9801171621
O             0.0295325710        0.1346097647        0.4819634709
O             0.2773114759        0.8629080598        0.9796388590
O             0.6238129804        0.3479278865        0.3825077097
O             0.8717823704        0.6510998363        0.8811379771
O             0.8768767364        0.1473919139        0.3764280740
O             0.6236713179        0.8528078294        0.8752545921
O             0.9722729727        0.3566220571        0.4839417913
O             0.7202509262        0.6409709689        0.9807502742
O             0.5292466674        0.1348650244        0.4812666640
O             0.7770796438        0.8630017150        0.9796635737
O             0.5509615050        0.0078994418        0.6744036625
O             0.3010783250        0.9892521182        0.1733677860
O             0.2668609937        0.4939739826        0.4292471425
O             0.2002801386        0.5150682916        0.1752920470
O             0.7289641743        0.0063720984        0.4230515637
O             0.8009585820        0.9894165464        0.1726845638
O             0.4497508046        0.4836243214        0.6739430494
O             0.0167309916        0.5075513777        0.9306690838



     Writing output data file /nfs/hpc/share/gantzlen/NiPyC2_relax_sc211_meta_functionalized_OH_vdw-df2_relax.save/
     NEW-OLD atomic charge density approx. for the potential

     Check: negative core charge=   -0.000145

     total cpu time spent up to now is     1725.3 secs

     Self-consistent Calculation

     iteration #  1     ecut=   100.00 Ry     beta= 0.70
     Davidson diagonalization with overlap
     ethr =  1.00E-06,  avg # of iterations = 12.0

     total cpu time spent up to now is     1998.4 secs

     total energy              =   -1902.48398982 Ry
     Harris-Foulkes estimate   =   -1902.51052666 Ry
     estimated scf accuracy    <       0.10802780 Ry

     total magnetization       =     8.00 Bohr mag/cell
     absolute magnetization    =     8.29 Bohr mag/cell

     iteration #  2     ecut=   100.00 Ry     beta= 0.70
     Davidson diagonalization with overlap
     ethr =  2.41E-05,  avg # of iterations =  5.0

     total cpu time spent up to now is     2064.7 secs

     total energy              =   -1902.48001944 Ry
     Harris-Foulkes estimate   =   -1902.50646867 Ry
     estimated scf accuracy    <       0.15621779 Ry

     total magnetization       =     8.00 Bohr mag/cell
     absolute magnetization    =     8.31 Bohr mag/cell

     iteration #  3     ecut=   100.00 Ry     beta= 0.70
     Davidson diagonalization with overlap
     ethr =  2.41E-05,  avg # of iterations =  2.0

     total cpu time spent up to now is     2123.0 secs

     total energy              =   -1902.49380283 Ry
     Harris-Foulkes estimate   =   -1902.50213950 Ry
     estimated scf accuracy    <       0.07742432 Ry

     total magnetization       =     8.00 Bohr mag/cell
     absolute magnetization    =     8.29 Bohr mag/cell

     iteration #  4     ecut=   100.00 Ry     beta= 0.70
     Davidson diagonalization with overlap
     ethr =  1.73E-05,  avg # of iterations =  1.5

     total cpu time spent up to now is     2178.3 secs

     total energy              =   -1902.49700322 Ry
     Harris-Foulkes estimate   =   -1902.49788303 Ry
     estimated scf accuracy    <       0.00384802 Ry

     total magnetization       =     8.00 Bohr mag/cell
     absolute magnetization    =     8.30 Bohr mag/cell

     iteration #  5     ecut=   100.00 Ry     beta= 0.70
     Davidson diagonalization with overlap
     ethr =  8.59E-07,  avg # of iterations =  6.0

     total cpu time spent up to now is     2256.1 secs

     total energy              =   -1902.49690810 Ry
     Harris-Foulkes estimate   =   -1902.49799738 Ry
     estimated scf accuracy    <       0.01395781 Ry

     total magnetization       =     8.00 Bohr mag/cell
     absolute magnetization    =     8.30 Bohr mag/cell

     iteration #  6     ecut=   100.00 Ry     beta= 0.70
     Davidson diagonalization with overlap
     ethr =  8.59E-07,  avg # of iterations =  1.5

     total cpu time spent up to now is     2315.6 secs

     total energy              =   -1902.49724033 Ry
     Harris-Foulkes estimate   =   -1902.49746355 Ry
     estimated scf accuracy    <       0.00097169 Ry

     total magnetization       =     8.00 Bohr mag/cell
     absolute magnetization    =     8.30 Bohr mag/cell

     iteration #  7     ecut=   100.00 Ry     beta= 0.70
     Davidson diagonalization with overlap
     ethr =  2.17E-07,  avg # of iterations =  3.0

     total cpu time spent up to now is     2378.2 secs

     total energy              =   -1902.49725484 Ry
     Harris-Foulkes estimate   =   -1902.49733090 Ry
     estimated scf accuracy    <       0.00036892 Ry

     total magnetization       =     8.00 Bohr mag/cell
     absolute magnetization    =     8.30 Bohr mag/cell

     iteration #  8     ecut=   100.00 Ry     beta= 0.70
     Davidson diagonalization with overlap
     ethr =  8.23E-08,  avg # of iterations =  3.0

     total cpu time spent up to now is     2440.9 secs

     total energy              =   -1902.49725257 Ry
     Harris-Foulkes estimate   =   -1902.49731212 Ry
     estimated scf accuracy    <       0.00067009 Ry

     total magnetization       =     8.00 Bohr mag/cell
     absolute magnetization    =     8.30 Bohr mag/cell

     iteration #  9     ecut=   100.00 Ry     beta= 0.70
     Davidson diagonalization with overlap
     ethr =  8.23E-08,  avg # of iterations =  2.0

     total cpu time spent up to now is     2500.8 secs

     total energy              =   -1902.49727911 Ry
     Harris-Foulkes estimate   =   -1902.49729045 Ry
     estimated scf accuracy    <       0.00012198 Ry

     total magnetization       =     8.00 Bohr mag/cell
     absolute magnetization    =     8.30 Bohr mag/cell

     iteration # 10     ecut=   100.00 Ry     beta= 0.70
     Davidson diagonalization with overlap
     ethr =  2.72E-08,  avg # of iterations =  4.0

     total cpu time spent up to now is     2566.2 secs

     total energy              =   -1902.49729664 Ry
     Harris-Foulkes estimate   =   -1902.49729238 Ry
     estimated scf accuracy    <       0.00002519 Ry

     total magnetization       =     8.00 Bohr mag/cell
     absolute magnetization    =     8.30 Bohr mag/cell

     iteration # 11     ecut=   100.00 Ry     beta= 0.70
     Davidson diagonalization with overlap
     ethr =  5.62E-09,  avg # of iterations =  3.5

     total cpu time spent up to now is     2646.8 secs

     total energy              =   -1902.49730245 Ry
     Harris-Foulkes estimate   =   -1902.49730026 Ry
     estimated scf accuracy    <       0.00001069 Ry

     total magnetization       =     8.00 Bohr mag/cell
     absolute magnetization    =     8.29 Bohr mag/cell

     iteration # 12     ecut=   100.00 Ry     beta= 0.70
     Davidson diagonalization with overlap
     ethr =  2.39E-09,  avg # of iterations =  3.5

     total cpu time spent up to now is     2724.5 secs

     total energy              =   -1902.49730429 Ry
     Harris-Foulkes estimate   =   -1902.49730437 Ry
     estimated scf accuracy    <       0.00002328 Ry

     total magnetization       =     8.00 Bohr mag/cell
     absolute magnetization    =     8.29 Bohr mag/cell

     iteration # 13     ecut=   100.00 Ry     beta= 0.70
     Davidson diagonalization with overlap
     ethr =  2.39E-09,  avg # of iterations =  3.5

     total cpu time spent up to now is     2796.3 secs

     total energy              =   -1902.49730820 Ry
     Harris-Foulkes estimate   =   -1902.49730612 Ry
     estimated scf accuracy    <       0.00000834 Ry

     total magnetization       =     8.00 Bohr mag/cell
     absolute magnetization    =     8.29 Bohr mag/cell

     iteration # 14     ecut=   100.00 Ry     beta= 0.70
     Davidson diagonalization with overlap
     ethr =  1.86E-09,  avg # of iterations =  3.5

     total cpu time spent up to now is     2869.0 secs

     total energy              =   -1902.49731148 Ry
     Harris-Foulkes estimate   =   -1902.49730962 Ry
     estimated scf accuracy    <       0.00000765 Ry

     total magnetization       =     8.00 Bohr mag/cell
     absolute magnetization    =     8.29 Bohr mag/cell

     iteration # 15     ecut=   100.00 Ry     beta= 0.70
     Davidson diagonalization with overlap
     ethr =  1.71E-09,  avg # of iterations =  4.0

     total cpu time spent up to now is     2948.4 secs

     total energy              =   -1902.49731373 Ry
     Harris-Foulkes estimate   =   -1902.49731265 Ry
     estimated scf accuracy    <       0.00000206 Ry

     total magnetization       =     8.00 Bohr mag/cell
     absolute magnetization    =     8.29 Bohr mag/cell

     iteration # 16     ecut=   100.00 Ry     beta= 0.70
     Davidson diagonalization with overlap
     ethr =  4.60E-10,  avg # of iterations =  3.5

     total cpu time spent up to now is     3030.4 secs

     total energy              =   -1902.49731473 Ry
     Harris-Foulkes estimate   =   -1902.49731416 Ry
     estimated scf accuracy    <       0.00000261 Ry

     total magnetization       =     8.00 Bohr mag/cell
     absolute magnetization    =     8.29 Bohr mag/cell

     iteration # 17     ecut=   100.00 Ry     beta= 0.70
     Davidson diagonalization with overlap
     ethr =  4.60E-10,  avg # of iterations =  4.0
 
     Magnetic moment per site:
     atom:    1    charge:    0.8617    magn:    0.0038    constr:    0.0000
     atom:    2    charge:    0.8618    magn:    0.0039    constr:    0.0000
     atom:    3    charge:    0.8593    magn:    0.0074    constr:    0.0000
     atom:    4    charge:    0.8583    magn:    0.0080    constr:    0.0000
     atom:    5    charge:    0.8378    magn:    0.0029    constr:    0.0000
     atom:    6    charge:    0.8392    magn:    0.0027    constr:    0.0000
     atom:    7    charge:    0.8433    magn:    0.0034    constr:    0.0000
     atom:    8    charge:    0.8621    magn:    0.0037    constr:    0.0000
     atom:    9    charge:    0.8655    magn:    0.0085    constr:    0.0000
     atom:   10    charge:    0.8519    magn:    0.0076    constr:    0.0000
     atom:   11    charge:    0.8519    magn:    0.0075    constr:    0.0000
     atom:   12    charge:    0.8526    magn:    0.0076    constr:    0.0000
     atom:   13    charge:    0.8642    magn:    0.0087    constr:    0.0000
     atom:   14    charge:    0.8629    magn:    0.0090    constr:    0.0000
     atom:   15    charge:    0.8553    magn:    0.0074    constr:    0.0000
     atom:   16    charge:    0.8642    magn:    0.0085    constr:    0.0000
     atom:   17    charge:    0.8612    magn:    0.0043    constr:    0.0000
     atom:   18    charge:    0.8375    magn:    0.0031    constr:    0.0000
     atom:   19    charge:    0.8618    magn:    0.0071    constr:    0.0000
     atom:   20    charge:    0.8589    magn:    0.0075    constr:    0.0000
     atom:   21    charge:    0.8347    magn:   -0.0018    constr:    0.0000
     atom:   22    charge:    0.8354    magn:   -0.0028    constr:    0.0000
     atom:   23    charge:    0.8341    magn:   -0.0021    constr:    0.0000
     atom:   24    charge:    0.8353    magn:   -0.0022    constr:    0.0000
     atom:   25    charge:    0.8425    magn:    0.0034    constr:    0.0000
     atom:   26    charge:    0.8620    magn:    0.0039    constr:    0.0000
     atom:   27    charge:    0.8593    magn:    0.0073    constr:    0.0000
     atom:   28    charge:    0.8591    magn:    0.0075    constr:    0.0000
     atom:   29    charge:    0.8613    magn:    0.0040    constr:    0.0000
     atom:   30    charge:    0.8389    magn:    0.0029    constr:    0.0000
     atom:   31    charge:    0.8629    magn:    0.0038    constr:    0.0000
     atom:   32    charge:    0.8414    magn:    0.0031    constr:    0.0000
     atom:   33    charge:    0.8521    magn:    0.0074    constr:    0.0000
     atom:   34    charge:    0.8633    magn:    0.0086    constr:    0.0000
     atom:   35    charge:    0.8648    magn:    0.0084    constr:    0.0000
     atom:   36    charge:    0.8531    magn:    0.0079    constr:    0.0000
     atom:   37    charge:    0.8536    magn:    0.0075    constr:    0.0000
     atom:   38    charge:    0.8639    magn:    0.0090    constr:    0.0000
     atom:   39    charge:    0.8640    magn:    0.0085    constr:    0.0000
     atom:   40    charge:    0.8526    magn:    0.0076    constr:    0.0000
     atom:   41    charge:    0.8380    magn:    0.0029    constr:    0.0000
     atom:   42    charge:    0.8616    magn:    0.0038    constr:    0.0000
     atom:   43    charge:    0.8608    magn:    0.0078    constr:    0.0000
     atom:   44    charge:    0.8578    magn:    0.0080    constr:    0.0000
     atom:   45    charge:    0.8344    magn:   -0.0019    constr:    0.0000
     atom:   46    charge:    0.8345    magn:   -0.0020    constr:    0.0000
     atom:   47    charge:    0.8352    magn:   -0.0026    constr:    0.0000
     atom:   48    charge:    0.8358    magn:   -0.0030    constr:    0.0000
     atom:   49    charge:    0.3999    magn:   -0.0009    constr:    0.0000
     atom:   50    charge:    0.3995    magn:   -0.0009    constr:    0.0000
     atom:   51    charge:    0.3964    magn:   -0.0010    constr:    0.0000
     atom:   52    charge:    0.4043    magn:   -0.0007    constr:    0.0000
     atom:   53    charge:    0.4042    magn:   -0.0007    constr:    0.0000
     atom:   54    charge:    0.4048    magn:   -0.0011    constr:    0.0000
     atom:   55    charge:    0.4059    magn:   -0.0010    constr:    0.0000
     atom:   56    charge:    0.4037    magn:   -0.0006    constr:    0.0000
     atom:   57    charge:    0.4037    magn:   -0.0007    constr:    0.0000
     atom:   58    charge:    0.4050    magn:   -0.0010    constr:    0.0000
     atom:   59    charge:    0.4043    magn:   -0.0006    constr:    0.0000
     atom:   60    charge:    0.3988    magn:   -0.0009    constr:    0.0000
     atom:   61    charge:    0.3980    magn:   -0.0009    constr:    0.0000
     atom:   62    charge:    0.3996    magn:   -0.0009    constr:    0.0000
     atom:   63    charge:    0.4049    magn:   -0.0011    constr:    0.0000
     atom:   64    charge:    0.4051    magn:   -0.0011    constr:    0.0000
     atom:   65    charge:    0.4042    magn:   -0.0007    constr:    0.0000
     atom:   66    charge:    0.4055    magn:   -0.0011    constr:    0.0000
     atom:   67    charge:    0.4049    magn:   -0.0011    constr:    0.0000
     atom:   68    charge:    0.4053    magn:   -0.0005    constr:    0.0000
     atom:   69    charge:    0.4028    magn:   -0.0007    constr:    0.0000
     atom:   70    charge:    0.4039    magn:   -0.0011    constr:    0.0000
     atom:   71    charge:    0.3965    magn:   -0.0010    constr:    0.0000
     atom:   72    charge:    0.3968    magn:   -0.0009    constr:    0.0000
     atom:   73    charge:    0.3649    magn:   -0.0001    constr:    0.0000
     atom:   74    charge:    0.3660    magn:   -0.0001    constr:    0.0000
     atom:   75    charge:    0.3705    magn:   -0.0000    constr:    0.0000
     atom:   76    charge:    0.3639    magn:   -0.0000    constr:    0.0000
     atom:   77    charge:    0.3679    magn:   -0.0000    constr:    0.0000
     atom:   78    charge:    0.3607    magn:   -0.0000    constr:    0.0000
     atom:   79    charge:    0.3691    magn:   -0.0001    constr:    0.0000
     atom:   80    charge:    0.3671    magn:   -0.0000    constr:    0.0000
     atom:   81    charge:    2.4958    magn:    0.0109    constr:    0.0000
     atom:   82    charge:    2.4955    magn:    0.0108    constr:    0.0000
     atom:   83    charge:    2.5007    magn:    0.0111    constr:    0.0000
     atom:   84    charge:    2.4968    magn:    0.0109    constr:    0.0000
     atom:   85    charge:    2.4965    magn:    0.0113    constr:    0.0000
     atom:   86    charge:    2.4988    magn:    0.0103    constr:    0.0000
     atom:   87    charge:    2.4976    magn:    0.0110    constr:    0.0000
     atom:   88    charge:    2.4951    magn:    0.0113    constr:    0.0000
     atom:   89    charge:    7.4573    magn:    1.1888    constr:    0.0000
     atom:   90    charge:    7.4580    magn:    1.1885    constr:    0.0000
     atom:   91    charge:    7.4574    magn:    1.1872    constr:    0.0000
     atom:   92    charge:    7.4573    magn:    1.1846    constr:    0.0000
     atom:   93    charge:    1.9636    magn:    0.0355    constr:    0.0000
     atom:   94    charge:    1.9588    magn:    0.0372    constr:    0.0000
     atom:   95    charge:    1.9623    magn:    0.0344    constr:    0.0000
     atom:   96    charge:    1.9603    magn:    0.0402    constr:    0.0000
     atom:   97    charge:    1.9631    magn:    0.0402    constr:    0.0000
     atom:   98    charge:    1.9668    magn:    0.0382    constr:    0.0000
     atom:   99    charge:    1.9636    magn:    0.0377    constr:    0.0000
     atom:  100    charge:    1.9628    magn:    0.0413    constr:    0.0000
     atom:  101    charge:    1.9617    magn:    0.0395    constr:    0.0000
     atom:  102    charge:    1.9630    magn:    0.0406    constr:    0.0000
     atom:  103    charge:    1.9656    magn:    0.0341    constr:    0.0000
     atom:  104    charge:    1.9588    magn:    0.0354    constr:    0.0000
     atom:  105    charge:    1.9620    magn:    0.0384    constr:    0.0000
     atom:  106    charge:    1.9619    magn:    0.0425    constr:    0.0000
     atom:  107    charge:    1.9667    magn:    0.0364    constr:    0.0000
     atom:  108    charge:    1.9654    magn:    0.0375    constr:    0.0000
     atom:  109    charge:    1.9699    magn:    0.0099    constr:    0.0000
     atom:  110    charge:    1.9699    magn:    0.0103    constr:    0.0000
     atom:  111    charge:    1.9823    magn:    0.0078    constr:    0.0000
     atom:  112    charge:    1.9703    magn:    0.0097    constr:    0.0000
     atom:  113    charge:    1.9821    magn:    0.0079    constr:    0.0000
     atom:  114    charge:    1.9684    magn:    0.0104    constr:    0.0000
     atom:  115    charge:    1.9679    magn:    0.0095    constr:    0.0000
     atom:  116    charge:    1.9776    magn:    0.0086    constr:    0.0000

     total cpu time spent up to now is     3111.2 secs

     End of self-consistent calculation

 ------ SPIN UP ------------


          k = 0.0000 0.0000 0.0000 ( 91663 PWs)   bands (ev):

   -22.4081 -22.3546 -22.2586 -22.0054 -21.9603 -21.9494 -21.9336 -21.9204
   -21.7728 -21.7348 -21.6971 -21.6709 -21.6409 -21.6145 -21.5996 -21.5775
   -18.9749 -18.9558 -18.9452 -18.9404 -18.9219 -18.9139 -18.9023 -18.8955
   -18.8937 -18.8827 -18.8666 -18.8489 -18.8118 -18.8055 -18.7927 -18.7769
   -15.1802 -15.1539 -15.1357 -15.1277 -15.1143 -15.1015 -15.0824 -15.0562
   -14.0761 -14.0301 -13.9614 -13.9386 -13.9293 -13.9188 -13.8776 -13.8424
   -11.7985 -11.7409 -11.7101 -11.6785 -11.6582 -11.6367 -11.6323 -11.6083
   -11.3748 -11.3612 -11.2804 -11.2067 -11.1958 -11.1832 -11.1437 -11.0774
    -9.5219  -9.4683  -9.3838  -9.3296  -9.2720  -9.2171  -9.1961  -9.1503
    -9.1457  -9.1340  -9.1090  -9.0775  -9.0616  -9.0511  -8.9985  -8.9383
    -7.8549  -7.6399  -7.6188  -7.5583  -7.5214  -7.5027  -7.4806  -7.4693
    -7.4390  -7.3758  -7.3523  -7.3131  -7.1082  -7.0878  -6.9735  -6.9078
    -6.5999  -6.5494  -6.5166  -6.4706  -6.4548  -6.4394  -6.4089  -6.3910
    -6.3726  -6.3315  -6.2198  -6.1965  -6.1945  -6.1634  -6.1448  -6.1311
    -6.0915  -6.0728  -6.0600  -6.0288  -6.0071  -5.9992  -5.9667  -5.9013
    -5.9004  -5.8575  -5.8155  -5.8095  -5.7973  -5.7813  -5.7433  -5.6949
    -5.6288  -5.4775  -5.4288  -5.3521  -5.3440  -5.2727  -5.1537  -5.0045
    -4.8514  -4.8373  -4.7725  -4.7245  -4.6731  -4.6407  -4.6288  -4.5973
    -4.5854  -4.5478  -4.5132  -4.4963  -4.4482  -4.4241  -4.3968  -4.3504
    -4.3388  -4.3262  -4.3197  -4.2812  -4.2620  -4.2295  -4.1655  -4.1038
    -4.0573  -4.0027  -3.9819  -3.9308  -3.6721  -3.6124  -3.5628  -3.4739
    -3.2332  -3.1663  -3.0965  -3.0302  -2.9697  -2.9660  -2.9377  -2.9266
    -2.8610  -2.7920  -2.7783  -2.7690  -2.7641  -2.6735  -2.6217  -2.6096
    -2.4889  -2.4588  -2.3875  -2.3141  -2.2265  -2.2091  -2.1703  -2.1198
    -2.0959  -2.0770  -2.0320  -2.0119  -1.9797  -1.9363  -1.9225  -1.9027
    -1.8696  -1.8310  -1.8269  -1.8069  -1.7819  -1.7476  -1.7094  -1.7054
    -1.6371  -1.6086  -1.5926  -1.5209  -1.0803  -1.0226  -0.9966  -0.9688
    -0.9341  -0.8977  -0.8324  -0.6834  -0.0083   0.0131   0.0923   0.1117
[...]

     The total energy is the sum of the following terms:

     one-electron contribution =   -2662.43894319 Ry
     hartree contribution      =    1501.28744595 Ry
     xc contribution           =    -576.04411441 Ry
     ewald contribution        =    -167.72239012 Ry
     Dispersion Correction     =      -0.50182391 Ry
     smearing contrib. (-TS)   =       2.73513791 Ry

     total magnetization       =     8.00 Bohr mag/cell
     absolute magnetization    =     8.31 Bohr mag/cell

     convergence has been achieved in  11 iterations

     Forces acting on atoms (cartesian axes, Ry/au):

     atom    1 type  1   force =     0.00043832   -0.00001350    0.00018786
     atom    2 type  1   force =     0.00018167    0.00033080   -0.00010591
     atom    3 type  1   force =     0.00032052   -0.00045808   -0.00005203
     atom    4 type  1   force =     0.00023328   -0.00029625    0.00004851
     atom    5 type  1   force =    -0.00014191   -0.00024915    0.00009744
     atom    6 type  1   force =    -0.00020672    0.00020208   -0.00025170
     atom    7 type  1   force =    -0.00043013    0.00015157    0.00038407
     atom    8 type  1   force =     0.00044819    0.00000229    0.00026511
     atom    9 type  1   force =    -0.00059179    0.00031538   -0.00030103
     atom   10 type  1   force =    -0.00079937   -0.00054421   -0.00055167
     atom   11 type  1   force =     0.00036984    0.00035969   -0.00034573
     atom   12 type  1   force =     0.00014301   -0.00019188   -0.00032405
     atom   13 type  1   force =    -0.00005806   -0.00069868   -0.00033189
     atom   14 type  1   force =     0.00033904    0.00006501    0.00025016
     atom   15 type  1   force =     0.00018216    0.00048280    0.00018025
     atom   16 type  1   force =    -0.00029566    0.00011514   -0.00038764
     atom   17 type  1   force =    -0.00065937    0.00013015    0.00030090
     atom   18 type  1   force =    -0.00008716    0.00019403    0.00008235
     atom   19 type  1   force =     0.00010715   -0.00006480    0.00013176
     atom   20 type  1   force =     0.00005422    0.00020328   -0.00009667
     atom   21 type  1   force =     0.00012021   -0.00054115   -0.00002099
     atom   22 type  1   force =    -0.00002237   -0.00025174   -0.00018709
     atom   23 type  1   force =    -0.00054489    0.00024826    0.00000690
     atom   24 type  1   force =    -0.00075343   -0.00020575   -0.00066612
     atom   25 type  1   force =    -0.00003308    0.00010351   -0.00021011
     atom   26 type  1   force =     0.00016955    0.00038317    0.00026478
     atom   27 type  1   force =     0.00020155    0.00028357    0.00015159
     atom   28 type  1   force =    -0.00033476    0.00002968    0.00003077
     atom   29 type  1   force =    -0.00004164   -0.00021851   -0.00057712
     atom   30 type  1   force =    -0.00017010    0.00025958   -0.00002029
     atom   31 type  1   force =     0.00008495   -0.00011093   -0.00004867
     atom   32 type  1   force =    -0.00000175   -0.00011169   -0.00012288
     atom   33 type  1   force =    -0.00018591    0.00011356   -0.00015839
     atom   34 type  1   force =     0.00006630   -0.00031489    0.00018089
     atom   35 type  1   force =     0.00045860    0.00032883   -0.00023745
     atom   36 type  1   force =     0.00060430    0.00006357   -0.00050904
     atom   37 type  1   force =     0.00032748   -0.00013032   -0.00034661
     atom   38 type  1   force =     0.00005802   -0.00028920    0.00011095
     atom   39 type  1   force =    -0.00005075    0.00021071   -0.00022579
     atom   40 type  1   force =    -0.00022088   -0.00024210    0.00000107
     atom   41 type  1   force =     0.00040171    0.00001692    0.00020690
     atom   42 type  1   force =    -0.00007844    0.00022950   -0.00029686
     atom   43 type  1   force =    -0.00007571    0.00035513    0.00007465
     atom   44 type  1   force =     0.00010480    0.00009634   -0.00016008
     atom   45 type  1   force =    -0.00012433    0.00001452    0.00003996
     atom   46 type  1   force =    -0.00005353    0.00024043   -0.00001355
     atom   47 type  1   force =    -0.00009543    0.00036613   -0.00029400
     atom   48 type  1   force =    -0.00018865    0.00021246   -0.00013767
     atom   49 type  2   force =    -0.00013902    0.00002689    0.00008348
     atom   50 type  2   force =     0.00017283    0.00007983   -0.00011611
     atom   51 type  2   force =     0.00030468    0.00009507   -0.00019525
     atom   52 type  2   force =    -0.00052002   -0.00007258    0.00051297
     atom   53 type  2   force =     0.00040181   -0.00006161   -0.00004037
     atom   54 type  2   force =     0.00015620    0.00003287    0.00024098
     atom   55 type  2   force =     0.00005858    0.00001781    0.00003580
     atom   56 type  2   force =    -0.00019390   -0.00016359    0.00019848
     atom   57 type  2   force =     0.00008323    0.00039300    0.00038035
     atom   58 type  2   force =     0.00029547   -0.00053317   -0.00006354
     atom   59 type  2   force =     0.00005355    0.00008121    0.00053628
     atom   60 type  2   force =     0.00012916   -0.00012606   -0.00003759
     atom   61 type  2   force =    -0.00005659    0.00016263   -0.00016434
     atom   62 type  2   force =    -0.00006206    0.00022603   -0.00016211
     atom   63 type  2   force =    -0.00039372    0.00015751    0.00018122
     atom   64 type  2   force =     0.00043310    0.00021264    0.00008929
     atom   65 type  2   force =     0.00050954    0.00031922    0.00001611
     atom   66 type  2   force =    -0.00030784    0.00018797    0.00005628
     atom   67 type  2   force =    -0.00067852    0.00047948   -0.00021896
     atom   68 type  2   force =    -0.00039032    0.00005107    0.00050501
     atom   69 type  2   force =    -0.00007703   -0.00002834    0.00020141
     atom   70 type  2   force =     0.00015940   -0.00019711   -0.00010052
     atom   71 type  2   force =     0.00018025   -0.00036266    0.00008121
     atom   72 type  2   force =    -0.00008174    0.00014027    0.00013131
     atom   73 type  2   force =    -0.00024356   -0.00082270   -0.00056822
     atom   74 type  2   force =     0.00001818   -0.00006363    0.00019819
     atom   75 type  2   force =    -0.00008139    0.00008132   -0.00002544
     atom   76 type  2   force =    -0.00005204    0.00029782    0.00009017
     atom   77 type  2   force =    -0.00003627   -0.00003360   -0.00032341
     atom   78 type  2   force =     0.00040014    0.00024165   -0.00000408
     atom   79 type  2   force =    -0.00010667   -0.00017842   -0.00019618
     atom   80 type  2   force =     0.00013235    0.00027145    0.00001257
     atom   81 type  3   force =    -0.00017330    0.00022825   -0.00022426
     atom   82 type  3   force =    -0.00006555    0.00010700   -0.00015771
     atom   83 type  3   force =     0.00020509    0.00037426   -0.00004861
     atom   84 type  3   force =    -0.00001387   -0.00006583    0.00015178
     atom   85 type  3   force =     0.00018558   -0.00032384   -0.00051191
     atom   86 type  3   force =     0.00024007   -0.00032189   -0.00017315
     atom   87 type  3   force =     0.00006730   -0.00033651    0.00030250
     atom   88 type  3   force =    -0.00000926   -0.00034416    0.00006755
     atom   89 type  4   force =    -0.00023626    0.00009231    0.00013989
     atom   90 type  4   force =     0.00058639   -0.00030087   -0.00028683
     atom   91 type  4   force =     0.00025019   -0.00006829    0.00009941
     atom   92 type  4   force =    -0.00013321   -0.00003136   -0.00018726
     atom   93 type  5   force =     0.00009898   -0.00005315    0.00003580
     atom   94 type  5   force =    -0.00013785    0.00025625    0.00009367
     atom   95 type  5   force =    -0.00014926   -0.00023852    0.00013022
     atom   96 type  5   force =    -0.00019281   -0.00010927   -0.00017969
     atom   97 type  5   force =     0.00008929   -0.00031770    0.00014264
     atom   98 type  5   force =    -0.00027695    0.00016653    0.00070985
     atom   99 type  5   force =     0.00036157   -0.00068019    0.00025211
     atom  100 type  5   force =     0.00017970    0.00011976    0.00033867
     atom  101 type  5   force =    -0.00017206   -0.00028874    0.00009779
     atom  102 type  5   force =     0.00036072    0.00001503    0.00001700
     atom  103 type  5   force =     0.00002604   -0.00068346   -0.00005057
     atom  104 type  5   force =     0.00013835    0.00001100    0.00000918
     atom  105 type  5   force =     0.00037597    0.00040116    0.00044714
     atom  106 type  5   force =    -0.00038084   -0.00014190    0.00009419
     atom  107 type  5   force =     0.00011350   -0.00028339    0.00003227
     atom  108 type  5   force =     0.00000700   -0.00009546    0.00008832
     atom  109 type  5   force =    -0.00020275    0.00001525    0.00044366
     atom  110 type  5   force =     0.00004687   -0.00005483    0.00055640
     atom  111 type  5   force =     0.00021781    0.00030842   -0.00004883
     atom  112 type  5   force =    -0.00003240    0.00014755    0.00019413
     atom  113 type  5   force =    -0.00007049    0.00015163   -0.00032293
     atom  114 type  5   force =    -0.00058953    0.00020157    0.00020094
     atom  115 type  5   force =    -0.00002937    0.00006176    0.00026837
     atom  116 type  5   force =     0.00007846   -0.00000590   -0.00007258

     Total force =     0.004989     Total SCF correction =     0.000132

     bfgs converged in  66 scf cycles and  65 bfgs steps
     (criteria: energy <  1.0E-04 Ry, force <  1.0E-03 Ry/Bohr)

     End of BFGS Geometry Optimization

     Final energy   =   -1902.6846877733 Ry
Begin final coordinates

ATOMIC_POSITIONS (crystal)
C             0.2896238223        0.9782685139        0.5315987250
C             0.0494007688        0.0317111653        0.0248225751
C             0.3953274088        0.0126328793        0.5497498922
C             0.1504836113        0.9892779748        0.0526585935
C             0.4578311318        0.9630625157        0.6508661537
C             0.2114884663        0.0343244520        0.1579073485
C             0.2075781322        0.5339770342        0.5261052767
C             0.4584312517        0.4771718173        0.0321380356
C             0.2414499334        0.6188632643        0.6083807666
C             0.4989044267        0.3939499594        0.1087336597
C             0.2485857362        0.8969247601        0.6087779749
C             0.0102192480        0.1156259755        0.0993615703
C             0.4100054750        0.8815598798        0.7265183619
C             0.1647344135        0.1185048375        0.2312747053
C             0.0742582574        0.6279013827        0.7054578894
C             0.3352965007        0.3726328407        0.2123291440
C             0.0346834477        0.5456464925        0.6253366972
C             0.2893407931        0.4587708399        0.1403569797
C             0.1003057282        0.4968184035        0.5346695822
C             0.3526805361        0.5109563849        0.0455254259
C             0.4378314559        0.0971046718        0.4670533846
C             0.1905187141        0.9010140672        0.9740859585
C             0.0613084968        0.4041345105        0.4607037607
C             0.3114853929        0.5990611317        0.9655352835
C             0.7928571865        0.9658541654        0.5292439162
C             0.5441742682        0.0288074346        0.0229555872
C             0.9001786513        0.0028042988        0.5444623227
C             0.6484973500        0.9918635512        0.0438125333
C             0.9631066081        0.9581913398        0.6446197495
C             0.7123826215        0.0420537591        0.1432893667
C             0.7049098770        0.5216017627        0.5358427717
C             0.9519249410        0.4643455221        0.0280227580
C             0.7439286777        0.6075249750        0.6092399437
C             0.9851681368        0.3780535792        0.1084682017
C             0.7584377271        0.8809570724        0.6087718049
C             0.5048238844        0.1123023421        0.0980074684
C             0.9214740008        0.8786519890        0.7246730544
C             0.6667402052        0.1280803132        0.2148242415
C             0.5849222285        0.6193381441        0.7239435774
C             0.8257145499        0.3817114884        0.2221843512
C             0.5398402626        0.5316895845        0.6538430464
C             0.7855353657        0.4641229179        0.1429813084
C             0.6018359385        0.4823105212        0.5553751797
C             0.8477489740        0.5073100608        0.0447630691
C             0.9417541775        0.0905330496        0.4662583834
C             0.6882063632        0.9029361488        0.9666305293
C             0.5615014274        0.3943688840        0.4737503866
C             0.8080936962        0.5980982460        0.9678310432
H             0.2377962743        1.0146227110        0.4597795917
H             0.4913645939       -0.0082180147        0.9526814994
H             0.0425676609        0.9872348323        0.6641600370
H             0.3211936908        0.6505584206        0.6012359983
H             0.0619847554        0.3416776994        0.0945996852
H             0.1681543840        0.8680479540        0.5964410441
H             0.4250139907        0.1423798481        0.0846548781
H             0.4542841890        0.8437907770        0.8047271789
H             0.2066960467        0.1522080015        0.3138274472
H             0.0270547129        0.6638348513        0.7791284829
H             0.2899176288        0.3318258341        0.2846836399
H             1.0001094495       -0.0001639995        0.9473450458
H             0.7554588845        0.4854771158        0.4650746763
H             0.5108426492        0.5164746751        0.9659993135
H             0.8227757119        0.6394446953        0.5970363815
H             0.5798741908        0.3662648343        0.1024130471
H             0.6798842756        0.8473303375        0.5940383965
H             0.9332753597        0.1504685555        0.0796819503
H             0.9660342006        0.8452705456        0.8049402051
H             0.7119934186        0.1667861918        0.2911768399
H             0.5409311236        0.6577023075        0.7996568715
H             0.7814283405        0.3497497809        0.3012372172
H             0.9546630762        0.5176243605        0.6388178305
H             0.7077476405        0.4961810077        0.1615821683
H             0.5865696614        0.9489441581        0.7496366373
H             0.3375396317        0.0425407415        0.2600948758
H             0.3483014733        0.5022929252        0.4713114534
H             0.1641344750        0.4477860794        0.2379969089
H             0.6520365411        0.9964627053        0.4680476989
H             0.8375842347        0.0502345336        0.2470256672
H             0.4145638303        0.5422832430        0.7525665156
H             0.0893468343        0.4809992679        0.9585823888
N             0.3089597017        0.8506163173        0.7047767515
N             0.0669057567        0.1555240208        0.2027596273
N             0.1769904667        0.6616338659        0.6967226347
N             0.4368885025        0.3439221254        0.1970599793
N             0.8204714672        0.8414914134        0.7046010700
N             0.5655508684        0.1581165585        0.1941955162
N             0.6836269400        0.6546655171        0.7015270403
N             0.9244758416        0.3401594474        0.2035087256
Ni            0.2462468087        0.7525968025        0.8363037780
Ni            0.4988108285        0.2474522373        0.3324290650
Ni            0.7483273448        0.7521194303        0.8362789647
Ni            0.9977013291        0.2470154434        0.3396513861
O             0.1154101372        0.3596837892        0.3681518052
O             0.3686962554        0.6403754172        0.8732145820
O             0.3783539291        0.1397119226        0.3739608411
O             0.1280007218        0.8541026747        0.8890740348
O             0.4648360727        0.3599367845        0.4765775944
O             0.2187284008        0.6401335874        0.9786596283
O             0.0352737105        0.1296036689        0.4850300497
O             0.2864298196        0.8651732679        0.9808087255
O             0.6218931585        0.3480431597        0.3895430619
O             0.8658117517        0.6468321623        0.8834280481
O             0.8849266909        0.1350627843        0.3725358849
O             0.6282975116        0.8605313794        0.8734617153
O             0.9707033074        0.3604993377        0.4836019036
O             0.7126823564        0.6346325064        0.9801712220
O             0.5329373666        0.1337865053        0.4768693076
O             0.7805870472        0.8609061036        0.9814923967
O             0.5586678457       -0.0081717759        0.6751956355
O             0.3078152737        0.9974006616        0.1889477299
O             0.2744792964        0.4884374988        0.4442239803
O             0.1899712839        0.4895450731        0.1633576653
O             0.7255639902        0.0109494850        0.4440501144
O             0.8098677225        1.0085110458        0.1717036985
O             0.4422277609        0.4969536865        0.6821115148
O             0.0164295350        0.5043612140        0.9396014103
End final coordinates



     Writing output data file /nfs/hpc/share/gantzlen/NiPyC2_relax_sc211_meta_functionalized_OH_vdw-df2_relax.save/
 
     init_run     :     44.50s CPU     45.96s WALL (       1 calls)
     electrons    :  66071.38s CPU  72227.54s WALL (      66 calls)
     update_pot   :    624.42s CPU    658.57s WALL (      65 calls)
     forces       :   1334.47s CPU   1374.82s WALL (      66 calls)

     Called by init_run:
     wfcinit      :     31.30s CPU     32.10s WALL (       1 calls)
     potinit      :      9.67s CPU     10.28s WALL (       1 calls)
     hinit0       :      2.68s CPU      2.71s WALL (       1 calls)

     Called by electrons:
     c_bands      :  59160.40s CPU  64590.31s WALL (     891 calls)
     sum_band     :   2614.61s CPU   2818.66s WALL (     891 calls)
     v_of_rho     :   3799.67s CPU   4211.44s WALL (     934 calls)
     mix_rho      :    723.22s CPU    815.69s WALL (     891 calls)
     vdW_kernel   :      2.84s CPU      2.92s WALL (       1 calls)

     Called by c_bands:
     init_us_2    :     39.42s CPU     40.29s WALL (    1783 calls)
     regterg      :  58398.40s CPU  59656.45s WALL (     891 calls)

     Called by sum_band:

     Called by *egterg:
     h_psi        :  21513.66s CPU  22463.93s WALL (    3746 calls)
     g_psi        :     16.13s CPU     16.39s WALL (    2854 calls)
     rdiaghg      :   1884.97s CPU   1904.81s WALL (    3657 calls)

     Called by h_psi:
     h_psi:calbec :   6246.64s CPU   6274.15s WALL (    3746 calls)
     vloc_psi     :   9598.64s CPU  10505.62s WALL (    3746 calls)
     add_vuspsi   :   5622.18s CPU   5637.16s WALL (    3746 calls)

     General routines
     calbec       :   7030.47s CPU   7062.06s WALL (    4010 calls)
     fft          :   2690.20s CPU   3053.85s WALL (   78781 calls)
     ffts         :    524.08s CPU    586.13s WALL (   15418 calls)
     fftw         :  10350.25s CPU  11396.80s WALL (  699995 calls)
 
     Parallel routines
     fft_scatt_xy :   1956.39s CPU   2013.09s WALL (  794194 calls)
     fft_scatt_yz :   2363.19s CPU   3567.62s WALL (  794194 calls)
 
     PWSCF        :     18h54m CPU     20h38m WALL

 
   This run was terminated on:   8:23:54  30Jul2020            

=------------------------------------------------------------------------------=
   JOB DONE.
=------------------------------------------------------------------------------=
QE finished Thu Jul 30 08:23:54 PDT 2020
