/apps/openmpi/3.1_intel-19/bin/mpiexec
/apps/qe/6.5/bin/pw.x
starting QE Wed Jul 29 11:44:53 PDT 2020

     Program PWSCF v.6.5 starts on 29Jul2020 at 11:44:55 

     This program is part of the open-source Quantum ESPRESSO suite
     for quantum simulation of materials; please cite
         "P. Giannozzi et al., J. Phys.:Condens. Matter 21 395502 (2009);
         "P. Giannozzi et al., J. Phys.:Condens. Matter 29 465901 (2017);
          URL http://www.quantum-espresso.org", 
     in publications or presentations arising from this work. More details at
     http://www.quantum-espresso.org/quote

     Parallel version (MPI & OpenMP), running on      16 processor cores
     Number of MPI processes:                16
     Threads/MPI process:                     1

     MPI processes distributed on     1 nodes
     K-points division:     npool     =       2
     R & G space division:  proc/nbgrp/npool/nimage =       8
     Reading input from ./QE_input_scripts/pw.NiPyC2_relax_sc211_meta_functionalized_CH3_vdw-df2_relax.in
Warning: card &CELL ignored
Warning: card    CELL_DYNAMICS = 'BFGS' ignored
Warning: card    CELL_DOFREE = 'XYZ' ignored
Warning: card / ignored

     Current dimensions of program PWSCF are:
     Max number of different atomic species (ntypx) = 10
     Max number of k-points (npk) =  40000
     Max angular momentum in pseudopotentials (lmaxx) =  3

     IMPORTANT: XC functional enforced from input :
     Exchange-correlation= VDW-DF2
                           (   1   4  13   0   2   0   0)
     Any further DFT definition will be discarded
     Please, verify this is what you really want


     -------------------------------------------------
     Parameters for Dispersion (Grimme-D2) Correction:
     -------------------------------------------------
       atom      VdW radius       C_6     

        C          2.744         60.710
        H          1.892          4.857
        N          2.640         42.670
        Ni         2.952        374.666
        O          2.536         24.284

     gamma-point specific algorithms are used

     Subspace diagonalization in iterative solution of the eigenvalue problem:
     a serial algorithm will be used

 
     Parallelization info
     --------------------
     sticks:   dense  smooth     PW     G-vecs:    dense   smooth      PW
     Min        2228    2228    556               183376   183376   22914
     Max        2230    2230    558               183380   183380   22917
     Sum       17829   17829   4453              1467017  1467017  183325
 


     bravais-lattice index     =            0
     lattice parameter (alat)  =      23.6322  a.u.
     unit-cell volume          =   10858.6228 (a.u.)^3
     number of atoms/cell      =          132
     number of atomic types    =            5
     number of electrons       =       448.00 (up: 228.00, down: 220.00)
     number of Kohn-Sham states=          274
     kinetic-energy cutoff     =     100.0000  Ry
     charge density cutoff     =     400.0000  Ry
     convergence threshold     =      1.0E-06
     mixing beta               =       0.7000
     number of iterations used =            8  local-TF  mixing
     Exchange-correlation= VDW-DF2
                           (   1   4  13   0   2   0   0)
     nstep                     =          200


     celldm(1)=  23.632159  celldm(2)=   0.000000  celldm(3)=   0.000000
     celldm(4)=   0.000000  celldm(5)=   0.000000  celldm(6)=   0.000000

     crystal axes: (cart. coord. in units of alat)
               a(1) = (   1.000000   0.000000   0.000000 )  
               a(2) = (   0.000000   1.001423   0.000000 )  
               a(3) = (  -0.018199   0.000000   0.821574 )  

     reciprocal axes: (cart. coord. in units 2 pi/alat)
               b(1) = (  1.000000  0.000000  0.022152 )  
               b(2) = (  0.000000  0.998579  0.000000 )  
               b(3) = (  0.000000  0.000000  1.217175 )  


     PseudoPot. # 1 for C  read from file:
     ./pseudo/C.pbesol-nc.UPF
     MD5 check sum: ce26087537ded160c8d400e183a8bf42
     Pseudo is Norm-conserving, Zval =  4.0
     Generated using "atomic" code by A. Dal Corso v.6.5
     Using radial grid of 1073 points,  1 beta functions with: 
                l(1) =   1

     PseudoPot. # 2 for H  read from file:
     ./pseudo/H.pbesol-n-nc.UPF
     MD5 check sum: 7995ef24074557c85b430109caaacc09
     Pseudo is Norm-conserving, Zval =  1.0
     Generated using "atomic" code by A. Dal Corso v.6.5
     Using radial grid of  929 points,  0 beta functions with: 

     PseudoPot. # 3 for N  read from file:
     ./pseudo/N.pbesol-nc.UPF
     MD5 check sum: e18cc5e4b8a5600c1a19b30c2cab1ca0
     Pseudo is Norm-conserving, Zval =  5.0
     Generated using "atomic" code by A. Dal Corso v.6.5
     Using radial grid of 1085 points,  1 beta functions with: 
                l(1) =   1

     PseudoPot. # 4 for Ni read from file:
     ./pseudo/Ni.pbesol-n-nc.UPF
     MD5 check sum: 623411631e0c2eb7c0b2b9815547d2d9
     Pseudo is Norm-conserving + core correction, Zval = 10.0
     Generated using "atomic" code by A. Dal Corso v.6.5
     Using radial grid of 1195 points,  2 beta functions with: 
                l(1) =   1
                l(2) =   2

     PseudoPot. # 5 for O  read from file:
     ./pseudo/O.pbesol-nc.UPF
     MD5 check sum: 73d10e7e91dbfcbe8a7e362101007f84
     Pseudo is Norm-conserving, Zval =  6.0
     Generated using "atomic" code by A. Dal Corso v.6.5
     Using radial grid of 1095 points,  1 beta functions with: 
                l(1) =   1

     atomic species   valence    mass     pseudopotential
        C              4.00    12.01070     C ( 1.00)
        H              1.00     1.00794     H ( 1.00)
        N              5.00    14.00670     N ( 1.00)
        Ni            10.00    58.69340     Ni( 1.00)
        O              6.00    15.99940     O ( 1.00)

     Starting magnetic structure 
     atomic species   magnetization
        C            0.000
        H            0.000
        N            0.000
        Ni           0.250
        O            0.000

     No symmetry found



   Cartesian axes

     site n.     atom                  positions (alat units)
         1           C   tau(   1) = (   0.2787122   0.9714307   0.4288486  )
         2           C   tau(   2) = (   0.0379730   0.0311503   0.0183277  )
         3           C   tau(   3) = (   0.3806882   0.0117868   0.4489838  )
         4           C   tau(   4) = (   0.1394042   0.9891499   0.0379124  )
         5           C   tau(   5) = (   0.4400787   0.9715829   0.5343281  )
         6           C   tau(   6) = (   0.1997920   0.0283934   0.1231482  )
         7           C   tau(   7) = (   0.1986011   0.5304580   0.4324635  )
         8           C   tau(   8) = (   0.4580372   0.4720800   0.0229252  )
         9           C   tau(   9) = (   0.2341003   0.6142040   0.4982314  )
        10           C   tau(  10) = (   0.4948422   0.3892302   0.0892369  )
        11           C   tau(  11) = (   0.2384981   0.8904717   0.4955761  )
        12           C   tau(  12) = (  -0.0008282   0.1123917   0.0856467  )
        13           C   tau(  13) = (   0.3947360   0.8906489   0.5977380  )
        14           C   tau(  14) = (   0.1557890   0.1097029   0.1871645  )
        15           C   tau(  15) = (   0.0756247   0.6098498   0.5975737  )
        16           C   tau(  16) = (   0.3367152   0.3921904   0.1884642  )
        17           C   tau(  17) = (   0.0350715   0.5258264   0.5351012  )
        18           C   tau(  18) = (   0.2948780   0.4753867   0.1254988  )
        19           C   tau(  19) = (   0.0981522   0.4849593   0.4519611  )
        20           C   tau(  20) = (   0.3569104   0.5163900   0.0416029  )
        21           C   tau(  21) = (   0.4248178   0.0994604   0.3833638  )
        22           C   tau(  22) = (   0.1639424   0.9010006   0.7933713  )
        23           C   tau(  23) = (   0.0588120   0.3950355   0.3866953  )
        24           C   tau(  24) = (   0.2984059   0.6050320   0.7961934  )
        25           C   tau(  25) = (   0.7787122   0.9714307   0.4288486  )
        26           C   tau(  26) = (   0.5379730   0.0311503   0.0183277  )
        27           C   tau(  27) = (   0.8806882   0.0117868   0.4489838  )
        28           C   tau(  28) = (   0.6394042   0.9891499   0.0379124  )
        29           C   tau(  29) = (   0.9400787   0.9715829   0.5343281  )
        30           C   tau(  30) = (   0.6997920   0.0283934   0.1231482  )
        31           C   tau(  31) = (   0.6986021   0.5304580   0.4324635  )
        32           C   tau(  32) = (   0.9580382   0.4720800   0.0229252  )
        33           C   tau(  33) = (   0.7341003   0.6142040   0.4982314  )
        34           C   tau(  34) = (   0.9948422   0.3892302   0.0892369  )
        35           C   tau(  35) = (   0.7384981   0.8904717   0.4955761  )
        36           C   tau(  36) = (   0.4991718   0.1123917   0.0856467  )
        37           C   tau(  37) = (   0.8947360   0.8906489   0.5977380  )
        38           C   tau(  38) = (   0.6557880   0.1097029   0.1871645  )
        39           C   tau(  39) = (   0.5756247   0.6098498   0.5975737  )
        40           C   tau(  40) = (   0.8367152   0.3921904   0.1884642  )
        41           C   tau(  41) = (   0.5350715   0.5258264   0.5351012  )
        42           C   tau(  42) = (   0.7948780   0.4753867   0.1254988  )
        43           C   tau(  43) = (   0.5981522   0.4849593   0.4519611  )
        44           C   tau(  44) = (   0.8569104   0.5163900   0.0416029  )
        45           C   tau(  45) = (   0.9248178   0.0994604   0.3833638  )
        46           C   tau(  46) = (   0.6639424   0.9010006   0.7933713  )
        47           C   tau(  47) = (   0.5588110   0.3950355   0.3866953  )
        48           C   tau(  48) = (   0.7984059   0.6050320   0.7961934  )
        49           C   tau(  49) = (   0.2079863   0.0076869   0.3376999  )
        50           C   tau(  50) = (   0.3111887   0.9908033   0.1507449  )
        51           C   tau(  51) = (   0.9244632   0.4841762   0.5617949  )
        52           C   tau(  52) = (   0.5133377   0.5090175   0.7551639  )
        53           C   tau(  53) = (   0.0517863   0.0077260   0.5626946  )
        54           C   tau(  54) = (   0.4481956   0.9964563   0.7488050  )
        55           C   tau(  55) = (   0.7722564   0.4940502   0.3432513  )
        56           C   tau(  56) = (   0.6839556   0.5159984   0.1526452  )
        57           H   tau(  57) = (   0.2505234   0.5016080   0.3691185  )
        58           H   tau(  58) = (  -0.0086584   0.5011092   0.7809458  )
        59           H   tau(  59) = (   0.3118554   0.6514319   0.4868937  )
        60           H   tau(  60) = (   0.0732386   0.3533532   0.0780726  )
        61           H   tau(  61) = (   0.1594426   0.8563401   0.4835457  )
        62           H   tau(  62) = (   0.4206861   0.1479423   0.0738480  )
        63           H   tau(  63) = (   0.4386511   0.8563902   0.6644572  )
        64           H   tau(  64) = (   0.2006191   0.1433067   0.2536997  )
        65           H   tau(  65) = (   0.0290492   0.6438591   0.6626884  )
        66           H   tau(  66) = (   0.2907535   0.3580349   0.2539083  )
        67           H   tau(  67) = (   0.4564147   0.4939330   0.5533319  )
        68           H   tau(  68) = (   0.2157623   0.5059201   0.1439924  )
        69           H   tau(  69) = (   0.7290596   1.0009978   0.3640502  )
        70           H   tau(  70) = (   0.9693669   0.0026958   0.7751545  )
        71           H   tau(  71) = (   0.5198044   1.0002267   0.5533467  )
        72           H   tau(  72) = (   0.7791988   1.0000865   0.1418054  )
        73           H   tau(  73) = (   0.8118554   0.6514319   0.4868937  )
        74           H   tau(  74) = (   0.5732386   0.3533532   0.0780726  )
        75           H   tau(  75) = (   0.6594426   0.8563401   0.4835457  )
        76           H   tau(  76) = (   0.9206861   0.1479423   0.0738480  )
        77           H   tau(  77) = (   0.9386511   0.8563902   0.6644572  )
        78           H   tau(  78) = (   0.7006201   0.1433067   0.2536997  )
        79           H   tau(  79) = (   0.5290492   0.6438591   0.6626884  )
        80           H   tau(  80) = (   0.7907535   0.3580349   0.2539083  )
        81           H   tau(  81) = (   0.1304529   0.9656675   0.3359138  )
        82           H   tau(  82) = (   0.1893806   0.0939796   0.3468949  )
        83           H   tau(  83) = (   0.2479073   0.9945336   0.2597842  )
        84           H   tau(  84) = (   0.3447200   0.0321867   0.2210667  )
        85           H   tau(  85) = (   0.3093152   0.9044535   0.1711717  )
        86           H   tau(  86) = (   0.3664301   0.0035611   0.0827424  )
        87           H   tau(  87) = (   0.8884823   0.5276900   0.6304523  )
        88           H   tau(  88) = (   0.9285319   0.3984533   0.5844268  )
        89           H   tau(  89) = (   0.8700019   0.4950076   0.4925584  )
        90           H   tau(  90) = (   0.5896957   0.4635118   0.7542627  )
        91           H   tau(  91) = (   0.5340767   0.5946472   0.7658633  )
        92           H   tau(  92) = (   0.4745483   0.4965327   0.6763191  )
        93           H   tau(  93) = (   0.0843998   0.9656946   0.6330517  )
        94           H   tau(  94) = (   0.0508402   0.0940206   0.5834171  )
        95           H   tau(  95) = (   0.1072369   0.9945386   0.4949541  )
        96           H   tau(  96) = (   0.3713194   0.0396453   0.7475044  )
        97           H   tau(  97) = (   0.4283246   0.9104060   0.7576073  )
        98           H   tau(  98) = (   0.4880788   0.0094234   0.6708351  )
        99           H   tau(  99) = (   0.8479322   0.5406665   0.3418119  )
       100           H   tau( 100) = (   0.7942864   0.4088071   0.3544460  )
       101           H   tau( 101) = (   0.7330470   0.5054424   0.2644483  )
       102           H   tau( 102) = (   0.6489094   0.4726047   0.2218596  )
       103           H   tau( 103) = (   0.6872190   0.6019275   0.1746125  )
       104           H   tau( 104) = (   0.6291685   0.5040454   0.0838515  )
       105           N   tau( 105) = (   0.2956096   0.8524646   0.5790685  )
       106           N   tau( 106) = (   0.0569790   0.1490689   0.1692870  )
       107           N   tau( 107) = (   0.1736962   0.6512356   0.5798983  )
       108           N   tau( 108) = (   0.4350238   0.3514275   0.1709211  )
       109           N   tau( 109) = (   0.7956096   0.8524646   0.5790685  )
       110           N   tau( 110) = (   0.5569790   0.1490689   0.1692870  )
       111           N   tau( 111) = (   0.6736972   0.6512356   0.5798983  )
       112           N   tau( 112) = (   0.9350238   0.3514275   0.1709211  )
       113           Ni  tau( 113) = (   0.2317814   0.7525556   0.6871039  )
       114           Ni  tau( 114) = (   0.4937992   0.2483520   0.2786599  )
       115           Ni  tau( 115) = (   0.7317814   0.7525556   0.6871039  )
       116           Ni  tau( 116) = (   0.9937992   0.2483520   0.2786599  )
       117           O   tau( 117) = (   0.1158100   0.3481839   0.3145586  )
       118           O   tau( 118) = (   0.3551690   0.6519036   0.7240468  )
       119           O   tau( 119) = (   0.3707656   0.1477170   0.3098797  )
       120           O   tau( 120) = (   0.1091506   0.8535652   0.7199135  )
       121           O   tau( 121) = (   0.4642788   0.3566669   0.3968154  )
       122           O   tau( 122) = (   0.2033039   0.6423280   0.8050417  )
       123           O   tau( 123) = (   0.0200847   0.1353504   0.3952413  )
       124           O   tau( 124) = (   0.2588616   0.8639860   0.8046490  )
       125           O   tau( 125) = (   0.6158110   0.3481839   0.3145586  )
       126           O   tau( 126) = (   0.8551690   0.6519036   0.7240468  )
       127           O   tau( 127) = (   0.8707656   0.1477170   0.3098797  )
       128           O   tau( 128) = (   0.6091506   0.8535652   0.7199135  )
       129           O   tau( 129) = (   0.9642788   0.3566669   0.3968154  )
       130           O   tau( 130) = (   0.7033039   0.6423280   0.8050417  )
       131           O   tau( 131) = (   0.5200847   0.1353504   0.3952413  )
       132           O   tau( 132) = (   0.7588616   0.8639860   0.8046490  )

     number of k points=     1  Marzari-Vanderbilt smearing, width (Ry)=  0.2000
                       cart. coord. in units 2pi/alat
        k(    1) = (   0.0000000   0.0000000   0.0000000), wk =   1.0000000

     Dense  grid:   733509 G-vectors     FFT dimensions: ( 160, 160, 125)

     Estimated max dynamical RAM per process >     632.20 MB

     Estimated total dynamical RAM >       9.88 GB
     Generating pointlists ...
     new r_m :   0.0358 (alat units)  0.8461 (a.u.) for type    1
     new r_m :   0.0358 (alat units)  0.8461 (a.u.) for type    2
     new r_m :   0.0445 (alat units)  1.0514 (a.u.) for type    3
     new r_m :   0.0654 (alat units)  1.5454 (a.u.) for type    4
     new r_m :   0.0423 (alat units)  0.9991 (a.u.) for type    5

     Check: negative core charge=   -0.000145

     Initial potential from superposition of free atoms

     starting charge  447.99619, renormalised to  448.00000


     %%%%%%%%%%%%%%%%%%%%%%%%%%%%%%%%%%%%%%%%%%%%%%%%%%%%%%%%%%%%%%%%%%%%%%%%
     %                                                                      %
     % You are using vdW-DF, which was implemented by the Thonhauser group. %
     % Please cite the following two papers that made this development      %
     % possible and the two reviews that describe the various versions:     %
     %                                                                      %
     %   T. Thonhauser et al., PRL 115, 136402 (2015).                      %
     %   T. Thonhauser et al., PRB 76, 125112 (2007).                       %
     %   K. Berland et al., Rep. Prog. Phys. 78, 066501 (2015).             %
     %   D.C. Langreth et al., J. Phys.: Condens. Matter 21, 084203 (2009). %
     %                                                                      %
     %                                                                      %
     % If you are calculating the stress with vdW-DF, please also cite:     %
     %                                                                      %
     %   R. Sabatini et al., J. Phys.: Condens. Matter 24, 424209 (2012).   %
     %                                                                      %
     %%%%%%%%%%%%%%%%%%%%%%%%%%%%%%%%%%%%%%%%%%%%%%%%%%%%%%%%%%%%%%%%%%%%%%%%


     Starting wfcs are  404 randomized atomic wfcs

     total cpu time spent up to now is      107.5 secs

     Self-consistent Calculation

     iteration #  1     ecut=   100.00 Ry     beta= 0.70
     Davidson diagonalization with overlap
     ethr =  1.00E-02,  avg # of iterations =  5.0

     total cpu time spent up to now is      343.6 secs

     total energy              =   -1750.36912577 Ry
     Harris-Foulkes estimate   =   -1761.61136016 Ry
     estimated scf accuracy    <      29.30879229 Ry

     total magnetization       =     8.00 Bohr mag/cell
     absolute magnetization    =     9.03 Bohr mag/cell

     iteration #  2     ecut=   100.00 Ry     beta= 0.70
     Davidson diagonalization with overlap
     ethr =  6.54E-03,  avg # of iterations =  2.0

     total cpu time spent up to now is      493.6 secs

     total energy              =   -1754.85685845 Ry
     Harris-Foulkes estimate   =   -1759.82591961 Ry
     estimated scf accuracy    <      21.99553214 Ry

     total magnetization       =     8.00 Bohr mag/cell
     absolute magnetization    =     8.39 Bohr mag/cell

     iteration #  3     ecut=   100.00 Ry     beta= 0.70
     Davidson diagonalization with overlap
     ethr =  4.91E-03,  avg # of iterations =  1.0

     total cpu time spent up to now is      631.7 secs

     total energy              =   -1754.43928854 Ry
     Harris-Foulkes estimate   =   -1755.87139410 Ry
     estimated scf accuracy    <       4.31586549 Ry

     total magnetization       =     8.00 Bohr mag/cell
     absolute magnetization    =     8.24 Bohr mag/cell

     iteration #  4     ecut=   100.00 Ry     beta= 0.70
     Davidson diagonalization with overlap
     ethr =  9.63E-04,  avg # of iterations =  6.0

     total cpu time spent up to now is      796.9 secs

     total energy              =   -1754.36824900 Ry
     Harris-Foulkes estimate   =   -1755.85227883 Ry
     estimated scf accuracy    <      12.67723114 Ry

     total magnetization       =     8.00 Bohr mag/cell
     absolute magnetization    =     8.34 Bohr mag/cell

     iteration #  5     ecut=   100.00 Ry     beta= 0.70
     Davidson diagonalization with overlap
     ethr =  9.63E-04,  avg # of iterations =  2.5

     total cpu time spent up to now is      937.5 secs

     total energy              =   -1754.97066026 Ry
     Harris-Foulkes estimate   =   -1755.05580753 Ry
     estimated scf accuracy    <       0.37156144 Ry

     total magnetization       =     8.00 Bohr mag/cell
     absolute magnetization    =     8.27 Bohr mag/cell

     iteration #  6     ecut=   100.00 Ry     beta= 0.70
     Davidson diagonalization with overlap
     ethr =  8.29E-05,  avg # of iterations =  8.0

     total cpu time spent up to now is     1104.6 secs

     total energy              =   -1754.97682968 Ry
     Harris-Foulkes estimate   =   -1755.04210028 Ry
     estimated scf accuracy    <       1.25921752 Ry

     total magnetization       =     8.00 Bohr mag/cell
     absolute magnetization    =     8.26 Bohr mag/cell

     iteration #  7     ecut=   100.00 Ry     beta= 0.70
     Davidson diagonalization with overlap
     ethr =  8.29E-05,  avg # of iterations =  1.0

     total cpu time spent up to now is     1241.5 secs

     total energy              =   -1754.88110482 Ry
     Harris-Foulkes estimate   =   -1755.00668495 Ry
     estimated scf accuracy    <       0.78972443 Ry

     total magnetization       =     8.00 Bohr mag/cell
     absolute magnetization    =     8.26 Bohr mag/cell

     iteration #  8     ecut=   100.00 Ry     beta= 0.70
     Davidson diagonalization with overlap
     ethr =  8.29E-05,  avg # of iterations =  2.0

     total cpu time spent up to now is     1380.9 secs

     total energy              =   -1754.92204477 Ry
     Harris-Foulkes estimate   =   -1754.94087255 Ry
     estimated scf accuracy    <       0.10487117 Ry

     total magnetization       =     8.00 Bohr mag/cell
     absolute magnetization    =     8.28 Bohr mag/cell

     iteration #  9     ecut=   100.00 Ry     beta= 0.70
     Davidson diagonalization with overlap
     ethr =  2.34E-05,  avg # of iterations =  7.0

     total cpu time spent up to now is     1541.8 secs

     total energy              =   -1754.91319451 Ry
     Harris-Foulkes estimate   =   -1754.92791761 Ry
     estimated scf accuracy    <       0.11499020 Ry

     total magnetization       =     8.00 Bohr mag/cell
     absolute magnetization    =     8.27 Bohr mag/cell

     iteration # 10     ecut=   100.00 Ry     beta= 0.70
     Davidson diagonalization with overlap
     ethr =  2.34E-05,  avg # of iterations =  1.0

     total cpu time spent up to now is     1679.4 secs

     total energy              =   -1754.91176666 Ry
     Harris-Foulkes estimate   =   -1754.92080845 Ry
     estimated scf accuracy    <       0.05451944 Ry

     total magnetization       =     8.00 Bohr mag/cell
     absolute magnetization    =     8.26 Bohr mag/cell

     iteration # 11     ecut=   100.00 Ry     beta= 0.70
     Davidson diagonalization with overlap
     ethr =  1.22E-05,  avg # of iterations =  3.5

     total cpu time spent up to now is     1822.3 secs

     total energy              =   -1754.91167935 Ry
     Harris-Foulkes estimate   =   -1754.91666418 Ry
     estimated scf accuracy    <       0.03502568 Ry

     total magnetization       =     8.00 Bohr mag/cell
     absolute magnetization    =     8.24 Bohr mag/cell

     iteration # 12     ecut=   100.00 Ry     beta= 0.70
     Davidson diagonalization with overlap
     ethr =  7.82E-06,  avg # of iterations =  4.5

     total cpu time spent up to now is     1958.5 secs

     total energy              =   -1754.91305677 Ry
     Harris-Foulkes estimate   =   -1754.91347177 Ry
     estimated scf accuracy    <       0.00258315 Ry

     total magnetization       =     8.00 Bohr mag/cell
     absolute magnetization    =     8.24 Bohr mag/cell

     iteration # 13     ecut=   100.00 Ry     beta= 0.70
     Davidson diagonalization with overlap
     ethr =  5.77E-07,  avg # of iterations = 11.0

     total cpu time spent up to now is     2138.1 secs

     total energy              =   -1754.91321159 Ry
     Harris-Foulkes estimate   =   -1754.91324136 Ry
     estimated scf accuracy    <       0.00124585 Ry

     total magnetization       =     8.00 Bohr mag/cell
     absolute magnetization    =     8.23 Bohr mag/cell

     iteration # 14     ecut=   100.00 Ry     beta= 0.70
     Davidson diagonalization with overlap
     ethr =  2.78E-07,  avg # of iterations =  4.0

     total cpu time spent up to now is     2285.8 secs

     total energy              =   -1754.91320227 Ry
     Harris-Foulkes estimate   =   -1754.91349007 Ry
     estimated scf accuracy    <       0.00438716 Ry

     total magnetization       =     8.00 Bohr mag/cell
     absolute magnetization    =     8.23 Bohr mag/cell

     iteration # 15     ecut=   100.00 Ry     beta= 0.70
     Davidson diagonalization with overlap
     ethr =  2.78E-07,  avg # of iterations =  4.0

     total cpu time spent up to now is     2432.4 secs

     total energy              =   -1754.91333400 Ry
     Harris-Foulkes estimate   =   -1754.91339707 Ry
     estimated scf accuracy    <       0.00056798 Ry

     total magnetization       =     8.00 Bohr mag/cell
     absolute magnetization    =     8.23 Bohr mag/cell

     iteration # 16     ecut=   100.00 Ry     beta= 0.70
     Davidson diagonalization with overlap
     ethr =  1.27E-07,  avg # of iterations =  4.5

     total cpu time spent up to now is     2582.6 secs

     total energy              =   -1754.91335757 Ry
     Harris-Foulkes estimate   =   -1754.91336443 Ry
     estimated scf accuracy    <       0.00013113 Ry

     total magnetization       =     8.00 Bohr mag/cell
     absolute magnetization    =     8.23 Bohr mag/cell

     iteration # 17     ecut=   100.00 Ry     beta= 0.70
     Davidson diagonalization with overlap
     ethr =  2.93E-08,  avg # of iterations =  4.0

     total cpu time spent up to now is     2733.9 secs

     total energy              =   -1754.91336702 Ry
     Harris-Foulkes estimate   =   -1754.91336908 Ry
     estimated scf accuracy    <       0.00004222 Ry

     total magnetization       =     8.00 Bohr mag/cell
     absolute magnetization    =     8.23 Bohr mag/cell

     iteration # 18     ecut=   100.00 Ry     beta= 0.70
     Davidson diagonalization with overlap
     ethr =  9.42E-09,  avg # of iterations =  3.5

     total cpu time spent up to now is     2896.8 secs

     total energy              =   -1754.91337063 Ry
     Harris-Foulkes estimate   =   -1754.91337468 Ry
     estimated scf accuracy    <       0.00006647 Ry

     total magnetization       =     8.00 Bohr mag/cell
     absolute magnetization    =     8.23 Bohr mag/cell

     iteration # 19     ecut=   100.00 Ry     beta= 0.70
     Davidson diagonalization with overlap
     ethr =  9.42E-09,  avg # of iterations =  3.0

     total cpu time spent up to now is     3041.6 secs

     total energy              =   -1754.91337579 Ry
     Harris-Foulkes estimate   =   -1754.91337510 Ry
     estimated scf accuracy    <       0.00001844 Ry

     total magnetization       =     8.00 Bohr mag/cell
     absolute magnetization    =     8.23 Bohr mag/cell

     iteration # 20     ecut=   100.00 Ry     beta= 0.70
     Davidson diagonalization with overlap
     ethr =  4.12E-09,  avg # of iterations =  3.5

     total cpu time spent up to now is     3207.2 secs

     total energy              =   -1754.91337744 Ry
     Harris-Foulkes estimate   =   -1754.91337841 Ry
     estimated scf accuracy    <       0.00002051 Ry

     total magnetization       =     8.00 Bohr mag/cell
     absolute magnetization    =     8.23 Bohr mag/cell

     iteration # 21     ecut=   100.00 Ry     beta= 0.70
     Davidson diagonalization with overlap
     ethr =  4.12E-09,  avg # of iterations =  3.0

     total cpu time spent up to now is     3352.9 secs

     total energy              =   -1754.91338358 Ry
     Harris-Foulkes estimate   =   -1754.91337921 Ry
     estimated scf accuracy    <       0.00000566 Ry

     total magnetization       =     8.00 Bohr mag/cell
     absolute magnetization    =     8.23 Bohr mag/cell

     iteration # 22     ecut=   100.00 Ry     beta= 0.70
     Davidson diagonalization with overlap
     ethr =  1.26E-09,  avg # of iterations =  4.0

     total cpu time spent up to now is     3532.5 secs

     total energy              =   -1754.91338388 Ry
     Harris-Foulkes estimate   =   -1754.91338456 Ry
     estimated scf accuracy    <       0.00000179 Ry

     total magnetization       =     8.00 Bohr mag/cell
     absolute magnetization    =     8.23 Bohr mag/cell

     iteration # 23     ecut=   100.00 Ry     beta= 0.70
     Davidson diagonalization with overlap
     ethr =  4.01E-10,  avg # of iterations =  5.0
 
     Magnetic moment per site:
     atom:    1    charge:    0.8550    magn:    0.0066    constr:    0.0000
     atom:    2    charge:    0.8606    magn:    0.0065    constr:    0.0000
     atom:    3    charge:    0.8663    magn:    0.0052    constr:    0.0000
     atom:    4    charge:    0.8655    magn:    0.0049    constr:    0.0000
     atom:    5    charge:    0.8635    magn:    0.0077    constr:    0.0000
     atom:    6    charge:    0.8591    magn:    0.0073    constr:    0.0000
     atom:    7    charge:    0.8615    magn:    0.0061    constr:    0.0000
     atom:    8    charge:    0.8555    magn:    0.0068    constr:    0.0000
     atom:    9    charge:    0.8522    magn:    0.0065    constr:    0.0000
     atom:   10    charge:    0.8541    magn:    0.0078    constr:    0.0000
     atom:   11    charge:    0.8541    magn:    0.0081    constr:    0.0000
     atom:   12    charge:    0.8514    magn:    0.0065    constr:    0.0000
     atom:   13    charge:    0.8592    magn:    0.0077    constr:    0.0000
     atom:   14    charge:    0.8608    magn:    0.0083    constr:    0.0000
     atom:   15    charge:    0.8553    magn:    0.0078    constr:    0.0000
     atom:   16    charge:    0.8536    magn:    0.0062    constr:    0.0000
     atom:   17    charge:    0.8544    magn:    0.0058    constr:    0.0000
     atom:   18    charge:    0.8606    magn:    0.0065    constr:    0.0000
     atom:   19    charge:    0.8681    magn:    0.0062    constr:    0.0000
     atom:   20    charge:    0.8655    magn:    0.0057    constr:    0.0000
     atom:   21    charge:    0.8366    magn:   -0.0019    constr:    0.0000
     atom:   22    charge:    0.8377    magn:   -0.0017    constr:    0.0000
     atom:   23    charge:    0.8366    magn:   -0.0022    constr:    0.0000
     atom:   24    charge:    0.8374    magn:   -0.0024    constr:    0.0000
     atom:   25    charge:    0.8600    magn:    0.0063    constr:    0.0000
     atom:   26    charge:    0.8555    magn:    0.0070    constr:    0.0000
     atom:   27    charge:    0.8661    magn:    0.0061    constr:    0.0000
     atom:   28    charge:    0.8657    magn:    0.0056    constr:    0.0000
     atom:   29    charge:    0.8541    magn:    0.0058    constr:    0.0000
     atom:   30    charge:    0.8619    magn:    0.0066    constr:    0.0000
     atom:   31    charge:    0.8568    magn:    0.0061    constr:    0.0000
     atom:   32    charge:    0.8606    magn:    0.0064    constr:    0.0000
     atom:   33    charge:    0.8538    magn:    0.0083    constr:    0.0000
     atom:   34    charge:    0.8511    magn:    0.0064    constr:    0.0000
     atom:   35    charge:    0.8521    magn:    0.0064    constr:    0.0000
     atom:   36    charge:    0.8545    magn:    0.0078    constr:    0.0000
     atom:   37    charge:    0.8560    magn:    0.0077    constr:    0.0000
     atom:   38    charge:    0.8535    magn:    0.0063    constr:    0.0000
     atom:   39    charge:    0.8582    magn:    0.0075    constr:    0.0000
     atom:   40    charge:    0.8599    magn:    0.0079    constr:    0.0000
     atom:   41    charge:    0.8633    magn:    0.0075    constr:    0.0000
     atom:   42    charge:    0.8575    magn:    0.0069    constr:    0.0000
     atom:   43    charge:    0.8681    magn:    0.0054    constr:    0.0000
     atom:   44    charge:    0.8653    magn:    0.0050    constr:    0.0000
     atom:   45    charge:    0.8361    magn:   -0.0023    constr:    0.0000
     atom:   46    charge:    0.8368    magn:   -0.0023    constr:    0.0000
     atom:   47    charge:    0.8370    magn:   -0.0019    constr:    0.0000
     atom:   48    charge:    0.8379    magn:   -0.0021    constr:    0.0000
     atom:   49    charge:    0.8632    magn:    0.0065    constr:    0.0000
     atom:   50    charge:    0.8619    magn:    0.0042    constr:    0.0000
     atom:   51    charge:    0.8531    magn:    0.0047    constr:    0.0000
     atom:   52    charge:    0.8571    magn:    0.0031    constr:    0.0000
     atom:   53    charge:    0.8546    magn:    0.0055    constr:    0.0000
     atom:   54    charge:    0.8588    magn:    0.0035    constr:    0.0000
     atom:   55    charge:    0.8645    magn:    0.0074    constr:    0.0000
     atom:   56    charge:    0.8611    magn:    0.0038    constr:    0.0000
     atom:   57    charge:    0.5027    magn:   -0.0010    constr:    0.0000
     atom:   58    charge:    0.5040    magn:   -0.0012    constr:    0.0000
     atom:   59    charge:    0.5053    magn:   -0.0010    constr:    0.0000
     atom:   60    charge:    0.5051    magn:   -0.0010    constr:    0.0000
     atom:   61    charge:    0.5076    magn:   -0.0009    constr:    0.0000
     atom:   62    charge:    0.5086    magn:   -0.0010    constr:    0.0000
     atom:   63    charge:    0.5102    magn:    0.0006    constr:    0.0000
     atom:   64    charge:    0.5110    magn:    0.0008    constr:    0.0000
     atom:   65    charge:    0.5022    magn:   -0.0010    constr:    0.0000
     atom:   66    charge:    0.5016    magn:   -0.0009    constr:    0.0000
     atom:   67    charge:    0.5057    magn:   -0.0006    constr:    0.0000
     atom:   68    charge:    0.5025    magn:   -0.0011    constr:    0.0000
     atom:   69    charge:    0.5035    magn:   -0.0010    constr:    0.0000
     atom:   70    charge:    0.5036    magn:   -0.0012    constr:    0.0000
     atom:   71    charge:    0.5057    magn:   -0.0005    constr:    0.0000
     atom:   72    charge:    0.5024    magn:   -0.0011    constr:    0.0000
     atom:   73    charge:    0.5069    magn:   -0.0010    constr:    0.0000
     atom:   74    charge:    0.5079    magn:   -0.0011    constr:    0.0000
     atom:   75    charge:    0.5051    magn:   -0.0010    constr:    0.0000
     atom:   76    charge:    0.5054    magn:   -0.0010    constr:    0.0000
     atom:   77    charge:    0.5030    magn:   -0.0010    constr:    0.0000
     atom:   78    charge:    0.5017    magn:   -0.0009    constr:    0.0000
     atom:   79    charge:    0.5084    magn:    0.0002    constr:    0.0000
     atom:   80    charge:    0.5094    magn:    0.0003    constr:    0.0000
     atom:   81    charge:    0.5025    magn:    0.0012    constr:    0.0000
     atom:   82    charge:    0.5002    magn:    0.0039    constr:    0.0000
     atom:   83    charge:    0.5077    magn:    0.0050    constr:    0.0000
     atom:   84    charge:    0.5002    magn:    0.0033    constr:    0.0000
     atom:   85    charge:    0.4949    magn:    0.0010    constr:    0.0000
     atom:   86    charge:    0.4937    magn:    0.0043    constr:    0.0000
     atom:   87    charge:    0.5012    magn:    0.0035    constr:    0.0000
     atom:   88    charge:    0.4916    magn:    0.0028    constr:    0.0000
     atom:   89    charge:    0.4979    magn:    0.0034    constr:    0.0000
     atom:   90    charge:    0.5056    magn:    0.0008    constr:    0.0000
     atom:   91    charge:    0.4998    magn:    0.0034    constr:    0.0000
     atom:   92    charge:    0.5057    magn:    0.0028    constr:    0.0000
     atom:   93    charge:    0.4987    magn:    0.0037    constr:    0.0000
     atom:   94    charge:    0.4910    magn:    0.0027    constr:    0.0000
     atom:   95    charge:    0.4997    magn:    0.0031    constr:    0.0000
     atom:   96    charge:    0.5048    magn:    0.0006    constr:    0.0000
     atom:   97    charge:    0.5003    magn:    0.0036    constr:    0.0000
     atom:   98    charge:    0.5054    magn:    0.0028    constr:    0.0000
     atom:   99    charge:    0.5017    magn:    0.0013    constr:    0.0000
     atom:  100    charge:    0.4991    magn:    0.0035    constr:    0.0000
     atom:  101    charge:    0.5092    magn:    0.0057    constr:    0.0000
     atom:  102    charge:    0.5011    magn:    0.0036    constr:    0.0000
     atom:  103    charge:    0.4951    magn:    0.0006    constr:    0.0000
     atom:  104    charge:    0.4914    magn:    0.0045    constr:    0.0000
     atom:  105    charge:    2.4997    magn:    0.0123    constr:    0.0000
     atom:  106    charge:    2.4986    magn:    0.0134    constr:    0.0000
     atom:  107    charge:    2.5008    magn:    0.0127    constr:    0.0000
     atom:  108    charge:    2.4983    magn:    0.0130    constr:    0.0000
     atom:  109    charge:    2.4975    magn:    0.0131    constr:    0.0000
     atom:  110    charge:    2.4982    magn:    0.0131    constr:    0.0000
     atom:  111    charge:    2.5021    magn:    0.0119    constr:    0.0000
     atom:  112    charge:    2.4983    magn:    0.0133    constr:    0.0000
     atom:  113    charge:    7.4604    magn:    1.1563    constr:    0.0000
     atom:  114    charge:    7.4585    magn:    1.1578    constr:    0.0000
     atom:  115    charge:    7.4589    magn:    1.1562    constr:    0.0000
     atom:  116    charge:    7.4601    magn:    1.1493    constr:    0.0000
     atom:  117    charge:    3.3089    magn:    0.0572    constr:    0.0000
     atom:  118    charge:    3.3100    magn:    0.0582    constr:    0.0000
     atom:  119    charge:    3.3194    magn:    0.0546    constr:    0.0000
     atom:  120    charge:    3.3124    magn:    0.0571    constr:    0.0000
     atom:  121    charge:    3.3062    magn:    0.0570    constr:    0.0000
     atom:  122    charge:    3.3068    magn:    0.0607    constr:    0.0000
     atom:  123    charge:    3.3125    magn:    0.0613    constr:    0.0000
     atom:  124    charge:    3.3109    magn:    0.0572    constr:    0.0000
     atom:  125    charge:    3.3170    magn:    0.0542    constr:    0.0000
     atom:  126    charge:    3.3103    magn:    0.0592    constr:    0.0000
     atom:  127    charge:    3.3096    magn:    0.0581    constr:    0.0000
     atom:  128    charge:    3.3092    magn:    0.0566    constr:    0.0000
     atom:  129    charge:    3.3101    magn:    0.0595    constr:    0.0000
     atom:  130    charge:    3.3127    magn:    0.0589    constr:    0.0000
     atom:  131    charge:    3.3080    magn:    0.0577    constr:    0.0000
     atom:  132    charge:    3.3053    magn:    0.0603    constr:    0.0000

     total cpu time spent up to now is     3726.8 secs

     End of self-consistent calculation

 ------ SPIN UP ------------


          k = 0.0000 0.0000 0.0000 ( 91663 PWs)   bands (ev):

   -22.0183 -22.0083 -21.9689 -21.9607 -21.8864 -21.8434 -21.8346 -21.8335
   -19.1184 -19.0806 -19.0562 -19.0514 -19.0158 -19.0002 -18.9789 -18.9722
   -18.8099 -18.7829 -18.7793 -18.7454 -18.6851 -18.6668 -18.6493 -18.6470
   -15.5014 -15.4632 -15.2974 -15.2606 -15.2313 -15.2154 -15.1742 -15.1625
   -14.5355 -14.4859 -14.3144 -14.2625 -14.0401 -14.0244 -13.9642 -13.9324
   -12.6108 -12.5257 -12.1904 -12.1243 -11.8352 -11.8039 -11.7650 -11.7095
   -11.4565 -11.3539 -11.2726 -11.2370 -11.1682 -11.1622 -11.1296 -11.1097
   -10.3814 -10.3666 -10.1226 -10.0332  -9.9438  -9.9136  -9.8623  -9.8088
    -9.1679  -8.9873  -8.8175  -8.7592  -8.7192  -8.6209  -8.4658  -8.3837
    -7.7931  -7.6373  -7.5781  -7.4940  -7.4769  -7.4408  -7.4233  -7.3617
    -7.3571  -7.3149  -7.2530  -7.2300  -7.1552  -7.1439  -6.9910  -6.9663
    -6.7436  -6.6560  -6.5631  -6.5134  -6.5072  -6.4824  -6.4404  -6.4212
    -6.4116  -6.3252  -6.2831  -6.2798  -6.2313  -6.1945  -6.1393  -6.1147
    -6.0815  -6.0532  -6.0415  -6.0075  -5.9688  -5.9620  -5.9279  -5.8938
    -5.8660  -5.8135  -5.8032  -5.7875  -5.7620  -5.7301  -5.6652  -5.6616
    -5.5870  -5.5795  -5.5300  -5.3816  -5.2652  -5.2503  -5.1784  -5.1536
    -4.9897  -4.9664  -4.8852  -4.8759  -4.8033  -4.7751  -4.7482  -4.7161
    -4.6602  -4.5034  -4.4428  -4.3294  -4.3015  -4.2589  -4.2345  -4.2014
    -4.1835  -4.1064  -4.0702  -3.9990  -3.9957  -3.9453  -3.8073  -3.7656
    -3.7367  -3.7068  -3.6903  -3.6284  -3.5840  -3.5553  -3.5086  -3.4454
    -3.4056  -3.3715  -3.3488  -3.3086  -3.2946  -3.1977  -3.1400  -3.0809
    -3.0350  -3.0128  -2.9263  -2.8683  -2.8483  -2.8150  -2.7664  -2.7417
    -2.6913  -2.6797  -2.6622  -2.6387  -2.6120  -2.5735  -2.5040  -2.4719
    -2.4298  -2.3019  -2.2630  -2.1673  -2.1572  -2.1352  -2.0137  -2.0076
    -1.9750  -1.9658  -1.9563  -1.9099  -1.9003  -1.8669  -1.8411  -1.8295
    -1.8108  -1.7576  -1.7418  -1.7218  -1.6904  -1.6689  -1.6493  -1.6188
    -1.5782  -1.5097  -1.4041  -1.3404  -1.2272  -1.1953  -1.1699  -1.1139
    -1.0232  -0.9883  -0.8472  -0.7733   0.0630   0.0688   0.1218   0.1501
     0.3782   0.3999   0.4503   0.4551   2.2287   2.2595   2.3294   2.3436
     2.3758   2.4095   2.4363   2.4846   3.0870   3.3258   3.4890   3.5284
     3.5966   3.6809   3.7341   3.7571   3.8096   3.8182   3.8967   3.9374
     4.5321   4.5386   4.7087   4.7183   4.7876   4.8545   4.8972   4.9598
     4.9654   4.9996   5.0175   5.0264   5.0876   5.2164   5.2561   5.4438
     5.6161   5.6259   5.7182   6.0110   6.1552   6.1771   6.1983   6.2335
     6.4772   6.6348

 ------ SPIN DOWN ----------


          k = 0.0000 0.0000 0.0000 ( 91663 PWs)   bands (ev):

   -21.9194 -21.9119 -21.8677 -21.8592 -21.7909 -21.7422 -21.7340 -21.7326
   -18.9890 -18.9530 -18.9298 -18.9174 -18.8819 -18.8653 -18.8474 -18.8370
   -18.7722 -18.7469 -18.7428 -18.7104 -18.6485 -18.6314 -18.6139 -18.6115
   -15.4617 -15.4238 -15.2574 -15.2208 -15.1909 -15.1750 -15.1331 -15.1214
   -14.4913 -14.4428 -14.2699 -14.2182 -13.9952 -13.9800 -13.9190 -13.8867
   -12.5735 -12.4892 -12.1593 -12.0938 -11.8012 -11.7705 -11.7315 -11.6766
   -11.4163 -11.3154 -11.2322 -11.1967 -11.1306 -11.1233 -11.0918 -11.0714
   -10.3448 -10.3309 -10.0921 -10.0021  -9.9129  -9.8828  -9.8294  -9.7778
    -9.1408  -8.9603  -8.7866  -8.7282  -8.6901  -8.5900  -8.4281  -8.3512
    -7.7491  -7.5984  -7.5382  -7.4581  -7.4305  -7.4053  -7.3790  -7.3213
    -7.3143  -7.2740  -7.2172  -7.1799  -7.0978  -7.0865  -6.9295  -6.8988
    -6.7026  -6.6066  -6.5136  -6.4471  -6.4238  -6.3905  -6.3780  -6.3334
    -6.3185  -6.2435  -6.1944  -6.1875  -6.1206  -6.0955  -6.0569  -6.0172
    -5.9959  -5.9740  -5.9632  -5.9365  -5.9004  -5.8795  -5.8441  -5.8227
    -5.7813  -5.7372  -5.7077  -5.7048  -5.6772  -5.6501  -5.5917  -5.5819
    -5.5209  -5.4912  -5.4551  -5.3284  -5.2011  -5.1809  -5.1172  -5.0729
    -4.9222  -4.8864  -4.8453  -4.8336  -4.7333  -4.7061  -4.6723  -4.6339
    -4.5808  -4.4283  -4.3616  -4.2489  -4.2275  -4.1478  -4.1255  -4.0964
    -4.0315  -3.9769  -3.9361  -3.8265  -3.7959  -3.6420  -3.6368  -3.6159
    -3.5989  -3.5892  -3.5327  -3.4461  -3.4359  -3.3982  -3.3346  -3.3200
    -3.2734  -3.2286  -3.2196  -3.1139  -3.0212  -2.9442  -2.9286  -2.8070
    -2.7580  -2.6786  -2.5736  -2.5036  -2.4997  -2.4518  -2.3813  -2.3304
    -2.2775  -2.2696  -2.2582  -2.2253  -2.1908  -2.1586  -2.1176  -2.0937
    -2.0195  -1.9766  -1.9566  -1.9471  -1.8733  -1.8389  -1.7957  -1.7556
    -1.7378  -1.6792  -1.6560  -1.6247  -1.5681  -1.5297  -1.5028  -1.3418
    -1.2291  -1.1591  -1.1274  -1.0943  -1.0781  -1.0401  -0.9842  -0.9743
    -0.9349  -0.9273  -0.9200  -0.8879  -0.8814  -0.8437  -0.8348  -0.7563
    -0.7468  -0.7210  -0.6887  -0.5994   0.9254   0.9369   0.9728   1.0018
     1.1719   1.2061   1.2340   1.2373   2.3532   2.3880   2.4349   2.4584
     2.4934   2.5283   2.5559   2.6035   3.0650   3.4178   3.5474   3.6474
     3.6966   3.7321   3.7416   3.8143   3.8498   3.9356   3.9800   4.0584
     4.5279   4.5431   4.7047   4.7258   4.8185   4.8465   4.9301   5.0320
     5.0334   5.0740   5.0880   5.1030   5.1255   5.2352   5.3026   5.4362
     5.6119   5.6252   5.7293   6.0259   6.1700   6.1808   6.1887   6.2383
     6.4744   6.6381

     the spin up/dw Fermi energies are     0.6277    0.3107 ev

!    total energy              =   -1754.91338098 Ry
     Harris-Foulkes estimate   =   -1754.91338457 Ry
     estimated scf accuracy    <       0.00000089 Ry

     The total energy is the sum of the following terms:

     one-electron contribution =   -2474.39191840 Ry
     hartree contribution      =    1408.16129284 Ry
     xc contribution           =    -559.38203312 Ry
     ewald contribution        =    -131.84287726 Ry
     Dispersion Correction     =      -0.61571380 Ry
     smearing contrib. (-TS)   =       3.15786876 Ry

     total magnetization       =     8.00 Bohr mag/cell
     absolute magnetization    =     8.23 Bohr mag/cell

     convergence has been achieved in  23 iterations

     Forces acting on atoms (cartesian axes, Ry/au):

     atom    1 type  1   force =    -0.04272242    0.01789851   -0.06327968
     atom    2 type  1   force =    -0.01474304   -0.00555138   -0.01208865
     atom    3 type  1   force =     0.01393981    0.00828057    0.00454088
     atom    4 type  1   force =    -0.00508472   -0.00443891   -0.01239777
     atom    5 type  1   force =     0.01154044   -0.00486843   -0.04026107
     atom    6 type  1   force =     0.05798146   -0.00624079   -0.01912605
     atom    7 type  1   force =     0.01314374   -0.00576975   -0.01096877
     atom    8 type  1   force =     0.04593649    0.01476430   -0.05797828
     atom    9 type  1   force =     0.01778615    0.00024032   -0.00835858
     atom   10 type  1   force =    -0.00404519   -0.03043780    0.01413574
     atom   11 type  1   force =    -0.00034581   -0.03247845    0.01074725
     atom   12 type  1   force =    -0.01882638   -0.00280248   -0.00832644
     atom   13 type  1   force =    -0.00227382   -0.06514538   -0.03911155
     atom   14 type  1   force =    -0.02459149    0.07372810   -0.04723324
     atom   15 type  1   force =     0.00318557    0.02209182    0.01797793
     atom   16 type  1   force =    -0.02298971   -0.00405690    0.01623693
     atom   17 type  1   force =    -0.08358635   -0.02383083    0.02158808
     atom   18 type  1   force =    -0.01359749    0.00252735    0.00190299
     atom   19 type  1   force =     0.01333272   -0.00516043   -0.01503961
     atom   20 type  1   force =    -0.01385713    0.00460275    0.00501479
     atom   21 type  1   force =     0.01027527   -0.00796183    0.02452691
     atom   22 type  1   force =     0.00619557    0.01175507    0.02684473
     atom   23 type  1   force =     0.00785630    0.01328926    0.00965365
     atom   24 type  1   force =     0.00265667   -0.01013553    0.01081256
     atom   25 type  1   force =    -0.01245102    0.00616941   -0.01287301
     atom   26 type  1   force =    -0.04082185   -0.01456426   -0.05757901
     atom   27 type  1   force =    -0.01271047    0.00555594   -0.01498418
     atom   28 type  1   force =     0.01481990   -0.00474330    0.00653767
     atom   29 type  1   force =     0.08409500    0.01865633    0.02472280
     atom   30 type  1   force =     0.01268838   -0.00204106    0.00195444
     atom   31 type  1   force =     0.04626684   -0.01594155   -0.06346171
     atom   32 type  1   force =     0.01623596    0.00568191   -0.01163766
     atom   33 type  1   force =     0.00219947    0.02860042    0.01263610
     atom   34 type  1   force =     0.01958843    0.00153252   -0.00797050
     atom   35 type  1   force =    -0.01775681   -0.00020384   -0.00761207
     atom   36 type  1   force =     0.00409072    0.03134285    0.01358669
     atom   37 type  1   force =    -0.00458192   -0.02267051    0.01940532
     atom   38 type  1   force =     0.02174440    0.00474320    0.01754460
     atom   39 type  1   force =    -0.00222959    0.05208614   -0.03076534
     atom   40 type  1   force =     0.01940105   -0.06099380   -0.03318000
     atom   41 type  1   force =    -0.00618468    0.00150138   -0.03445333
     atom   42 type  1   force =    -0.05443307    0.00862044   -0.01145275
     atom   43 type  1   force =    -0.01500157   -0.00772122    0.00455440
     atom   44 type  1   force =     0.00577486    0.00319686   -0.01209319
     atom   45 type  1   force =    -0.00869785   -0.01099162    0.00894254
     atom   46 type  1   force =    -0.00334515    0.00970836    0.00959662
     atom   47 type  1   force =    -0.00535873    0.00913315    0.01888512
     atom   48 type  1   force =     0.00057114   -0.01058508    0.01739615
     atom   49 type  1   force =    -0.02768239   -0.05932828    0.10919254
     atom   50 type  1   force =     0.02418194   -0.02065507   -0.03969810
     atom   51 type  1   force =     0.00947910    0.00855935    0.01768827
     atom   52 type  1   force =    -0.00849415   -0.05097059    0.05193281
     atom   53 type  1   force =    -0.01801075    0.00536304    0.00853540
     atom   54 type  1   force =     0.00219135    0.06168929    0.06399940
     atom   55 type  1   force =     0.03310118    0.04284932    0.12053624
     atom   56 type  1   force =    -0.02098151    0.02383391   -0.05280687
     atom   57 type  2   force =    -0.00972700    0.00468527    0.01091309
     atom   58 type  2   force =    -0.00982884   -0.00564950    0.01371638
     atom   59 type  2   force =    -0.01335340   -0.00712187    0.00243882
     atom   60 type  2   force =    -0.01353366    0.00626375    0.00216835
     atom   61 type  2   force =     0.02721409   -0.00275228   -0.00346123
     atom   62 type  2   force =     0.02385979   -0.00072013   -0.00225150
     atom   63 type  2   force =    -0.01654663   -0.02555327   -0.07553151
     atom   64 type  2   force =    -0.01581602    0.02997836   -0.08276825
     atom   65 type  2   force =     0.01263148   -0.00746425   -0.01559165
     atom   66 type  2   force =     0.01148126    0.00695101   -0.01484849
     atom   67 type  2   force =     0.01365615    0.00882910   -0.02943077
     atom   68 type  2   force =     0.01308640   -0.00376339   -0.00586630
     atom   69 type  2   force =     0.00934419   -0.00539921    0.01201718
     atom   70 type  2   force =     0.01011402    0.00554203    0.01432940
     atom   71 type  2   force =    -0.01149584   -0.01190999   -0.03215567
     atom   72 type  2   force =    -0.01382636    0.00418640   -0.00502158
     atom   73 type  2   force =    -0.02032761   -0.00520301   -0.00020867
     atom   74 type  2   force =    -0.02160471    0.00187743   -0.00113038
     atom   75 type  2   force =     0.01332640    0.00634609    0.00156913
     atom   76 type  2   force =     0.01357792   -0.00717554    0.00191536
     atom   77 type  2   force =    -0.01253569    0.00726646   -0.01606918
     atom   78 type  2   force =    -0.01314912   -0.00698057   -0.01599983
     atom   79 type  2   force =     0.02192772    0.01725405   -0.06649906
     atom   80 type  2   force =     0.01924769   -0.02014346   -0.06904011
     atom   81 type  2   force =     0.03011941    0.01273897    0.00062659
     atom   82 type  2   force =     0.02001696   -0.06738044    0.04796733
     atom   83 type  2   force =    -0.03589927   -0.00390690    0.11811452
     atom   84 type  2   force =     0.00724520   -0.00810440   -0.06408611
     atom   85 type  2   force =     0.01026638    0.02508610   -0.02451641
     atom   86 type  2   force =    -0.03827663   -0.02649476    0.03079461
     atom   87 type  2   force =     0.02320828   -0.01730471   -0.03668544
     atom   88 type  2   force =    -0.00494501    0.02344416   -0.01768980
     atom   89 type  2   force =     0.04238641   -0.02510206    0.03903518
     atom   90 type  2   force =    -0.03246555    0.01515726   -0.00043272
     atom   91 type  2   force =    -0.02255181   -0.05861699    0.02860609
     atom   92 type  2   force =    -0.00046372   -0.00187642    0.08292422
     atom   93 type  2   force =    -0.02413269    0.02059776   -0.04285050
     atom   94 type  2   force =     0.00468016   -0.02334284   -0.01603161
     atom   95 type  2   force =    -0.04555147    0.03266215    0.03790942
     atom   96 type  2   force =     0.03248282   -0.01569966    0.00070473
     atom   97 type  2   force =     0.02019060    0.06736146    0.04056692
     atom   98 type  2   force =    -0.00281574    0.00470275    0.08549283
     atom   99 type  2   force =    -0.02906372   -0.01174386   -0.00278446
     atom  100 type  2   force =    -0.02487167    0.05894643    0.03164447
     atom  101 type  2   force =     0.03957883    0.00125100    0.11793893
     atom  102 type  2   force =    -0.02283728   -0.00052029   -0.06916023
     atom  103 type  2   force =    -0.01037347   -0.02505564   -0.02514216
     atom  104 type  2   force =     0.03605009    0.02283770    0.03254396
     atom  105 type  3   force =     0.00986825    0.00435808   -0.00468891
     atom  106 type  3   force =     0.01063294   -0.00289516   -0.00320360
     atom  107 type  3   force =    -0.00628879    0.00107462   -0.00722802
     atom  108 type  3   force =    -0.00067224   -0.00078645   -0.00984426
     atom  109 type  3   force =     0.00434825   -0.00068542   -0.00509394
     atom  110 type  3   force =     0.00044903    0.00089052   -0.00967783
     atom  111 type  3   force =    -0.00958065   -0.00436099   -0.00998572
     atom  112 type  3   force =    -0.01037309    0.00328467   -0.00500423
     atom  113 type  4   force =     0.00689394    0.01292404   -0.00675746
     atom  114 type  4   force =    -0.00472142   -0.01430129    0.00944696
     atom  115 type  4   force =     0.00986672    0.02052525   -0.00474976
     atom  116 type  4   force =    -0.00618907   -0.01639339    0.00540568
     atom  117 type  5   force =     0.02296930    0.00209542   -0.00688221
     atom  118 type  5   force =     0.01658003    0.00717105   -0.00640626
     atom  119 type  5   force =    -0.01531506    0.01936461    0.00238743
     atom  120 type  5   force =    -0.02261621   -0.01721635    0.00471597
     atom  121 type  5   force =    -0.01778169    0.00990968    0.01737708
     atom  122 type  5   force =    -0.01849238   -0.00898025    0.01540520
     atom  123 type  5   force =     0.00241440    0.00706086    0.00563501
     atom  124 type  5   force =    -0.00030993   -0.00445803    0.00566669
     atom  125 type  5   force =     0.01461445   -0.01346321   -0.00369611
     atom  126 type  5   force =     0.02440123    0.00999858    0.00340069
     atom  127 type  5   force =    -0.02174067   -0.00459152   -0.00567216
     atom  128 type  5   force =    -0.01560484   -0.00185508   -0.01011535
     atom  129 type  5   force =    -0.00783339   -0.00752182    0.00520410
     atom  130 type  5   force =    -0.00133280    0.00510882    0.00669768
     atom  131 type  5   force =     0.01208982   -0.01263603    0.01591875
     atom  132 type  5   force =     0.01916963    0.00968573    0.01616854

     Total force =     0.542996     Total SCF correction =     0.002057

     BFGS Geometry Optimization

     number of scf cycles    =   1
     number of bfgs steps    =   0

     energy   new            =   -1754.9133809795 Ry

     new trust radius        =       0.1321390821 bohr
     new conv_thr            =       0.0000010000 Ry


ATOMIC_POSITIONS (crystal)
C             0.2863448756        0.9708063030        0.5187247773
C             0.0377438136        0.0308714260        0.0216853735
C             0.3912281225        0.0121198961        0.5467258783
C             0.1400172178        0.9875564337        0.0455074524
C             0.4523655971        0.9699962839        0.6482973517
C             0.2049555702        0.0280892951        0.1489079119
C             0.2087268987        0.5294601988        0.5258190530
C             0.4604344661        0.4720328668        0.0249178258
C             0.2458817899        0.6133411546        0.6060044909
C             0.4966610773        0.3873908485        0.1093450621
C             0.2494714411        0.8878336206        0.6037565376
C             0.0002645526        0.1121135810        0.1038181462
C             0.4078441214        0.8866302771        0.7255375578
C             0.1588501310        0.1126623866        0.2253792500
C             0.0890136499        0.6099164916        0.7282779542
C             0.3399324051        0.3914615755        0.2302302838
C             0.0434082612        0.5240720264        0.6524238950
C             0.2970844032        0.4748177936        0.1528520138
C             0.1087140793        0.4840519456        0.5493413839
C             0.3572503333        0.5158504895        0.0508962872
C             0.4337677910        0.0989825723        0.4678842598
C             0.1818043302        0.9002167113        0.9670546389
C             0.0677194901        0.3950355385        0.4711732119
C             0.3161655527        0.6037437224        0.9696639016
C             0.7876730658        0.9703106891        0.5213209748
C             0.5365976424        0.0304905862        0.0193423904
C             0.8900821083        0.0120047665        0.5457202393
C             0.6408772355        0.9875435716        0.0464827229
C             0.9554966725        0.9709903247        0.6516443492
C             0.7030587437        0.0282667547        0.1499936635
C             0.7100803053        0.5290303887        0.5231154018
C             0.9592221194        0.4716490897        0.0273046016
C             0.7452419157        0.6145395128        0.6070858228
C             0.9976404174        0.3887417566        0.1082064792
C             0.7487174813        0.8891973868        0.6028109402
C             0.5012548355        0.1135563943        0.1049467830
C             0.9078013050        0.8884250559        0.7285514720
C             0.6608705645        0.1097474241        0.2287156354
C             0.5887388162        0.6111839039        0.7257674296
C             0.8416798580        0.3890557024        0.2276850624
C             0.5466309987        0.5251424410        0.6495374799
C             0.7953439175        0.4750752572        0.1521641256
C             0.6075334745        0.4839437392        0.5503505746
C             0.8580650286        0.5157910836        0.0500151395
C             0.9329503310        0.0988545481        0.4670815860
C             0.6813844446        0.9001302276        0.9661662744
C             0.5671679465        0.3948599221        0.4716486791
C             0.8160834744        0.6037247266        0.9700029894
C             0.2143979661        0.0051690789        0.4166639666
C             0.3155140528        0.9885222183        0.1814383476
C             0.9373256906        0.4838496759        0.6847140352
C             0.5297552478        0.5061402337        0.9218418017
C             0.0634968719        0.0079416155        0.6853376161
C             0.4649357177        0.9976466858        0.9147232918
C             0.7813736694        0.4951586013        0.4240052244
C             0.6863996640        0.5162721038        0.1830761797
H             0.2582986295        0.5010929764        0.4498440791
H             0.0082379476        0.5001582799        0.9512544628
H             0.3220782339        0.6502050648        0.5927606113
H             0.0743973525        0.3531156753        0.0951396810
H             0.1713023259        0.8550067020        0.5883817291
H             0.4233295220        0.1477015711        0.0897700366
H             0.4525990254        0.8540932446        0.8048707464
H             0.2054921579        0.1443697380        0.3045340177
H             0.0442488890        0.6426285976        0.8058049514
H             0.2968499136        0.3578197152        0.3082862278
H             0.4692222756        0.4936040744        0.6719861668
H             0.2195002550        0.5050419778        0.1749618562
H             0.7375306659        0.9993468558        0.4437319453
H             0.9869794089        0.0029261788        0.9442370362
H             0.5315454096        0.9983017426        0.6718638206
H             0.7817502275        0.9988418966        0.1723433632
H             0.8217806370        0.6502861465        0.5926242522
H             0.5740527326        0.3529303308        0.0949697797
H             0.6707193805        0.8553911545        0.5886408180
H             0.9228983479        0.1474287970        0.0899846508
H             0.9528244871        0.8554800447        0.8079333562
H             0.7056685946        0.1428080353        0.3079729280
H             0.5445945428        0.6436730713        0.8031829630
H             0.7971277547        0.3566748366        0.3054950862
H             0.1391690970        0.9648332860        0.4088982726
H             0.1979569846        0.0909988346        0.4247025596
H             0.2522536302        0.9929549135        0.3222864935
H             0.3498635106        0.0317985480        0.2657762418
H             0.3135184434        0.9042280149        0.2070832813
H             0.3666721815        0.0024364620        0.1022980777
H             0.9033956762        0.5262087880        0.7654815150
H             0.9412521692        0.3988776346        0.7104388861
H             0.8827431800        0.4932433107        0.6015405088
H             0.6050298076        0.4634934712        0.9180477129
H             0.5501145295        0.5913251347        0.9336633580
H             0.4895881075        0.4957477118        0.8274700155
H             0.0973616538        0.9651923599        0.7683279832
H             0.0639470147        0.0929006466        0.7092952913
H             0.1163090141        0.9945051416        0.6043985264
H             0.3892531784        0.0389256096        0.9098802972
H             0.4459993954        0.9119583638        0.9242304009
H             0.5028999888        0.0096087150        0.8209273119
H             0.8542715522        0.5394017622        0.4159015862
H             0.8011152120        0.4107167857        0.4330528500
H             0.7406903381        0.5047768611        0.3279544501
H             0.6527928075        0.4719110150        0.2664798994
H             0.6906244772        0.6000132720        0.2112390519
H             0.6325819730        0.5042940085        0.1037381780
N             0.3088501820        0.8514371511        0.7045864977
N             0.0611759322        0.1487346649        0.2058869984
N             0.1862691134        0.6503554080        0.7054657207
N             0.4387723264        0.3508947684        0.2075339711
N             0.8086162222        0.8512240376        0.7045656365
N             0.5607389292        0.1488946291        0.2055535428
N             0.6861282326        0.6501257259        0.7053236850
N             0.9383663698        0.3510667941        0.2077832568
Ni            0.2472873844        0.7520321063        0.8359779566
Ni            0.4997810673        0.2473946980        0.3396645663
Ni            0.7474150603        0.7523532961        0.8360813635
Ni            0.9997151752        0.2473062961        0.3394564197
O             0.1237435000        0.3477775422        0.3825185314
O             0.3719035827        0.6512800133        0.8809620455
O             0.3769841776        0.1483252529        0.3773009648
O             0.1241454105        0.8516245219        0.8765038961
O             0.4723328522        0.3565787344        0.4838890073
O             0.2203689311        0.6410355390        0.9806704454
O             0.0289474479        0.1354563572        0.4813682313
O             0.2766781968        0.8625696257        0.9796908633
O             0.6233939493        0.3471201110        0.3826826318
O             0.8722437312        0.6513994906        0.8814671528
O             0.8767047218        0.1473129852        0.3768858550
O             0.6244281959        0.8522736133        0.8757400085
O             0.9727424066        0.3558421651        0.4832620373
O             0.7210868806        0.6416308737        0.9802219643
O             0.5293665049        0.1346240634        0.4818978960
O             0.7775123230        0.8631672713        0.9802317612



     Writing output data file /nfs/hpc/share/gantzlen/NiPyC2_relax_sc211_meta_functionalized_CH3_vdw-df2_relax.save/
     NEW-OLD atomic charge density approx. for the potential

     Check: negative core charge=   -0.000145

     total cpu time spent up to now is     3796.1 secs

     Self-consistent Calculation

     iteration #  1     ecut=   100.00 Ry     beta= 0.70
     Davidson diagonalization with overlap
     ethr =  1.00E-06,  avg # of iterations = 10.5

     total cpu time spent up to now is     4362.8 secs

     total energy              =   -1755.08223174 Ry
     Harris-Foulkes estimate   =   -1755.10856972 Ry
     estimated scf accuracy    <       0.08546647 Ry

     total magnetization       =     8.00 Bohr mag/cell
     absolute magnetization    =     8.25 Bohr mag/cell

     iteration #  2     ecut=   100.00 Ry     beta= 0.70
     Davidson diagonalization with overlap
     ethr =  1.91E-05,  avg # of iterations =  2.0

     total cpu time spent up to now is     4508.3 secs

     total energy              =   -1755.08217577 Ry
     Harris-Foulkes estimate   =   -1755.09368038 Ry
     estimated scf accuracy    <       0.04699060 Ry

     total magnetization       =     8.00 Bohr mag/cell
     absolute magnetization    =     8.25 Bohr mag/cell

     iteration #  3     ecut=   100.00 Ry     beta= 0.70
     Davidson diagonalization with overlap
     ethr =  1.05E-05,  avg # of iterations =  2.0

     total cpu time spent up to now is     4641.2 secs

     total energy              =   -1755.08456984 Ry
     Harris-Foulkes estimate   =   -1755.09694416 Ry
     estimated scf accuracy    <       0.11698487 Ry

     total magnetization       =     8.00 Bohr mag/cell
     absolute magnetization    =     8.24 Bohr mag/cell

     iteration #  4     ecut=   100.00 Ry     beta= 0.70
     Davidson diagonalization with overlap
     ethr =  1.05E-05,  avg # of iterations =  1.0

     total cpu time spent up to now is     4768.8 secs

     total energy              =   -1755.08984389 Ry
     Harris-Foulkes estimate   =   -1755.09072468 Ry
     estimated scf accuracy    <       0.00781863 Ry

     total magnetization       =     8.00 Bohr mag/cell
     absolute magnetization    =     8.25 Bohr mag/cell

     iteration #  5     ecut=   100.00 Ry     beta= 0.70
     Davidson diagonalization with overlap
     ethr =  1.75E-06,  avg # of iterations =  1.0

     total cpu time spent up to now is     4904.4 secs

     total energy              =   -1755.09024051 Ry
     Harris-Foulkes estimate   =   -1755.09058625 Ry
     estimated scf accuracy    <       0.00349942 Ry

     total magnetization       =     8.00 Bohr mag/cell
     absolute magnetization    =     8.25 Bohr mag/cell

     iteration #  6     ecut=   100.00 Ry     beta= 0.70
     Davidson diagonalization with overlap
     ethr =  7.81E-07,  avg # of iterations =  2.5

     total cpu time spent up to now is     5041.8 secs

     total energy              =   -1755.09038713 Ry
     Harris-Foulkes estimate   =   -1755.09042810 Ry
     estimated scf accuracy    <       0.00020570 Ry

     total magnetization       =     8.00 Bohr mag/cell
     absolute magnetization    =     8.25 Bohr mag/cell

     iteration #  7     ecut=   100.00 Ry     beta= 0.70
     Davidson diagonalization with overlap
     ethr =  4.59E-08,  avg # of iterations =  4.0

     total cpu time spent up to now is     5223.2 secs

     total energy              =   -1755.09040396 Ry
     Harris-Foulkes estimate   =   -1755.09042176 Ry
     estimated scf accuracy    <       0.00006576 Ry

     total magnetization       =     8.00 Bohr mag/cell
     absolute magnetization    =     8.25 Bohr mag/cell

     iteration #  8     ecut=   100.00 Ry     beta= 0.70
     Davidson diagonalization with overlap
     ethr =  1.47E-08,  avg # of iterations =  3.0

     total cpu time spent up to now is     5367.7 secs

     total energy              =   -1755.09039741 Ry
     Harris-Foulkes estimate   =   -1755.09041218 Ry
     estimated scf accuracy    <       0.00009993 Ry

     total magnetization       =     8.00 Bohr mag/cell
     absolute magnetization    =     8.25 Bohr mag/cell

     iteration #  9     ecut=   100.00 Ry     beta= 0.70
     Davidson diagonalization with overlap
     ethr =  1.47E-08,  avg # of iterations =  2.5

     total cpu time spent up to now is     5505.1 secs

     total energy              =   -1755.09039599 Ry
     Harris-Foulkes estimate   =   -1755.09040784 Ry
     estimated scf accuracy    <       0.00008417 Ry

     total magnetization       =     8.00 Bohr mag/cell
     absolute magnetization    =     8.25 Bohr mag/cell

     iteration # 10     ecut=   100.00 Ry     beta= 0.70
     Davidson diagonalization with overlap
     ethr =  1.47E-08,  avg # of iterations =  2.5

     total cpu time spent up to now is     5647.5 secs

     total energy              =   -1755.09039483 Ry
     Harris-Foulkes estimate   =   -1755.09039973 Ry
     estimated scf accuracy    <       0.00001005 Ry

     total magnetization       =     8.00 Bohr mag/cell
     absolute magnetization    =     8.25 Bohr mag/cell

     iteration # 11     ecut=   100.00 Ry     beta= 0.70
     Davidson diagonalization with overlap
     ethr =  2.24E-09,  avg # of iterations =  3.5

     total cpu time spent up to now is     5829.4 secs

     total energy              =   -1755.09039165 Ry
     Harris-Foulkes estimate   =   -1755.09039608 Ry
     estimated scf accuracy    <       0.00000365 Ry

     total magnetization       =     8.00 Bohr mag/cell
     absolute magnetization    =     8.25 Bohr mag/cell

     iteration # 12     ecut=   100.00 Ry     beta= 0.70
     Davidson diagonalization with overlap
     ethr =  8.16E-10,  avg # of iterations =  4.5

     total cpu time spent up to now is     6035.8 secs

     total energy              =   -1755.09039082 Ry
     Harris-Foulkes estimate   =   -1755.09039260 Ry
     estimated scf accuracy    <       0.00000195 Ry

     total magnetization       =     8.00 Bohr mag/cell
     absolute magnetization    =     8.25 Bohr mag/cell

     iteration # 13     ecut=   100.00 Ry     beta= 0.70
     Davidson diagonalization with overlap
     ethr =  4.35E-10,  avg # of iterations =  3.5

     total cpu time spent up to now is     6217.4 secs

     total energy              =   -1755.09038976 Ry
     Harris-Foulkes estimate   =   -1755.09039125 Ry
     estimated scf accuracy    <       0.00000253 Ry

     total magnetization       =     8.00 Bohr mag/cell
     absolute magnetization    =     8.25 Bohr mag/cell

     iteration # 14     ecut=   100.00 Ry     beta= 0.70
     Davidson diagonalization with overlap
     ethr =  4.35E-10,  avg # of iterations =  3.5

     total cpu time spent up to now is     6401.9 secs

     total energy              =   -1755.09038884 Ry
     Harris-Foulkes estimate   =   -1755.09039017 Ry
     estimated scf accuracy    <       0.00000177 Ry

     total magnetization       =     8.00 Bohr mag/cell
     absolute magnetization    =     8.25 Bohr mag/cell

     iteration # 15     ecut=   100.00 Ry     beta= 0.70
     Davidson diagonalization with overlap
     ethr =  3.95E-10,  avg # of iterations =  3.5

     total cpu time spent up to now is     6584.9 secs

     total energy              =   -1755.09038787 Ry
     Harris-Foulkes estimate   =   -1755.09038916 Ry
     estimated scf accuracy    <       0.00000143 Ry

     total magnetization       =     8.00 Bohr mag/cell
     absolute magnetization    =     8.25 Bohr mag/cell

     iteration # 16     ecut=   100.00 Ry     beta= 0.70
     Davidson diagonalization with overlap
     ethr =  3.19E-10,  avg # of iterations =  4.0

     total cpu time spent up to now is     6772.1 secs

     total energy              =   -1755.09038703 Ry
     Harris-Foulkes estimate   =   -1755.09038817 Ry
     estimated scf accuracy    <       0.00000112 Ry

     total magnetization       =     8.00 Bohr mag/cell
     absolute magnetization    =     8.25 Bohr mag/cell

     iteration # 17     ecut=   100.00 Ry     beta= 0.70
     Davidson diagonalization with overlap
     ethr =  2.50E-10,  avg # of iterations =  4.0
 
     Magnetic moment per site:
     atom:    1    charge:    0.8505    magn:    0.0060    constr:    0.0000
     atom:    2    charge:    0.8623    magn:    0.0060    constr:    0.0000
     atom:    3    charge:    0.8654    magn:    0.0050    constr:    0.0000
     atom:    4    charge:    0.8643    magn:    0.0048    constr:    0.0000
     atom:    5    charge:    0.8622    magn:    0.0071    constr:    0.0000
     atom:    6    charge:    0.8486    magn:    0.0080    constr:    0.0000
     atom:    7    charge:    0.8637    magn:    0.0055    constr:    0.0000
     atom:    8    charge:    0.8497    magn:    0.0067    constr:    0.0000
     atom:    9    charge:    0.8520    magn:    0.0069    constr:    0.0000
     atom:   10    charge:    0.8543    magn:    0.0077    constr:    0.0000
     atom:   11    charge:    0.8537    magn:    0.0091    constr:    0.0000
     atom:   12    charge:    0.8513    magn:    0.0073    constr:    0.0000
     atom:   13    charge:    0.8607    magn:    0.0078    constr:    0.0000
     atom:   14    charge:    0.8610    magn:    0.0074    constr:    0.0000
     atom:   15    charge:    0.8537    magn:    0.0078    constr:    0.0000
     atom:   16    charge:    0.8528    magn:    0.0069    constr:    0.0000
     atom:   17    charge:    0.8427    magn:    0.0061    constr:    0.0000
     atom:   18    charge:    0.8622    magn:    0.0057    constr:    0.0000
     atom:   19    charge:    0.8618    magn:    0.0065    constr:    0.0000
     atom:   20    charge:    0.8604    magn:    0.0060    constr:    0.0000
     atom:   21    charge:    0.8331    magn:   -0.0017    constr:    0.0000
     atom:   22    charge:    0.8347    magn:   -0.0017    constr:    0.0000
     atom:   23    charge:    0.8327    magn:   -0.0023    constr:    0.0000
     atom:   24    charge:    0.8325    magn:   -0.0026    constr:    0.0000
     atom:   25    charge:    0.8621    magn:    0.0056    constr:    0.0000
     atom:   26    charge:    0.8508    magn:    0.0068    constr:    0.0000
     atom:   27    charge:    0.8596    magn:    0.0064    constr:    0.0000
     atom:   28    charge:    0.8609    magn:    0.0058    constr:    0.0000
     atom:   29    charge:    0.8428    magn:    0.0061    constr:    0.0000
     atom:   30    charge:    0.8637    magn:    0.0058    constr:    0.0000
     atom:   31    charge:    0.8520    magn:    0.0057    constr:    0.0000
     atom:   32    charge:    0.8623    magn:    0.0060    constr:    0.0000
     atom:   33    charge:    0.8536    magn:    0.0090    constr:    0.0000
     atom:   34    charge:    0.8510    magn:    0.0071    constr:    0.0000
     atom:   35    charge:    0.8517    magn:    0.0069    constr:    0.0000
     atom:   36    charge:    0.8548    magn:    0.0078    constr:    0.0000
     atom:   37    charge:    0.8545    magn:    0.0078    constr:    0.0000
     atom:   38    charge:    0.8531    magn:    0.0070    constr:    0.0000
     atom:   39    charge:    0.8605    magn:    0.0076    constr:    0.0000
     atom:   40    charge:    0.8611    magn:    0.0071    constr:    0.0000
     atom:   41    charge:    0.8631    magn:    0.0068    constr:    0.0000
     atom:   42    charge:    0.8482    magn:    0.0077    constr:    0.0000
     atom:   43    charge:    0.8666    magn:    0.0052    constr:    0.0000
     atom:   44    charge:    0.8632    magn:    0.0051    constr:    0.0000
     atom:   45    charge:    0.8336    magn:   -0.0023    constr:    0.0000
     atom:   46    charge:    0.8320    magn:   -0.0023    constr:    0.0000
     atom:   47    charge:    0.8324    magn:   -0.0019    constr:    0.0000
     atom:   48    charge:    0.8349    magn:   -0.0023    constr:    0.0000
     atom:   49    charge:    0.8844    magn:    0.0044    constr:    0.0000
     atom:   50    charge:    0.8751    magn:    0.0030    constr:    0.0000
     atom:   51    charge:    0.8734    magn:    0.0028    constr:    0.0000
     atom:   52    charge:    0.8775    magn:    0.0017    constr:    0.0000
     atom:   53    charge:    0.8757    magn:    0.0036    constr:    0.0000
     atom:   54    charge:    0.8785    magn:    0.0020    constr:    0.0000
     atom:   55    charge:    0.8851    magn:    0.0051    constr:    0.0000
     atom:   56    charge:    0.8725    magn:    0.0028    constr:    0.0000
     atom:   57    charge:    0.5089    magn:   -0.0010    constr:    0.0000
     atom:   58    charge:    0.5111    magn:   -0.0011    constr:    0.0000
     atom:   59    charge:    0.5112    magn:   -0.0011    constr:    0.0000
     atom:   60    charge:    0.5113    magn:   -0.0011    constr:    0.0000
     atom:   61    charge:    0.5118    magn:   -0.0009    constr:    0.0000
     atom:   62    charge:    0.5114    magn:   -0.0009    constr:    0.0000
     atom:   63    charge:    0.5063    magn:   -0.0000    constr:    0.0000
     atom:   64    charge:    0.5017    magn:    0.0004    constr:    0.0000
     atom:   65    charge:    0.5093    magn:   -0.0009    constr:    0.0000
     atom:   66    charge:    0.5104    magn:   -0.0010    constr:    0.0000
     atom:   67    charge:    0.5041    magn:   -0.0008    constr:    0.0000
     atom:   68    charge:    0.5072    magn:   -0.0011    constr:    0.0000
     atom:   69    charge:    0.5100    magn:   -0.0010    constr:    0.0000
     atom:   70    charge:    0.5104    magn:   -0.0011    constr:    0.0000
     atom:   71    charge:    0.5047    magn:   -0.0007    constr:    0.0000
     atom:   72    charge:    0.5069    magn:   -0.0011    constr:    0.0000
     atom:   73    charge:    0.5115    magn:   -0.0010    constr:    0.0000
     atom:   74    charge:    0.5107    magn:   -0.0009    constr:    0.0000
     atom:   75    charge:    0.5111    magn:   -0.0011    constr:    0.0000
     atom:   76    charge:    0.5113    magn:   -0.0011    constr:    0.0000
     atom:   77    charge:    0.5104    magn:   -0.0008    constr:    0.0000
     atom:   78    charge:    0.5108    magn:   -0.0010    constr:    0.0000
     atom:   79    charge:    0.5067    magn:   -0.0002    constr:    0.0000
     atom:   80    charge:    0.5044    magn:    0.0001    constr:    0.0000
     atom:   81    charge:    0.5173    magn:    0.0004    constr:    0.0000
     atom:   82    charge:    0.4823    magn:    0.0031    constr:    0.0000
     atom:   83    charge:    0.4734    magn:    0.0042    constr:    0.0000
     atom:   84    charge:    0.4914    magn:    0.0028    constr:    0.0000
[...]
     smearing contrib. (-TS)   =       3.30358498 Ry

     total magnetization       =     8.00 Bohr mag/cell
     absolute magnetization    =     8.28 Bohr mag/cell

     convergence has been achieved in  14 iterations

     Forces acting on atoms (cartesian axes, Ry/au):

     atom    1 type  1   force =    -0.00009049   -0.00025971    0.00071161
     atom    2 type  1   force =    -0.00131874   -0.00156805   -0.00038926
     atom    3 type  1   force =     0.00088541   -0.00039640   -0.00013362
     atom    4 type  1   force =     0.00083007   -0.00034931    0.00067903
     atom    5 type  1   force =     0.00001465   -0.00071919    0.00010884
     atom    6 type  1   force =    -0.00030977    0.00113967    0.00008086
     atom    7 type  1   force =    -0.00116183   -0.00040567    0.00098533
     atom    8 type  1   force =    -0.00055747    0.00136708    0.00020402
     atom    9 type  1   force =     0.00169902    0.00066099   -0.00057578
     atom   10 type  1   force =    -0.00023084    0.00039706    0.00011301
     atom   11 type  1   force =     0.00119941    0.00029219   -0.00067259
     atom   12 type  1   force =    -0.00007715   -0.00033262   -0.00029947
     atom   13 type  1   force =    -0.00082571    0.00130611    0.00028321
     atom   14 type  1   force =    -0.00091123   -0.00015785   -0.00112798
     atom   15 type  1   force =    -0.00042761    0.00112582    0.00101791
     atom   16 type  1   force =     0.00154502    0.00081988   -0.00168168
     atom   17 type  1   force =    -0.00051884    0.00054866   -0.00005052
     atom   18 type  1   force =    -0.00097172   -0.00089575    0.00109499
     atom   19 type  1   force =     0.00057344    0.00007143   -0.00137194
     atom   20 type  1   force =    -0.00033072    0.00047899   -0.00055163
     atom   21 type  1   force =     0.00140689    0.00090708    0.00102046
     atom   22 type  1   force =    -0.00063961    0.00041187    0.00094965
     atom   23 type  1   force =     0.00086451   -0.00152051   -0.00106779
     atom   24 type  1   force =     0.00012987    0.00136865   -0.00094593
     atom   25 type  1   force =     0.00007271    0.00050559   -0.00120816
     atom   26 type  1   force =     0.00136835    0.00021091    0.00001617
     atom   27 type  1   force =     0.00067133   -0.00066315   -0.00014293
     atom   28 type  1   force =     0.00006796    0.00012633   -0.00144788
     atom   29 type  1   force =     0.00049134   -0.00040296    0.00076718
     atom   30 type  1   force =     0.00137755   -0.00039387    0.00019263
     atom   31 type  1   force =    -0.00030011    0.00124069    0.00001434
     atom   32 type  1   force =    -0.00068537   -0.00051594    0.00147971
     atom   33 type  1   force =    -0.00160451    0.00027605   -0.00052892
     atom   34 type  1   force =    -0.00197009    0.00128944   -0.00048172
     atom   35 type  1   force =    -0.00066665   -0.00027671   -0.00060062
     atom   36 type  1   force =    -0.00027424    0.00087735    0.00004775
     atom   37 type  1   force =    -0.00000924   -0.00046210   -0.00007315
     atom   38 type  1   force =    -0.00138047   -0.00025975    0.00121281
     atom   39 type  1   force =    -0.00027574   -0.00013900   -0.00052777
     atom   40 type  1   force =     0.00096535    0.00135658   -0.00123330
     atom   41 type  1   force =    -0.00129682    0.00058993   -0.00102087
     atom   42 type  1   force =    -0.00103539    0.00035340    0.00108787
     atom   43 type  1   force =     0.00081244   -0.00025092   -0.00052519
     atom   44 type  1   force =     0.00042708    0.00090847    0.00020069
     atom   45 type  1   force =    -0.00016082   -0.00001097    0.00096851
     atom   46 type  1   force =     0.00084946   -0.00016656   -0.00050790
     atom   47 type  1   force =     0.00054832   -0.00111155    0.00036488
     atom   48 type  1   force =    -0.00029649   -0.00001907    0.00016649
     atom   49 type  1   force =    -0.00039194   -0.00076880   -0.00054153
     atom   50 type  1   force =     0.00040084   -0.00024262   -0.00001648
     atom   51 type  1   force =     0.00006597    0.00067914   -0.00052043
     atom   52 type  1   force =    -0.00084367   -0.00114398    0.00119411
     atom   53 type  1   force =     0.00045790    0.00016446   -0.00103416
     atom   54 type  1   force =    -0.00007930    0.00100982    0.00057114
     atom   55 type  1   force =     0.00001475    0.00079495   -0.00001519
     atom   56 type  1   force =    -0.00011104   -0.00017162   -0.00007469
     atom   57 type  2   force =     0.00033979    0.00095986    0.00006394
     atom   58 type  2   force =     0.00013653    0.00058317   -0.00103948
     atom   59 type  2   force =    -0.00003698    0.00107405    0.00099544
     atom   60 type  2   force =     0.00100728   -0.00034953    0.00022866
     atom   61 type  2   force =    -0.00016340   -0.00023371    0.00019360
     atom   62 type  2   force =    -0.00013043    0.00002384   -0.00048346
     atom   63 type  2   force =     0.00013689    0.00007046   -0.00026441
     atom   64 type  2   force =    -0.00018236    0.00046900    0.00063110
     atom   65 type  2   force =     0.00004739    0.00138917    0.00095116
     atom   66 type  2   force =     0.00010104   -0.00025319    0.00211023
     atom   67 type  2   force =     0.00026846    0.00032557    0.00085539
     atom   68 type  2   force =     0.00054548   -0.00086282    0.00039690
     atom   69 type  2   force =    -0.00014137   -0.00068639   -0.00066718
     atom   70 type  2   force =    -0.00075656   -0.00000755   -0.00099226
     atom   71 type  2   force =     0.00028373    0.00079307    0.00059153
     atom   72 type  2   force =    -0.00129205   -0.00062280   -0.00012852
     atom   73 type  2   force =    -0.00069638   -0.00118288   -0.00010459
     atom   74 type  2   force =    -0.00019421    0.00046685   -0.00055580
     atom   75 type  2   force =    -0.00031364    0.00012938    0.00062168
     atom   76 type  2   force =     0.00052729    0.00027173    0.00061030
     atom   77 type  2   force =     0.00058138    0.00000116    0.00113061
     atom   78 type  2   force =    -0.00017511    0.00031781    0.00058389
     atom   79 type  2   force =     0.00075124    0.00059989    0.00032537
     atom   80 type  2   force =     0.00068216   -0.00025025   -0.00025766
     atom   81 type  2   force =    -0.00067084   -0.00150715   -0.00051815
     atom   82 type  2   force =    -0.00010431   -0.00021742    0.00010246
     atom   83 type  2   force =    -0.00042739   -0.00176173   -0.00092799
     atom   84 type  2   force =     0.00007797    0.00017694    0.00029024
     atom   85 type  2   force =    -0.00129242   -0.00025323    0.00028777
     atom   86 type  2   force =    -0.00047155   -0.00063968    0.00021255
     atom   87 type  2   force =    -0.00110733    0.00043668    0.00069593
     atom   88 type  2   force =    -0.00104719    0.00049041    0.00062050
     atom   89 type  2   force =     0.00107350    0.00041030    0.00000590
     atom   90 type  2   force =    -0.00064847    0.00013737    0.00091270
     atom   91 type  2   force =     0.00022899   -0.00090226    0.00078427
     atom   92 type  2   force =     0.00000728   -0.00024510   -0.00012256
     atom   93 type  2   force =     0.00031566   -0.00075300    0.00001628
     atom   94 type  2   force =     0.00072320   -0.00036836   -0.00002857
     atom   95 type  2   force =    -0.00049320    0.00011228   -0.00077019
     atom   96 type  2   force =     0.00080160   -0.00031788   -0.00030301
     atom   97 type  2   force =    -0.00044810    0.00029470   -0.00073578
     atom   98 type  2   force =    -0.00010042   -0.00037001    0.00030063
     atom   99 type  2   force =     0.00046954   -0.00017193    0.00004014
     atom  100 type  2   force =    -0.00029870    0.00056698   -0.00091250
     atom  101 type  2   force =     0.00007287    0.00083239   -0.00119449
     atom  102 type  2   force =    -0.00047838   -0.00022409    0.00098332
     atom  103 type  2   force =     0.00046631   -0.00082750   -0.00014809
     atom  104 type  2   force =     0.00060257    0.00089179    0.00058311
     atom  105 type  3   force =    -0.00048065   -0.00113925   -0.00046241
     atom  106 type  3   force =     0.00053229    0.00015669   -0.00053574
     atom  107 type  3   force =    -0.00053252    0.00043098   -0.00009987
     atom  108 type  3   force =    -0.00052374   -0.00021879    0.00070773
     atom  109 type  3   force =     0.00069916   -0.00029455   -0.00004082
     atom  110 type  3   force =    -0.00034930    0.00024348    0.00020866
     atom  111 type  3   force =    -0.00044148    0.00071801    0.00016806
     atom  112 type  3   force =    -0.00054737   -0.00037688   -0.00086882
     atom  113 type  4   force =     0.00205144    0.00083438   -0.00288858
     atom  114 type  4   force =     0.00142281    0.00345135   -0.00234782
     atom  115 type  4   force =    -0.00316482   -0.00232197   -0.00421698
     atom  116 type  4   force =    -0.00068047    0.00008269    0.00339521
     atom  117 type  5   force =    -0.00081637   -0.00098718   -0.00234473
     atom  118 type  5   force =     0.00176348   -0.00019653    0.00086430
     atom  119 type  5   force =    -0.00045839   -0.00161160   -0.00066787
     atom  120 type  5   force =    -0.00128332    0.00050094    0.00160125
     atom  121 type  5   force =     0.00142281    0.00135943    0.00157519
     atom  122 type  5   force =     0.00006780   -0.00168139   -0.00039879
     atom  123 type  5   force =    -0.00057254    0.00184671    0.00153265
     atom  124 type  5   force =     0.00086712   -0.00032583    0.00044975
     atom  125 type  5   force =    -0.00060416   -0.00064492    0.00047760
     atom  126 type  5   force =     0.00114133   -0.00273518   -0.00114286
     atom  127 type  5   force =     0.00162461   -0.00033627    0.00060687
     atom  128 type  5   force =     0.00063252   -0.00098904   -0.00129373
     atom  129 type  5   force =     0.00137377   -0.00095696   -0.00208015
     atom  130 type  5   force =    -0.00043558   -0.00006553    0.00178768
     atom  131 type  5   force =     0.00044592   -0.00028133    0.00220745
     atom  132 type  5   force =     0.00028222   -0.00095180    0.00167167

     Total force =     0.017867     Total SCF correction =     0.000370

     number of scf cycles    =  66
     number of bfgs steps    =  65

     energy   old            =   -1755.6556084625 Ry
     energy   new            =   -1755.6559858365 Ry

     CASE: energy  _new < energy  _old

     new trust radius        =       0.0215867930 bohr
     new conv_thr            =       0.0000000377 Ry


ATOMIC_POSITIONS (crystal)
C             0.2741426464        0.9595518953        0.5351196593
C             0.0278344540       -0.0056363077        0.0428073807
C             0.3821578498       -0.0052951362        0.5469924578
C             0.1368511567        0.9693823216        0.0475798891
C             0.4531137308        0.9382366966        0.6284790397
C             0.2087584154        0.0324551348        0.1238006134
C             0.2038824099        0.5161354992        0.5257753529
C             0.4418257248        0.4351160588        0.0157575595
C             0.2398700811        0.6004996880        0.6035044925
C             0.4838551179        0.3668018184        0.1137301355
C             0.2420913639        0.8778814202        0.6216507652
C            -0.0084994376        0.0848133271        0.1082043792
C             0.4142619870        0.8583691645        0.7104999458
C             0.1651370570        0.1255222938        0.1825726905
C             0.0890018920        0.5868282015        0.7335323834
C             0.3380480905        0.3913555809        0.2480627052
C             0.0500226287        0.4944157125        0.6665956368
C             0.2954325921        0.4688274124        0.1634802360
C             0.1080387852        0.4646527892        0.5544524707
C             0.3491726392        0.4934581249        0.0493250867
C             0.4232333697        0.0908450886        0.4810628088
C             0.1758184174        0.8782651006        0.9718745018
C             0.0688191134        0.3832486341        0.4622187062
C             0.3092344561        0.5823407666        0.9688041436
C             0.7937497691        0.9769362071        0.5152113079
C             0.5546825756        0.0719407102        0.0081866831
C             0.8907831708        0.0275211409        0.5459091276
C             0.6481252450        1.0139752117        0.0441818139
C             0.9496994433        0.9981956340        0.6606456629
C             0.7019357099        0.0367299959        0.1618133751
C             0.7232416022        0.5355442960        0.5427640149
C             0.9722364922        0.5069420450        0.0470682053
C             0.7539955540        0.6202464791        0.6276596687
C             1.0068198241        0.4146441423        0.1120820580
C             0.7560459804        0.8959837221        0.5952630861
C             0.5124591616        0.1381252170        0.1058908856
C             0.9085287300        0.9091783603        0.7302934066
C             0.6571554185        0.1098670366        0.2482232472
C             0.5823638897        0.6372687528        0.7096247274
C             0.8341904181        0.3803722432        0.1848784053
C             0.5446994011        0.5545442196        0.6289692646
C             0.7922894722        0.4749812411        0.1255549506
C             0.6156016274        0.4992425048        0.5501635573
C             0.8642871234        0.5361106453        0.0506762897
C             0.9298404672        0.1085842247        0.4552042692
C             0.6881858872        0.9267329896        0.9630448937
C             0.5745910869        0.4033268900        0.4812705049
C             0.8259798399        0.6290312115        0.9748576450
C             0.1955294172       -0.0054501150        0.4381733309
C             0.3206597691        1.0042155615        0.1510603960
C             0.9614159318        0.4346970527        0.7238859381
C             0.4959335748        0.4394302516        0.8907919849
C             0.0415903077        0.0557108945        0.7181040364
C             0.4986612607        1.0693701753        0.8815859088
C             0.8027583628        0.4983712920        0.4523847059
C             0.6821360379        0.5067465110        0.1511499901
H             0.2507652053        0.4919113101        0.4449815981
H             0.0302734313        0.5541651089        0.9981326011
H             0.3137941979        0.6410783693        0.5858108896
H             0.0887703790        0.3888718307        0.1118936196
H             0.1602011183        0.8515472920        0.6210353625
H             0.4374789497        0.1768828721        0.0876209467
H             0.4638625452        0.8214707927        0.7837435427
H             0.2159261564        0.1779035306        0.2392739518
H             0.0448939114        0.6200897614        0.8119853665
H             0.2985954693        0.3660729168        0.3339935395
H             0.4624215965        0.5312843415        0.6336432797
H             0.2228397056        0.5092884010        0.1878537855
H             0.7466253777        0.9990034130        0.4314874475
H             0.9704747133       -0.0549942084        0.9930540449
H             0.5361428814        0.9587448756        0.6353266085
H             0.7760009264        0.9981907756        0.1879704404
H             0.8352587543        0.6485976285        0.6293881506
H             0.5594900056        0.3292181252        0.0995634733
H             0.6813766930        0.8560312296        0.5759483597
H             0.9085518252        0.1071571155        0.1070382521
H             0.9527224495        0.8761417709        0.8110321498
H             0.6954733257        0.1320289553        0.3381090954
H             0.5318782445        0.6746079444        0.7790873946
H             0.7832092136        0.3302205875        0.2416315229
H             0.1157567986        0.9723287832        0.4638154387
H             0.2023986614        0.0788623632        0.4196530958
H             0.2130739695        0.9547685538        0.3471195377
H             0.3571096229        0.0586804904        0.2191619595
H             0.3273156919        0.9232782285        0.1883401854
H             0.3633202946        0.0013188028        0.0604992042
H             0.9134256762        0.4856704729        0.7837177409
H             0.9967675964        0.3730981391        0.7874196144
H             0.9137648506        0.3922123390        0.6521116758
H             0.5543628122        0.3766888179        0.8813970317
H             0.5367373154        0.5159359981        0.8841391907
H             0.4385303965        0.4380735085        0.8106527695
H             0.0888724404        1.0046981577        0.7808312489
H             0.0103847510        0.1201427381        0.7786967780
H             0.0896474562        1.0945171270        0.6463750979
H             0.4423349307        0.1342449277        0.8711017086
H             0.4541676200        0.9946621640        0.8752517421
H             0.5540758227        0.0682215458        0.8025824061
H             0.8818164076        0.5252497477        0.4794772358
H             0.7990815488        0.4129040306        0.4402046911
H             0.7828364591        0.5319242585        0.3575021060
H             0.6456940070        0.4539904737        0.2193815647
H             0.6794379658        0.5882320482        0.1872018689
H             0.6366593058        0.5099258830        0.0602671722
N             0.3097288169        0.8309830930        0.7068932491
N             0.0599431253        0.1479624861        0.1776417830
N             0.1814732515        0.6351491432        0.7044885692
N             0.4330204045        0.3450557055        0.2241878176
N             0.8137938884        0.8636101024        0.7007674780
N             0.5614504661        0.1553463393        0.2213034388
N             0.6859695166        0.6680106871        0.7082773843
N             0.9380891256        0.3535315781        0.1801373434
Ni            0.2460120448        0.7341565719        0.8363023887
Ni            0.4965019391        0.2468096765        0.3586674286
Ni            0.7481369762        0.7716085165        0.8360665929
Ni            0.9975204067        0.2473670941        0.3073105465
O             0.1273456596        0.3459896942        0.3708442045
O             0.3665724144        0.6286311264        0.8821100086
O             0.3651197093        0.1554484480        0.4113157822
O             0.1157469189        0.8278521982        0.8881682860
O             0.4775274937        0.3709294004        0.4960731541
O             0.2150851088        0.6214626605        0.9827815993
O             0.0257740330        0.1450387078        0.4597920868
O             0.2732667902        0.8447150666        0.9792039937
O             0.6298174926        0.3451990349        0.4039062336
O             0.8847491466        0.6787320723        0.8930886055
O             0.8709063900        0.1469889039        0.3615569473
O             0.6287654628        0.8787819058        0.8763584682
O             0.9728517094        0.3469072260        0.4624130887
O             0.7288821948        0.6644943640        0.9804101370
O             0.5225543419        0.1177659820        0.4914724775
O             0.7836916017        0.8902638459        0.9780440370



     Writing output data file /nfs/hpc/share/gantzlen/NiPyC2_relax_sc211_meta_functionalized_CH3_vdw-df2_relax.save/
     NEW-OLD atomic charge density approx. for the potential

     Check: negative core charge=   -0.000145

     total cpu time spent up to now is   173603.0 secs

     Self-consistent Calculation

     iteration #  1     ecut=   100.00 Ry     beta= 0.70
     Davidson diagonalization with overlap
