/apps/openmpi/3.1_intel-19/bin/mpiexec
/apps/qe/6.5/bin/pw.x
starting QE Sat Aug 1 17:33:27 PDT 2020

     Program PWSCF v.6.5 starts on  1Aug2020 at 17:33:28 

     This program is part of the open-source Quantum ESPRESSO suite
     for quantum simulation of materials; please cite
         "P. Giannozzi et al., J. Phys.:Condens. Matter 21 395502 (2009);
         "P. Giannozzi et al., J. Phys.:Condens. Matter 29 465901 (2017);
          URL http://www.quantum-espresso.org", 
     in publications or presentations arising from this work. More details at
     http://www.quantum-espresso.org/quote

     Parallel version (MPI & OpenMP), running on      16 processor cores
     Number of MPI processes:                16
     Threads/MPI process:                     1

     MPI processes distributed on     1 nodes
     K-points division:     npool     =       2
     R & G space division:  proc/nbgrp/npool/nimage =       8
     Reading input from ./QE_input_scripts/pw.NiPyC2_relax_sc211_ortho_functionalized_F_vdw-df2_relax.in
Warning: card &CELL ignored
Warning: card    CELL_DYNAMICS = 'BFGS' ignored
Warning: card    CELL_DOFREE = 'XYZ' ignored
Warning: card / ignored

     Current dimensions of program PWSCF are:
     Max number of different atomic species (ntypx) = 10
     Max number of k-points (npk) =  40000
     Max angular momentum in pseudopotentials (lmaxx) =  3

     IMPORTANT: XC functional enforced from input :
     Exchange-correlation= VDW-DF2
                           (   1   4  13   0   2   0   0)
     Any further DFT definition will be discarded
     Please, verify this is what you really want


     -------------------------------------------------
     Parameters for Dispersion (Grimme-D2) Correction:
     -------------------------------------------------
       atom      VdW radius       C_6     

        C          2.744         60.710
        F          2.432         26.018
        H          1.892          4.857
        N          2.640         42.670
        Ni         2.952        374.666
        O          2.536         24.284

     gamma-point specific algorithms are used

     Subspace diagonalization in iterative solution of the eigenvalue problem:
     a serial algorithm will be used

 
     Parallelization info
     --------------------
     sticks:   dense  smooth     PW     G-vecs:    dense   smooth      PW
     Min        2228    2228    556               183376   183376   22914
     Max        2230    2230    558               183380   183380   22917
     Sum       17829   17829   4453              1467017  1467017  183325
 


     bravais-lattice index     =            0
     lattice parameter (alat)  =      23.6322  a.u.
     unit-cell volume          =   10858.6228 (a.u.)^3
     number of atoms/cell      =          108
     number of atomic types    =            6
     number of electrons       =       448.00 (up: 228.00, down: 220.00)
     number of Kohn-Sham states=          274
     kinetic-energy cutoff     =     100.0000  Ry
     charge density cutoff     =     400.0000  Ry
     convergence threshold     =      1.0E-06
     mixing beta               =       0.7000
     number of iterations used =            8  local-TF  mixing
     Exchange-correlation= VDW-DF2
                           (   1   4  13   0   2   0   0)
     nstep                     =          200


     celldm(1)=  23.632159  celldm(2)=   0.000000  celldm(3)=   0.000000
     celldm(4)=   0.000000  celldm(5)=   0.000000  celldm(6)=   0.000000

     crystal axes: (cart. coord. in units of alat)
               a(1) = (   1.000000   0.000000   0.000000 )  
               a(2) = (   0.000000   1.001423   0.000000 )  
               a(3) = (  -0.018199   0.000000   0.821574 )  

     reciprocal axes: (cart. coord. in units 2 pi/alat)
               b(1) = (  1.000000  0.000000  0.022152 )  
               b(2) = (  0.000000  0.998579  0.000000 )  
               b(3) = (  0.000000  0.000000  1.217175 )  


     PseudoPot. # 1 for C  read from file:
     ./pseudo/C.pbesol-nc.UPF
     MD5 check sum: ce26087537ded160c8d400e183a8bf42
     Pseudo is Norm-conserving, Zval =  4.0
     Generated using "atomic" code by A. Dal Corso v.6.5
     Using radial grid of 1073 points,  1 beta functions with: 
                l(1) =   1

     PseudoPot. # 2 for F  read from file:
     ./pseudo/F.pbesol-n-nc.UPF
     MD5 check sum: 7bfb8b5cfca7590fa41d3808836ab4b2
     Pseudo is Norm-conserving, Zval =  7.0
     Generated using "atomic" code by A. Dal Corso v.6.5
     Using radial grid of 1105 points,  1 beta functions with: 
                l(1) =   1

     PseudoPot. # 3 for H  read from file:
     ./pseudo/H.pbesol-n-nc.UPF
     MD5 check sum: 7995ef24074557c85b430109caaacc09
     Pseudo is Norm-conserving, Zval =  1.0
     Generated using "atomic" code by A. Dal Corso v.6.5
     Using radial grid of  929 points,  0 beta functions with: 

     PseudoPot. # 4 for N  read from file:
     ./pseudo/N.pbesol-nc.UPF
     MD5 check sum: e18cc5e4b8a5600c1a19b30c2cab1ca0
     Pseudo is Norm-conserving, Zval =  5.0
     Generated using "atomic" code by A. Dal Corso v.6.5
     Using radial grid of 1085 points,  1 beta functions with: 
                l(1) =   1

     PseudoPot. # 5 for Ni read from file:
     ./pseudo/Ni.pbesol-n-nc.UPF
     MD5 check sum: 623411631e0c2eb7c0b2b9815547d2d9
     Pseudo is Norm-conserving + core correction, Zval = 10.0
     Generated using "atomic" code by A. Dal Corso v.6.5
     Using radial grid of 1195 points,  2 beta functions with: 
                l(1) =   1
                l(2) =   2

     PseudoPot. # 6 for O  read from file:
     ./pseudo/O.pbesol-nc.UPF
     MD5 check sum: 73d10e7e91dbfcbe8a7e362101007f84
     Pseudo is Norm-conserving, Zval =  6.0
     Generated using "atomic" code by A. Dal Corso v.6.5
     Using radial grid of 1095 points,  1 beta functions with: 
                l(1) =   1

     atomic species   valence    mass     pseudopotential
        C              4.00    12.01070     C ( 1.00)
        F              7.00    18.99840     F ( 1.00)
        H              1.00     1.00794     H ( 1.00)
        N              5.00    14.00670     N ( 1.00)
        Ni            10.00    58.69340     Ni( 1.00)
        O              6.00    15.99940     O ( 1.00)

     Starting magnetic structure 
     atomic species   magnetization
        C            0.000
        F            0.000
        H            0.000
        N            0.000
        Ni           0.250
        O            0.000

     No symmetry found



   Cartesian axes

     site n.     atom                  positions (alat units)
         1           C   tau(   1) = (   0.2787122   0.9714307   0.4288486  )
         2           C   tau(   2) = (   0.0379730   0.0311503   0.0183277  )
         3           C   tau(   3) = (   0.3806882   0.0117868   0.4489838  )
         4           C   tau(   4) = (   0.1394042   0.9891499   0.0379124  )
         5           C   tau(   5) = (   0.4400787   0.9715829   0.5343281  )
         6           C   tau(   6) = (   0.1997920   0.0283934   0.1231482  )
         7           C   tau(   7) = (   0.1986011   0.5304580   0.4324635  )
         8           C   tau(   8) = (   0.4580372   0.4720800   0.0229252  )
         9           C   tau(   9) = (   0.2341003   0.6142040   0.4982314  )
        10           C   tau(  10) = (   0.4948422   0.3892302   0.0892369  )
        11           C   tau(  11) = (   0.2384981   0.8904717   0.4955761  )
        12           C   tau(  12) = (  -0.0008282   0.1123917   0.0856467  )
        13           C   tau(  13) = (   0.3947360   0.8906489   0.5977380  )
        14           C   tau(  14) = (   0.1557890   0.1097029   0.1871645  )
        15           C   tau(  15) = (   0.0756247   0.6098498   0.5975737  )
        16           C   tau(  16) = (   0.3367152   0.3921904   0.1884642  )
        17           C   tau(  17) = (   0.0350715   0.5258264   0.5351012  )
        18           C   tau(  18) = (   0.2948780   0.4753867   0.1254988  )
        19           C   tau(  19) = (   0.0981522   0.4849593   0.4519611  )
        20           C   tau(  20) = (   0.3569104   0.5163900   0.0416029  )
        21           C   tau(  21) = (   0.4248178   0.0994604   0.3833638  )
        22           C   tau(  22) = (   0.1639424   0.9010006   0.7933713  )
        23           C   tau(  23) = (   0.0588120   0.3950355   0.3866953  )
        24           C   tau(  24) = (   0.2984059   0.6050320   0.7961934  )
        25           C   tau(  25) = (   0.7787122   0.9714307   0.4288486  )
        26           C   tau(  26) = (   0.5379730   0.0311503   0.0183277  )
        27           C   tau(  27) = (   0.8806882   0.0117868   0.4489838  )
        28           C   tau(  28) = (   0.6394042   0.9891499   0.0379124  )
        29           C   tau(  29) = (   0.9400787   0.9715829   0.5343281  )
        30           C   tau(  30) = (   0.6997920   0.0283934   0.1231482  )
        31           C   tau(  31) = (   0.6986021   0.5304580   0.4324635  )
        32           C   tau(  32) = (   0.9580382   0.4720800   0.0229252  )
        33           C   tau(  33) = (   0.7341003   0.6142040   0.4982314  )
        34           C   tau(  34) = (   0.9948422   0.3892302   0.0892369  )
        35           C   tau(  35) = (   0.7384981   0.8904717   0.4955761  )
        36           C   tau(  36) = (   0.4991718   0.1123917   0.0856467  )
        37           C   tau(  37) = (   0.8947360   0.8906489   0.5977380  )
        38           C   tau(  38) = (   0.6557880   0.1097029   0.1871645  )
        39           C   tau(  39) = (   0.5756247   0.6098498   0.5975737  )
        40           C   tau(  40) = (   0.8367152   0.3921904   0.1884642  )
        41           C   tau(  41) = (   0.5350715   0.5258264   0.5351012  )
        42           C   tau(  42) = (   0.7948780   0.4753867   0.1254988  )
        43           C   tau(  43) = (   0.5981522   0.4849593   0.4519611  )
        44           C   tau(  44) = (   0.8569104   0.5163900   0.0416029  )
        45           C   tau(  45) = (   0.9248178   0.0994604   0.3833638  )
        46           C   tau(  46) = (   0.6639424   0.9010006   0.7933713  )
        47           C   tau(  47) = (   0.5588110   0.3950355   0.3866953  )
        48           C   tau(  48) = (   0.7984059   0.6050320   0.7961934  )
        49           F   tau(  49) = (   0.1384257   0.8486222   0.4756397  )
        50           F   tau(  50) = (   0.2153454   0.1505330   0.2707950  )
        51           F   tau(  51) = (   0.0138665   0.6512977   0.6791092  )
        52           F   tau(  52) = (   0.5942761   0.3452327   0.0708238  )
        53           F   tau(  53) = (   0.9532227   0.8488555   0.6816708  )
        54           F   tau(  54) = (   0.7153444   0.1505330   0.2707958  )
        55           F   tau(  55) = (   0.5138675   0.6512977   0.6791092  )
        56           F   tau(  56) = (   0.7755479   0.3508867   0.2706841  )
        57           H   tau(  57) = (   0.2290596   1.0009978   0.3640502  )
        58           H   tau(  58) = (   0.4693669   0.0026958   0.7751545  )
        59           H   tau(  59) = (   0.0198054   1.0002267   0.5533467  )
        60           H   tau(  60) = (   0.2791988   1.0000865   0.1418054  )
        61           H   tau(  61) = (   0.2505234   0.5016080   0.3691185  )
        62           H   tau(  62) = (  -0.0086584   0.5011092   0.7809458  )
        63           H   tau(  63) = (   0.3118554   0.6514319   0.4868937  )
        64           H   tau(  64) = (   0.0732386   0.3533532   0.0780726  )
        65           H   tau(  65) = (   0.4206861   0.1479423   0.0738480  )
        66           H   tau(  66) = (   0.4386511   0.8563902   0.6644572  )
        67           H   tau(  67) = (   0.2907535   0.3580349   0.2539083  )
        68           H   tau(  68) = (   0.4564147   0.4939330   0.5533319  )
        69           H   tau(  69) = (   0.2157623   0.5059201   0.1439924  )
        70           H   tau(  70) = (   0.7290596   1.0009978   0.3640502  )
        71           H   tau(  71) = (   0.9693669   0.0026958   0.7751545  )
        72           H   tau(  72) = (   0.5198044   1.0002267   0.5533467  )
        73           H   tau(  73) = (   0.7791988   1.0000865   0.1418054  )
        74           H   tau(  74) = (   0.7505234   0.5016080   0.3691185  )
        75           H   tau(  75) = (   0.4913416   0.5011092   0.7809458  )
        76           H   tau(  76) = (   0.8118554   0.6514319   0.4868937  )
        77           H   tau(  77) = (   0.6594426   0.8563401   0.4835457  )
        78           H   tau(  78) = (   0.9206861   0.1479423   0.0738480  )
        79           H   tau(  79) = (   0.9564147   0.4939330   0.5533319  )
        80           H   tau(  80) = (   0.7157623   0.5059201   0.1439924  )
        81           N   tau(  81) = (   0.2956096   0.8524646   0.5790685  )
        82           N   tau(  82) = (   0.0569790   0.1490689   0.1692870  )
        83           N   tau(  83) = (   0.1736962   0.6512356   0.5798983  )
        84           N   tau(  84) = (   0.4350238   0.3514275   0.1709211  )
        85           N   tau(  85) = (   0.7956096   0.8524646   0.5790685  )
        86           N   tau(  86) = (   0.5569790   0.1490689   0.1692870  )
        87           N   tau(  87) = (   0.6736972   0.6512356   0.5798983  )
        88           N   tau(  88) = (   0.9350238   0.3514275   0.1709211  )
        89           Ni  tau(  89) = (   0.2317814   0.7525556   0.6871039  )
        90           Ni  tau(  90) = (   0.4937992   0.2483520   0.2786599  )
        91           Ni  tau(  91) = (   0.7317814   0.7525556   0.6871039  )
        92           Ni  tau(  92) = (   0.9937992   0.2483520   0.2786599  )
        93           O   tau(  93) = (   0.1158100   0.3481839   0.3145586  )
        94           O   tau(  94) = (   0.3551690   0.6519036   0.7240468  )
        95           O   tau(  95) = (   0.3707656   0.1477170   0.3098797  )
        96           O   tau(  96) = (   0.1091506   0.8535652   0.7199135  )
        97           O   tau(  97) = (   0.4642788   0.3566669   0.3968154  )
        98           O   tau(  98) = (   0.2033039   0.6423280   0.8050417  )
        99           O   tau(  99) = (   0.0200847   0.1353504   0.3952413  )
       100           O   tau( 100) = (   0.2588616   0.8639860   0.8046490  )
       101           O   tau( 101) = (   0.6158110   0.3481839   0.3145586  )
       102           O   tau( 102) = (   0.8551690   0.6519036   0.7240468  )
       103           O   tau( 103) = (   0.8707656   0.1477170   0.3098797  )
       104           O   tau( 104) = (   0.6091506   0.8535652   0.7199135  )
       105           O   tau( 105) = (   0.9642788   0.3566669   0.3968154  )
       106           O   tau( 106) = (   0.7033039   0.6423280   0.8050417  )
       107           O   tau( 107) = (   0.5200847   0.1353504   0.3952413  )
       108           O   tau( 108) = (   0.7588616   0.8639860   0.8046490  )

     number of k points=     1  Marzari-Vanderbilt smearing, width (Ry)=  0.2000
                       cart. coord. in units 2pi/alat
        k(    1) = (   0.0000000   0.0000000   0.0000000), wk =   1.0000000

     Dense  grid:   733509 G-vectors     FFT dimensions: ( 160, 160, 125)

     Estimated max dynamical RAM per process >     635.86 MB

     Estimated total dynamical RAM >       9.94 GB
     Generating pointlists ...
     new r_m :   0.0358 (alat units)  0.8461 (a.u.) for type    1
     new r_m :   0.0455 (alat units)  1.0750 (a.u.) for type    2
     new r_m :   0.0358 (alat units)  0.8461 (a.u.) for type    3
     new r_m :   0.0445 (alat units)  1.0514 (a.u.) for type    4
     new r_m :   0.0654 (alat units)  1.5454 (a.u.) for type    5
     new r_m :   0.0423 (alat units)  0.9991 (a.u.) for type    6

     Check: negative core charge=   -0.000145

     Initial potential from superposition of free atoms

     starting charge  447.99678, renormalised to  448.00000


     %%%%%%%%%%%%%%%%%%%%%%%%%%%%%%%%%%%%%%%%%%%%%%%%%%%%%%%%%%%%%%%%%%%%%%%%
     %                                                                      %
     % You are using vdW-DF, which was implemented by the Thonhauser group. %
     % Please cite the following two papers that made this development      %
     % possible and the two reviews that describe the various versions:     %
     %                                                                      %
     %   T. Thonhauser et al., PRL 115, 136402 (2015).                      %
     %   T. Thonhauser et al., PRB 76, 125112 (2007).                       %
     %   K. Berland et al., Rep. Prog. Phys. 78, 066501 (2015).             %
     %   D.C. Langreth et al., J. Phys.: Condens. Matter 21, 084203 (2009). %
     %                                                                      %
     %                                                                      %
     % If you are calculating the stress with vdW-DF, please also cite:     %
     %                                                                      %
     %   R. Sabatini et al., J. Phys.: Condens. Matter 24, 424209 (2012).   %
     %                                                                      %
     %%%%%%%%%%%%%%%%%%%%%%%%%%%%%%%%%%%%%%%%%%%%%%%%%%%%%%%%%%%%%%%%%%%%%%%%


     Starting wfcs are  380 randomized atomic wfcs

     total cpu time spent up to now is      101.9 secs

     Self-consistent Calculation

     iteration #  1     ecut=   100.00 Ry     beta= 0.70
     Davidson diagonalization with overlap
     ethr =  1.00E-02,  avg # of iterations =  5.0

     total cpu time spent up to now is      350.5 secs

     total energy              =   -2017.94125996 Ry
     Harris-Foulkes estimate   =   -2028.18851059 Ry
     estimated scf accuracy    <      25.46306484 Ry

     total magnetization       =     8.00 Bohr mag/cell
     absolute magnetization    =     9.00 Bohr mag/cell

     iteration #  2     ecut=   100.00 Ry     beta= 0.70
     Davidson diagonalization with overlap
     ethr =  5.68E-03,  avg # of iterations =  2.0

     total cpu time spent up to now is      517.3 secs

     total energy              =   -2022.62520150 Ry
     Harris-Foulkes estimate   =   -2027.19172741 Ry
     estimated scf accuracy    <      20.79205330 Ry

     total magnetization       =     8.00 Bohr mag/cell
     absolute magnetization    =     8.30 Bohr mag/cell

     iteration #  3     ecut=   100.00 Ry     beta= 0.70
     Davidson diagonalization with overlap
     ethr =  4.64E-03,  avg # of iterations =  1.0

     total cpu time spent up to now is      661.1 secs

     total energy              =   -2022.33843776 Ry
     Harris-Foulkes estimate   =   -2023.52411446 Ry
     estimated scf accuracy    <       3.99586621 Ry

     total magnetization       =     8.00 Bohr mag/cell
     absolute magnetization    =     8.26 Bohr mag/cell

     iteration #  4     ecut=   100.00 Ry     beta= 0.70
     Davidson diagonalization with overlap
     ethr =  8.92E-04,  avg # of iterations =  7.0

     total cpu time spent up to now is      832.3 secs

     total energy              =   -2022.34793199 Ry
     Harris-Foulkes estimate   =   -2023.51107139 Ry
     estimated scf accuracy    <       9.21339301 Ry

     total magnetization       =     8.00 Bohr mag/cell
     absolute magnetization    =     8.36 Bohr mag/cell

     iteration #  5     ecut=   100.00 Ry     beta= 0.70
     Davidson diagonalization with overlap
     ethr =  8.92E-04,  avg # of iterations =  1.0

     total cpu time spent up to now is      976.4 secs

     total energy              =   -2022.85191712 Ry
     Harris-Foulkes estimate   =   -2022.91757407 Ry
     estimated scf accuracy    <       0.34679551 Ry

     total magnetization       =     8.00 Bohr mag/cell
     absolute magnetization    =     8.33 Bohr mag/cell

     iteration #  6     ecut=   100.00 Ry     beta= 0.70
     Davidson diagonalization with overlap
     ethr =  7.74E-05,  avg # of iterations = 10.0

     total cpu time spent up to now is     1147.4 secs

     total energy              =   -2022.85075719 Ry
     Harris-Foulkes estimate   =   -2022.88768480 Ry
     estimated scf accuracy    <       0.72004167 Ry

     total magnetization       =     8.00 Bohr mag/cell
     absolute magnetization    =     8.34 Bohr mag/cell

     iteration #  7     ecut=   100.00 Ry     beta= 0.70
     Davidson diagonalization with overlap
     ethr =  7.74E-05,  avg # of iterations =  1.0

     total cpu time spent up to now is     1291.0 secs

     total energy              =   -2022.79105565 Ry
     Harris-Foulkes estimate   =   -2022.86995844 Ry
     estimated scf accuracy    <       0.50061707 Ry

     total magnetization       =     8.00 Bohr mag/cell
     absolute magnetization    =     8.34 Bohr mag/cell

     iteration #  8     ecut=   100.00 Ry     beta= 0.70
     Davidson diagonalization with overlap
     ethr =  7.74E-05,  avg # of iterations =  1.0

     total cpu time spent up to now is     1435.2 secs

     total energy              =   -2022.81006972 Ry
     Harris-Foulkes estimate   =   -2022.82319013 Ry
     estimated scf accuracy    <       0.04777507 Ry

     total magnetization       =     8.00 Bohr mag/cell
     absolute magnetization    =     8.35 Bohr mag/cell

     iteration #  9     ecut=   100.00 Ry     beta= 0.70
     Davidson diagonalization with overlap
     ethr =  1.07E-05,  avg # of iterations =  9.5

     total cpu time spent up to now is     1614.0 secs

     total energy              =   -2022.80623369 Ry
     Harris-Foulkes estimate   =   -2022.81344597 Ry
     estimated scf accuracy    <       0.05633485 Ry

     total magnetization       =     8.00 Bohr mag/cell
     absolute magnetization    =     8.35 Bohr mag/cell

     iteration # 10     ecut=   100.00 Ry     beta= 0.70
     Davidson diagonalization with overlap
     ethr =  1.07E-05,  avg # of iterations =  2.0

     total cpu time spent up to now is     1759.4 secs

     total energy              =   -2022.80507083 Ry
     Harris-Foulkes estimate   =   -2022.81017607 Ry
     estimated scf accuracy    <       0.03894918 Ry

     total magnetization       =     8.00 Bohr mag/cell
     absolute magnetization    =     8.34 Bohr mag/cell

     iteration # 11     ecut=   100.00 Ry     beta= 0.70
     Davidson diagonalization with overlap
     ethr =  8.69E-06,  avg # of iterations =  2.0

     total cpu time spent up to now is     1905.6 secs

     total energy              =   -2022.80551055 Ry
     Harris-Foulkes estimate   =   -2022.80737204 Ry
     estimated scf accuracy    <       0.01044607 Ry

     total magnetization       =     8.00 Bohr mag/cell
     absolute magnetization    =     8.33 Bohr mag/cell

     iteration # 12     ecut=   100.00 Ry     beta= 0.70
     Davidson diagonalization with overlap
     ethr =  2.33E-06,  avg # of iterations =  5.5

     total cpu time spent up to now is     2066.9 secs

     total energy              =   -2022.80614066 Ry
     Harris-Foulkes estimate   =   -2022.80607065 Ry
     estimated scf accuracy    <       0.00141382 Ry

     total magnetization       =     8.00 Bohr mag/cell
     absolute magnetization    =     8.32 Bohr mag/cell

     iteration # 13     ecut=   100.00 Ry     beta= 0.70
     Davidson diagonalization with overlap
     ethr =  3.16E-07,  avg # of iterations =  3.5

     total cpu time spent up to now is     2223.8 secs

     total energy              =   -2022.80628108 Ry
     Harris-Foulkes estimate   =   -2022.80625910 Ry
     estimated scf accuracy    <       0.00114353 Ry

     total magnetization       =     8.00 Bohr mag/cell
     absolute magnetization    =     8.31 Bohr mag/cell

     iteration # 14     ecut=   100.00 Ry     beta= 0.70
     Davidson diagonalization with overlap
     ethr =  2.55E-07,  avg # of iterations =  3.5

     total cpu time spent up to now is     2374.1 secs

     total energy              =   -2022.80644537 Ry
     Harris-Foulkes estimate   =   -2022.80644471 Ry
     estimated scf accuracy    <       0.00216015 Ry

     total magnetization       =     8.00 Bohr mag/cell
     absolute magnetization    =     8.31 Bohr mag/cell

     iteration # 15     ecut=   100.00 Ry     beta= 0.70
     Davidson diagonalization with overlap
     ethr =  2.55E-07,  avg # of iterations =  4.0

     total cpu time spent up to now is     2527.0 secs

     total energy              =   -2022.80656876 Ry
     Harris-Foulkes estimate   =   -2022.80654238 Ry
     estimated scf accuracy    <       0.00030666 Ry

     total magnetization       =     8.00 Bohr mag/cell
     absolute magnetization    =     8.31 Bohr mag/cell

     iteration # 16     ecut=   100.00 Ry     beta= 0.70
     Davidson diagonalization with overlap
     ethr =  6.84E-08,  avg # of iterations =  5.5

     total cpu time spent up to now is     2686.8 secs

     total energy              =   -2022.80659301 Ry
     Harris-Foulkes estimate   =   -2022.80659429 Ry
     estimated scf accuracy    <       0.00005228 Ry

     total magnetization       =     8.00 Bohr mag/cell
     absolute magnetization    =     8.31 Bohr mag/cell

     iteration # 17     ecut=   100.00 Ry     beta= 0.70
     Davidson diagonalization with overlap
     ethr =  1.17E-08,  avg # of iterations =  5.0

     total cpu time spent up to now is     2855.9 secs

     total energy              =   -2022.80660044 Ry
     Harris-Foulkes estimate   =   -2022.80660036 Ry
     estimated scf accuracy    <       0.00003770 Ry

     total magnetization       =     8.00 Bohr mag/cell
     absolute magnetization    =     8.31 Bohr mag/cell

     iteration # 18     ecut=   100.00 Ry     beta= 0.70
     Davidson diagonalization with overlap
     ethr =  8.41E-09,  avg # of iterations =  4.0

     total cpu time spent up to now is     3014.5 secs

     total energy              =   -2022.80660590 Ry
     Harris-Foulkes estimate   =   -2022.80660518 Ry
     estimated scf accuracy    <       0.00002784 Ry

     total magnetization       =     8.00 Bohr mag/cell
     absolute magnetization    =     8.31 Bohr mag/cell

     iteration # 19     ecut=   100.00 Ry     beta= 0.70
     Davidson diagonalization with overlap
     ethr =  6.21E-09,  avg # of iterations =  3.0

     total cpu time spent up to now is     3171.6 secs

     total energy              =   -2022.80660644 Ry
     Harris-Foulkes estimate   =   -2022.80660876 Ry
     estimated scf accuracy    <       0.00001513 Ry

     total magnetization       =     8.00 Bohr mag/cell
     absolute magnetization    =     8.31 Bohr mag/cell

     iteration # 20     ecut=   100.00 Ry     beta= 0.70
     Davidson diagonalization with overlap
     ethr =  3.38E-09,  avg # of iterations =  4.0

     total cpu time spent up to now is     3341.8 secs

     total energy              =   -2022.80660587 Ry
     Harris-Foulkes estimate   =   -2022.80660887 Ry
     estimated scf accuracy    <       0.00001098 Ry

     total magnetization       =     8.00 Bohr mag/cell
     absolute magnetization    =     8.31 Bohr mag/cell

     iteration # 21     ecut=   100.00 Ry     beta= 0.70
     Davidson diagonalization with overlap
     ethr =  2.45E-09,  avg # of iterations =  4.0

     total cpu time spent up to now is     3506.0 secs

     total energy              =   -2022.80660858 Ry
     Harris-Foulkes estimate   =   -2022.80660702 Ry
     estimated scf accuracy    <       0.00000225 Ry

     total magnetization       =     8.00 Bohr mag/cell
     absolute magnetization    =     8.31 Bohr mag/cell

     iteration # 22     ecut=   100.00 Ry     beta= 0.70
     Davidson diagonalization with overlap
     ethr =  5.02E-10,  avg # of iterations =  4.5

     total cpu time spent up to now is     3708.1 secs

     total energy              =   -2022.80660743 Ry
     Harris-Foulkes estimate   =   -2022.80660930 Ry
     estimated scf accuracy    <       0.00000121 Ry

     total magnetization       =     8.00 Bohr mag/cell
     absolute magnetization    =     8.31 Bohr mag/cell

     iteration # 23     ecut=   100.00 Ry     beta= 0.70
     Davidson diagonalization with overlap
     ethr =  2.71E-10,  avg # of iterations =  5.5
 
     Magnetic moment per site:
     atom:    1    charge:    0.8625    magn:    0.0079    constr:    0.0000
     atom:    2    charge:    0.8612    magn:    0.0067    constr:    0.0000
     atom:    3    charge:    0.8637    magn:    0.0036    constr:    0.0000
     atom:    4    charge:    0.8631    magn:    0.0037    constr:    0.0000
     atom:    5    charge:    0.8611    magn:    0.0071    constr:    0.0000
     atom:    6    charge:    0.8641    magn:    0.0077    constr:    0.0000
     atom:    7    charge:    0.8619    magn:    0.0068    constr:    0.0000
     atom:    8    charge:    0.8629    magn:    0.0078    constr:    0.0000
     atom:    9    charge:    0.8501    magn:    0.0049    constr:    0.0000
     atom:   10    charge:    0.8154    magn:    0.0050    constr:    0.0000
     atom:   11    charge:    0.8161    magn:    0.0050    constr:    0.0000
     atom:   12    charge:    0.8502    magn:    0.0050    constr:    0.0000
     atom:   13    charge:    0.8527    magn:    0.0049    constr:    0.0000
     atom:   14    charge:    0.8181    magn:    0.0048    constr:    0.0000
     atom:   15    charge:    0.8177    magn:    0.0044    constr:    0.0000
     atom:   16    charge:    0.8520    magn:    0.0048    constr:    0.0000
     atom:   17    charge:    0.8630    magn:    0.0080    constr:    0.0000
     atom:   18    charge:    0.8612    magn:    0.0070    constr:    0.0000
     atom:   19    charge:    0.8654    magn:    0.0037    constr:    0.0000
     atom:   20    charge:    0.8631    magn:    0.0037    constr:    0.0000
     atom:   21    charge:    0.8373    magn:   -0.0022    constr:    0.0000
     atom:   22    charge:    0.8382    magn:   -0.0024    constr:    0.0000
     atom:   23    charge:    0.8373    magn:   -0.0024    constr:    0.0000
     atom:   24    charge:    0.8387    magn:   -0.0025    constr:    0.0000
     atom:   25    charge:    0.8607    magn:    0.0068    constr:    0.0000
     atom:   26    charge:    0.8608    magn:    0.0069    constr:    0.0000
     atom:   27    charge:    0.8636    magn:    0.0038    constr:    0.0000
     atom:   28    charge:    0.8631    magn:    0.0037    constr:    0.0000
     atom:   29    charge:    0.8618    magn:    0.0082    constr:    0.0000
     atom:   30    charge:    0.8640    magn:    0.0080    constr:    0.0000
     atom:   31    charge:    0.8623    magn:    0.0066    constr:    0.0000
     atom:   32    charge:    0.8612    magn:    0.0067    constr:    0.0000
     atom:   33    charge:    0.8505    magn:    0.0050    constr:    0.0000
     atom:   34    charge:    0.8498    magn:    0.0050    constr:    0.0000
     atom:   35    charge:    0.8504    magn:    0.0051    constr:    0.0000
     atom:   36    charge:    0.8498    magn:    0.0049    constr:    0.0000
     atom:   37    charge:    0.8181    magn:    0.0047    constr:    0.0000
     atom:   38    charge:    0.8175    magn:    0.0045    constr:    0.0000
     atom:   39    charge:    0.8182    magn:    0.0047    constr:    0.0000
     atom:   40    charge:    0.8174    magn:    0.0045    constr:    0.0000
     atom:   41    charge:    0.8631    magn:    0.0077    constr:    0.0000
     atom:   42    charge:    0.8619    magn:    0.0083    constr:    0.0000
     atom:   43    charge:    0.8654    magn:    0.0038    constr:    0.0000
     atom:   44    charge:    0.8631    magn:    0.0039    constr:    0.0000
     atom:   45    charge:    0.8374    magn:   -0.0025    constr:    0.0000
     atom:   46    charge:    0.8374    magn:   -0.0026    constr:    0.0000
     atom:   47    charge:    0.8380    magn:   -0.0024    constr:    0.0000
     atom:   48    charge:    0.8389    magn:   -0.0027    constr:    0.0000
     atom:   49    charge:    4.8386    magn:    0.0037    constr:    0.0000
     atom:   50    charge:    4.8394    magn:    0.0134    constr:    0.0000
     atom:   51    charge:    4.8378    magn:    0.0153    constr:    0.0000
     atom:   52    charge:    4.8375    magn:    0.0040    constr:    0.0000
     atom:   53    charge:    4.8368    magn:    0.0175    constr:    0.0000
     atom:   54    charge:    4.8373    magn:    0.0166    constr:    0.0000
     atom:   55    charge:    4.8395    magn:    0.0122    constr:    0.0000
     atom:   56    charge:    4.8378    magn:    0.0161    constr:    0.0000
     atom:   57    charge:    0.4993    magn:   -0.0012    constr:    0.0000
     atom:   58    charge:    0.5037    magn:   -0.0015    constr:    0.0000
     atom:   59    charge:    0.4989    magn:   -0.0012    constr:    0.0000
     atom:   60    charge:    0.4989    magn:   -0.0012    constr:    0.0000
     atom:   61    charge:    0.5035    magn:   -0.0015    constr:    0.0000
     atom:   62    charge:    0.5036    magn:   -0.0014    constr:    0.0000
     atom:   63    charge:    0.5038    magn:   -0.0008    constr:    0.0000
     atom:   64    charge:    0.5037    magn:   -0.0008    constr:    0.0000
     atom:   65    charge:    0.5042    magn:   -0.0008    constr:    0.0000
     atom:   66    charge:    0.4996    magn:   -0.0007    constr:    0.0000
     atom:   67    charge:    0.4991    magn:   -0.0007    constr:    0.0000
     atom:   68    charge:    0.4985    magn:   -0.0012    constr:    0.0000
     atom:   69    charge:    0.5033    magn:   -0.0015    constr:    0.0000
     atom:   70    charge:    0.5040    magn:   -0.0014    constr:    0.0000
     atom:   71    charge:    0.5033    magn:   -0.0014    constr:    0.0000
     atom:   72    charge:    0.5029    magn:   -0.0015    constr:    0.0000
     atom:   73    charge:    0.4988    magn:   -0.0012    constr:    0.0000
     atom:   74    charge:    0.5026    magn:   -0.0015    constr:    0.0000
     atom:   75    charge:    0.4988    magn:   -0.0012    constr:    0.0000
     atom:   76    charge:    0.5035    magn:   -0.0008    constr:    0.0000
     atom:   77    charge:    0.5035    magn:   -0.0008    constr:    0.0000
     atom:   78    charge:    0.5039    magn:   -0.0008    constr:    0.0000
     atom:   79    charge:    0.4984    magn:   -0.0012    constr:    0.0000
     atom:   80    charge:    0.4992    magn:   -0.0013    constr:    0.0000
     atom:   81    charge:    2.5044    magn:    0.0144    constr:    0.0000
     atom:   82    charge:    2.5042    magn:    0.0149    constr:    0.0000
     atom:   83    charge:    2.5060    magn:    0.0160    constr:    0.0000
     atom:   84    charge:    2.5045    magn:    0.0145    constr:    0.0000
     atom:   85    charge:    2.5043    magn:    0.0153    constr:    0.0000
     atom:   86    charge:    2.5022    magn:    0.0164    constr:    0.0000
     atom:   87    charge:    2.5079    magn:    0.0147    constr:    0.0000
     atom:   88    charge:    2.5044    magn:    0.0154    constr:    0.0000
     atom:   89    charge:    7.4530    magn:    1.1758    constr:    0.0000
     atom:   90    charge:    7.4528    magn:    1.1720    constr:    0.0000
     atom:   91    charge:    7.4520    magn:    1.1759    constr:    0.0000
     atom:   92    charge:    7.4518    magn:    1.1741    constr:    0.0000
     atom:   93    charge:    3.3069    magn:    0.0603    constr:    0.0000
     atom:   94    charge:    3.3078    magn:    0.0706    constr:    0.0000
     atom:   95    charge:    3.3110    magn:    0.0699    constr:    0.0000
     atom:   96    charge:    3.3042    magn:    0.0735    constr:    0.0000
     atom:   97    charge:    3.3049    magn:    0.0592    constr:    0.0000
     atom:   98    charge:    3.3041    magn:    0.0614    constr:    0.0000
     atom:   99    charge:    3.3050    magn:    0.0617    constr:    0.0000
     atom:  100    charge:    3.3042    magn:    0.0597    constr:    0.0000
     atom:  101    charge:    3.3055    magn:    0.0716    constr:    0.0000
     atom:  102    charge:    3.3055    magn:    0.0737    constr:    0.0000
     atom:  103    charge:    3.3086    magn:    0.0729    constr:    0.0000
     atom:  104    charge:    3.3044    magn:    0.0613    constr:    0.0000
     atom:  105    charge:    3.3040    magn:    0.0609    constr:    0.0000
     atom:  106    charge:    3.3041    magn:    0.0627    constr:    0.0000
     atom:  107    charge:    3.3051    magn:    0.0604    constr:    0.0000
     atom:  108    charge:    3.3036    magn:    0.0620    constr:    0.0000

     total cpu time spent up to now is     3916.0 secs

     End of self-consistent calculation

 ------ SPIN UP ------------


          k = 0.0000 0.0000 0.0000 ( 91663 PWs)   bands (ev):

   -24.8113 -24.7187 -24.7161 -24.7134 -24.6910 -24.6880 -24.5615 -24.5244
   -22.3800 -22.3697 -22.3485 -22.3266 -22.2545 -22.2485 -22.2198 -22.2058
   -19.4586 -19.4445 -19.4363 -19.4213 -19.4163 -19.3992 -19.3634 -19.3470
   -19.2800 -19.2677 -19.2379 -19.2309 -19.1856 -19.1773 -19.1726 -19.1662
   -15.6568 -15.6210 -15.6037 -15.5958 -15.5791 -15.5714 -15.5578 -15.5499
   -14.2455 -14.2338 -14.2204 -14.1998 -14.1778 -14.1684 -14.1583 -14.1425
   -12.0005 -11.9293 -11.8949 -11.8607 -11.8532 -11.8346 -11.8231 -11.8073
   -11.2629 -11.2275 -11.2059 -11.1964 -11.1550 -11.1411 -11.1122 -11.1109
    -9.5153  -9.4471  -9.4083  -9.3812  -9.3206  -9.2569  -9.2061  -9.1963
    -8.2596  -8.2103  -8.1700  -8.1492  -8.1079  -8.0464  -7.9858  -7.9825
    -7.9471  -7.9402  -7.9233  -7.9003  -7.8783  -7.8764  -7.8449  -7.6822
    -7.5565  -7.4545  -7.4270  -7.3604  -7.2559  -7.2418  -7.1828  -7.1764
    -6.9515  -6.8725  -6.8147  -6.8010  -6.7296  -6.7248  -6.7131  -6.7006
    -6.6652  -6.6375  -6.5912  -6.5907  -6.5637  -6.5528  -6.5238  -6.4830
    -6.4782  -6.4465  -6.4267  -6.3578  -6.3045  -6.2941  -6.2776  -6.2669
    -6.2411  -6.2010  -6.1727  -6.1035  -5.9738  -5.9673  -5.9603  -5.9474
    -5.8949  -5.8720  -5.8159  -5.7840  -5.7345  -5.7079  -5.6302  -5.5241
    -4.9710  -4.8825  -4.8194  -4.8103  -4.7980  -4.7854  -4.7590  -4.7369
    -4.6930  -4.6752  -4.6115  -4.5994  -4.5790  -4.5512  -4.5231  -4.4714
    -4.4362  -4.3938  -4.3819  -4.3495  -4.3328  -4.2945  -4.2753  -4.1998
    -4.1584  -4.0513  -4.0287  -3.9812  -3.9649  -3.8594  -3.8221  -3.7876
    -3.7133  -3.5974  -3.5923  -3.5228  -3.4825  -3.4029  -3.3012  -3.2758
    -3.2648  -3.2634  -3.2213  -3.2052  -3.1067  -3.0743  -3.0660  -3.0038
    -2.9682  -2.9277  -2.8129  -2.6994  -2.6085  -2.5254  -2.5139  -2.5074
    -2.4814  -2.4438  -2.3802  -2.3523  -2.3460  -2.3345  -2.3223  -2.2930
    -2.2090  -2.1962  -2.1906  -2.1695  -2.1617  -2.1542  -2.1432  -2.1117
    -1.9038  -1.8367  -1.7607  -1.7511  -1.7117  -1.6921  -1.6549  -1.6328
    -1.6233  -1.6136  -1.5810  -1.5190  -0.3280  -0.2857  -0.2771  -0.2358
    -0.1629  -0.1434  -0.1146  -0.0806   1.8192   1.8700   1.8820   1.9068
     1.9178   1.9302   1.9550   2.0336   2.6669   3.0522   3.0682   3.1008
     3.1347   3.1929   3.2248   3.2628   3.3527   3.3693   3.4943   3.5515
     4.1125   4.1991   4.3075   4.3785   4.3941   4.5514   4.5637   4.5688
     4.6569   4.6684   4.7370   4.7420   4.7496   4.8316   4.9130   4.9919
     5.1690   5.2463   5.3210   5.6182   5.7619   5.8106   5.9600   5.9896
     6.0516   6.0825

 ------ SPIN DOWN ----------


          k = 0.0000 0.0000 0.0000 ( 91663 PWs)   bands (ev):

   -24.7851 -24.7061 -24.6988 -24.6939 -24.6664 -24.6588 -24.5306 -24.4934
   -22.2680 -22.2559 -22.2369 -22.2140 -22.1428 -22.1351 -22.1121 -22.0956
   -19.3305 -19.3203 -19.2961 -19.2833 -19.2817 -19.2642 -19.2271 -19.2157
   -19.2088 -19.2070 -19.1901 -19.1828 -19.1393 -19.1334 -19.1291 -19.1212
   -15.6187 -15.5829 -15.5657 -15.5579 -15.5406 -15.5335 -15.5189 -15.5105
   -14.2044 -14.1926 -14.1790 -14.1581 -14.1353 -14.1263 -14.1166 -14.1005
   -11.9629 -11.8914 -11.8561 -11.8253 -11.8157 -11.7993 -11.7866 -11.7702
   -11.2333 -11.1982 -11.1759 -11.1670 -11.1272 -11.1119 -11.0842 -11.0808
    -9.4864  -9.4185  -9.3813  -9.3560  -9.2965  -9.2330  -9.1874  -9.1734
    -8.2093  -8.1616  -8.1219  -8.0930  -8.0662  -8.0178  -7.9563  -7.9514
    -7.9165  -7.9111  -7.8824  -7.8611  -7.8462  -7.8338  -7.7905  -7.6316
    -7.5158  -7.4324  -7.3859  -7.3219  -7.2278  -7.2196  -7.1486  -7.1285
    -6.8789  -6.7956  -6.7483  -6.7157  -6.6597  -6.6472  -6.6242  -6.6172
    -6.5740  -6.5613  -6.5344  -6.4940  -6.4863  -6.4460  -6.4081  -6.4030
    -6.3761  -6.3681  -6.2963  -6.2865  -6.2185  -6.2108  -6.1794  -6.1736
    -6.1576  -6.1338  -6.1173  -6.0436  -5.9103  -5.9023  -5.8941  -5.8385
    -5.8246  -5.7719  -5.7230  -5.6899  -5.6422  -5.6134  -5.5243  -5.4328
    -4.8744  -4.7992  -4.7781  -4.7482  -4.7211  -4.7117  -4.6740  -4.6533
    -4.6255  -4.5462  -4.4830  -4.4447  -4.4219  -4.3466  -4.3279  -4.3074
    -4.2967  -4.2712  -4.2471  -4.2273  -4.2095  -4.1908  -4.1358  -4.0727
    -3.9856  -3.9265  -3.8939  -3.7946  -3.7327  -3.6815  -3.6317  -3.5182
    -3.4319  -3.3626  -3.3091  -3.2008  -3.0923  -2.9925  -2.9471  -2.9417
    -2.8651  -2.8241  -2.7651  -2.7538  -2.6814  -2.6446  -2.5718  -2.5443
    -2.5190  -2.4805  -2.4567  -2.3872  -2.2886  -2.2639  -2.2191  -2.1897
    -2.1683  -2.1414  -2.1049  -2.0651  -1.8140  -1.7601  -1.7291  -1.6992
    -1.6528  -1.6337  -1.5986  -1.5667  -1.5395  -1.5365  -1.5239  -1.5146
    -1.4578  -1.4129  -1.3779  -1.3272  -1.3237  -1.3128  -1.3075  -1.2881
    -1.2412  -1.1941  -1.1778  -1.1244   0.5354   0.5709   0.5785   0.6098
     0.6673   0.6888   0.7082   0.7500   1.9325   1.9887   1.9953   2.0232
     2.0359   2.0658   2.0838   2.1469   2.6361   3.1568   3.1663   3.2006
     3.2043   3.2946   3.3093   3.3485   3.3911   3.4509   3.5284   3.5365
     4.0991   4.1940   4.3103   4.3692   4.3842   4.5847   4.6159   4.6328
     4.7239   4.7328   4.7989   4.8061   4.8077   4.8874   4.9135   4.9862
     5.1625   5.2509   5.3221   5.6260   5.7682   5.8214   5.9678   5.9775
     6.0472   6.0816

     the spin up/dw Fermi energies are     0.1804   -0.1313 ev

!    total energy              =   -2022.80660802 Ry
     Harris-Foulkes estimate   =   -2022.80660808 Ry
     estimated scf accuracy    <       0.00000038 Ry

     The total energy is the sum of the following terms:

     one-electron contribution =   -3022.67701890 Ry
     hartree contribution      =    1684.34128520 Ry
     xc contribution           =    -588.10836332 Ry
     ewald contribution        =     -98.89665473 Ry
     Dispersion Correction     =      -0.45745066 Ry
     smearing contrib. (-TS)   =       2.99159439 Ry

     total magnetization       =     8.00 Bohr mag/cell
     absolute magnetization    =     8.31 Bohr mag/cell

     convergence has been achieved in  23 iterations

     Forces acting on atoms (cartesian axes, Ry/au):

     atom    1 type  1   force =    -0.02413369    0.01302076   -0.02985396
     atom    2 type  1   force =    -0.02264040   -0.00376642   -0.01985442
     atom    3 type  1   force =    -0.00309788   -0.00320982    0.00250562
     atom    4 type  1   force =    -0.00028205    0.00321515    0.00453260
     atom    5 type  1   force =     0.02001574    0.00219938    0.00513674
     atom    6 type  1   force =     0.02823482   -0.00766745    0.00725119
     atom    7 type  1   force =     0.01939502   -0.00369210   -0.01394327
     atom    8 type  1   force =     0.02560158    0.01311527   -0.02900970
     atom    9 type  1   force =     0.00104706   -0.00651798   -0.00526052
     atom   10 type  1   force =     0.04213351   -0.01332059   -0.01430085
     atom   11 type  1   force =    -0.04126217   -0.01222990   -0.01548737
     atom   12 type  1   force =    -0.00130439   -0.00858548   -0.00760652
     atom   13 type  1   force =     0.01644270    0.00063997    0.00724961
     atom   14 type  1   force =     0.03007467    0.00789913    0.02560520
     atom   15 type  1   force =    -0.03842820    0.01701271    0.03680930
     atom   16 type  1   force =    -0.01715802    0.00204252    0.00542186
     atom   17 type  1   force =    -0.02756165   -0.01058885    0.00416324
     atom   18 type  1   force =    -0.01955765    0.00271277    0.00480220
     atom   19 type  1   force =    -0.00029241    0.00334137    0.00307886
     atom   20 type  1   force =     0.00282119   -0.00387620    0.00214248
     atom   21 type  1   force =    -0.00223226   -0.01536699    0.01571779
     atom   22 type  1   force =    -0.00490329    0.01554451    0.01529396
     atom   23 type  1   force =     0.00437032    0.00737802    0.00648548
     atom   24 type  1   force =     0.00239060   -0.01358288    0.01381332
     atom   25 type  1   force =    -0.02247866    0.00453310   -0.02086414
     atom   26 type  1   force =    -0.01891095   -0.00416439   -0.01615966
     atom   27 type  1   force =    -0.00172032   -0.00426271    0.00507664
     atom   28 type  1   force =     0.00017753    0.00344794    0.00448799
     atom   29 type  1   force =     0.03226271    0.01376839    0.00719630
     atom   30 type  1   force =     0.02822274   -0.00821564    0.00519397
     atom   31 type  1   force =     0.02348798   -0.00369733   -0.01797499
     atom   32 type  1   force =     0.02341645    0.00477568   -0.01999790
     atom   33 type  1   force =     0.00281855   -0.00777651   -0.00767132
     atom   34 type  1   force =     0.00161321    0.00687559   -0.00611410
     atom   35 type  1   force =    -0.00166795    0.00718076   -0.00643598
     atom   36 type  1   force =     0.00061376   -0.00730090   -0.00466955
     atom   37 type  1   force =     0.03949301   -0.01427697    0.03721653
     atom   38 type  1   force =     0.03425015    0.01549274    0.03342863
     atom   39 type  1   force =    -0.03444577    0.00996737    0.02982119
     atom   40 type  1   force =    -0.04400273   -0.01613506    0.04123341
     atom   41 type  1   force =    -0.02763216   -0.01006516    0.00604264
     atom   42 type  1   force =    -0.03122171    0.01521154    0.00454793
     atom   43 type  1   force =     0.00001715    0.00343282    0.00348075
     atom   44 type  1   force =     0.00110432   -0.00481689    0.00472005
     atom   45 type  1   force =    -0.00189106   -0.01651418    0.01712504
     atom   46 type  1   force =    -0.00468271    0.00616908    0.00598921
     atom   47 type  1   force =     0.00644117    0.01418256    0.01172460
     atom   48 type  1   force =     0.00204653   -0.01453287    0.01510141
     atom   49 type  2   force =     0.08201000    0.03131621    0.02081725
     atom   50 type  2   force =    -0.14911725   -0.02709818   -0.09803982
     atom   51 type  2   force =     0.13858705   -0.04360866   -0.10113840
     atom   52 type  2   force =    -0.08062479    0.03919923    0.01495710
     atom   53 type  2   force =    -0.15800465    0.03744062   -0.10313366
     atom   54 type  2   force =    -0.15489981   -0.03723478   -0.10275414
     atom   55 type  2   force =     0.13190849   -0.03270758   -0.09652235
     atom   56 type  2   force =     0.14245686    0.04589190   -0.10246346
     atom   57 type  3   force =     0.01021716   -0.00979645    0.01765009
     atom   58 type  3   force =     0.01112361    0.00557485    0.01305272
     atom   59 type  3   force =    -0.01658310   -0.00672724   -0.00456238
     atom   60 type  3   force =    -0.01289035    0.00460145   -0.00386049
     atom   61 type  3   force =    -0.01126288    0.00544367    0.01225473
     atom   62 type  3   force =    -0.01321132   -0.00692990    0.01619987
     atom   63 type  3   force =    -0.01351931   -0.00510491    0.00455323
     atom   64 type  3   force =    -0.01359763    0.00477883    0.00448717
     atom   65 type  3   force =     0.01335646   -0.00529314    0.00403925
     atom   66 type  3   force =    -0.01398824    0.00421845   -0.01535677
     atom   67 type  3   force =     0.01295614    0.00427017   -0.01454065
     atom   68 type  3   force =     0.01237600    0.00541087   -0.00410224
     atom   69 type  3   force =     0.01489779   -0.00448646   -0.00637183
     atom   70 type  3   force =     0.01379624   -0.00893327    0.01877560
     atom   71 type  3   force =     0.01407139    0.00764708    0.01770337
     atom   72 type  3   force =    -0.01616604   -0.00497457   -0.00512001
     atom   73 type  3   force =    -0.01306947    0.00466099   -0.00392583
     atom   74 type  3   force =    -0.01448635    0.00699563    0.01657550
     atom   75 type  3   force =    -0.00972907   -0.00789663    0.01514404
     atom   76 type  3   force =    -0.01356972   -0.00542260    0.00494478
     atom   77 type  3   force =     0.01346796    0.00488659    0.00409182
     atom   78 type  3   force =     0.01339550   -0.00558528    0.00443755
     atom   79 type  3   force =     0.01251251    0.00544123   -0.00424430
     atom   80 type  3   force =     0.01487484   -0.00657507   -0.00554083
     atom   81 type  4   force =    -0.02085321   -0.01594270   -0.00433289
     atom   82 type  4   force =     0.01081094    0.01928794    0.01566114
     atom   83 type  4   force =    -0.00807388    0.00847982    0.01451390
     atom   84 type  4   force =     0.01966237   -0.01705328   -0.00537598
     atom   85 type  4   force =     0.00916348   -0.01935391    0.01615313
     atom   86 type  4   force =     0.00558875    0.00827491    0.01695585
     atom   87 type  4   force =    -0.01304051    0.01851303    0.01320326
     atom   88 type  4   force =    -0.00913214   -0.01891270    0.01284932
     atom   89 type  5   force =     0.00497729    0.01571769   -0.00297379
     atom   90 type  5   force =    -0.00074127   -0.01600581    0.01431737
     atom   91 type  5   force =     0.01124455    0.01931639    0.00675038
     atom   92 type  5   force =    -0.00823990   -0.01280715    0.02015416
     atom   93 type  6   force =     0.01620800    0.01394703   -0.00283353
     atom   94 type  6   force =    -0.05979105    0.00213265    0.01750127
     atom   95 type  6   force =     0.08163373   -0.00143609    0.01486137
     atom   96 type  6   force =     0.08452069    0.01165184    0.01538189
     atom   97 type  6   force =    -0.01893746    0.00684510    0.01444312
     atom   98 type  6   force =    -0.00819842   -0.00983770    0.01409364
     atom   99 type  6   force =     0.00770428   -0.00913962    0.01200951
     atom  100 type  6   force =     0.01575432    0.00844581    0.01303004
     atom  101 type  6   force =    -0.06556628    0.00638576    0.01824801
     atom  102 type  6   force =    -0.06392304   -0.00578121    0.01890380
     atom  103 type  6   force =     0.08455751   -0.00840601    0.01586534
     atom  104 type  6   force =    -0.01610409    0.01651686   -0.00392978
     atom  105 type  6   force =    -0.01387518    0.00903555    0.01718488
     atom  106 type  6   force =    -0.00976924   -0.00845536    0.01364376
     atom  107 type  6   force =     0.00621066   -0.01058214    0.01238254
     atom  108 type  6   force =     0.01393668    0.01076435    0.01613989

     Total force =     0.555588     Total SCF correction =     0.001438

     BFGS Geometry Optimization

     number of scf cycles    =   1
     number of bfgs steps    =   0

     energy   new            =   -2022.8066080242 Ry

     new trust radius        =       0.1923637754 bohr
     new conv_thr            =       0.0000010000 Ry


ATOMIC_POSITIONS (crystal)
C             0.2871627937        0.9706001933        0.5204463703
C             0.0374023559        0.0309468497        0.0212853969
C             0.3905052610        0.0116343690        0.5466210520
C             0.1402363137        0.9878798562        0.0463794516
C             0.4527667855        0.9702949349        0.6506355678
C             0.2037215598        0.0280290115        0.1502664729
C             0.2089886349        0.5295479900        0.5256658515
C             0.4596011439        0.4719631867        0.0264098539
C             0.2451763756        0.6130555822        0.6061640567
C             0.4985884839        0.3881141377        0.1078804342
C             0.2477154649        0.8886892246        0.6024053225
C             0.0010066744        0.1118692197        0.1038552260
C             0.4086795721        0.8894100422        0.7279253915
C             0.1612316173        0.1098807784        0.2291307970
C             0.0872704059        0.6097018734        0.7292478649
C             0.3401690369        0.3917193067        0.2296732531
C             0.0457626251        0.5246315672        0.6515264280
C             0.2968349150        0.4748256283        0.1530013373
C             0.1081545127        0.4844111898        0.5502745770
C             0.3579533877        0.5154922107        0.0507483485
C             0.4332302746        0.0986696669        0.4674305456
C             0.1813238523        0.9003768345        0.9664597163
C             0.0675690102        0.3947857587        0.4710100352
C             0.3161571069        0.6035980545        0.9698184557
C             0.7872412532        0.9702415466        0.5209093917
C             0.5375636315        0.0309300333        0.0214756959
C             0.8905659627        0.0115898790        0.5467534727
C             0.6402557189        0.9878896929        0.0463771541
C             0.9532869492        0.9707837843        0.6507416457
C             0.7037191202        0.0280058476        0.1501605156
C             0.7091590498        0.5295477691        0.5254581974
C             0.9595181269        0.4716107969        0.0268740073
C             0.7452490769        0.6130024032        0.6060398882
C             0.9968815321        0.3889675286        0.1083020930
C             0.7493993874        0.8895094235        0.6028715145
C             0.5010905943        0.1119235001        0.1040064945
C             0.9096830405        0.8887797257        0.7294688393
C             0.6614146373        0.1102016468        0.2295337430
C             0.5874323730        0.6094041718        0.7288879418
C             0.8390666653        0.3909512120        0.2315177285
C             0.5457614034        0.5246536958        0.6516232262
C             0.7963411097        0.4753537650        0.1529882411
C             0.6081679886        0.4844150542        0.5502952764
C             0.8578831538        0.5154524618        0.0508811064
C             0.9332460318        0.0986211922        0.4675030258
C             0.6813244641        0.8999806750        0.9659804745
C             0.5676605496        0.3950732852        0.4712798761
C             0.8161437550        0.6035579124        0.9698847990
F             0.1524517842        0.8487392687        0.5800091935
F             0.2149421723        0.1491739643        0.3245554545
F             0.0346795382        0.6485293129        0.8213858618
F             0.5924473644        0.3463983663        0.0869753662
F             0.9615403252        0.8492310564        0.8244010962
F             0.7146920630        0.1487456418        0.3243136431
F             0.5344022604        0.6489899386        0.8216236122
F             0.7874760480        0.3523271655        0.3241926149
H             0.2375728860        0.9991610501        0.4440220687
H             0.4870209331        0.0029275658        0.9441712811
H             0.0313570061        0.9985207398        0.6732850143
H             0.2817909234        0.9988594348        0.1724031651
H             0.2582348958        0.5011250226        0.4499131803
H             0.0080971451        0.5001041764        0.9513823753
H             0.3220731953        0.6502902914        0.5928695142
H             0.0743968192        0.3530529300        0.0952591120
H             0.4228909676        0.1475083378        0.0900940416
H             0.4527636896        0.8553512508        0.8079700488
H             0.2969126121        0.3577064363        0.3083020829
H             0.4691918477        0.4934596365        0.6732907140
H             0.2195764308        0.5050114242        0.1749358188
H             0.7377253904        0.9991975240        0.4440800383
H             0.9871500284        0.0030151281        0.9444108126
H             0.5313731312        0.9985947990        0.6732562937
H             0.7817832827        0.9988619505        0.1723997999
H             0.7581025441        0.5011906008        0.4501357221
H             0.5082435076        0.5000633275        0.9513279946
H             0.8220714292        0.6502768675        0.5928896809
H             0.6707277353        0.8553294833        0.5887707495
H             0.9228929932        0.1474959937        0.0901145560
H             0.9691974913        0.4934609198        0.6732833971
H             0.7195762383        0.5049231698        0.1749786195
N             0.3075505303        0.8505793402        0.7046048345
N             0.0612011473        0.1496720134        0.2068586276
N             0.1862139568        0.6506683155        0.7065855388
N             0.4396369782        0.3502074123        0.2077641100
N             0.8088398961        0.8504351989        0.7056599675
N             0.5609813830        0.1492066571        0.2069253120
N             0.6860035641        0.6510922694        0.7065180345
N             0.9384356160        0.3501288425        0.2087028051
Ni            0.2472098276        0.7521501520        0.8361728348
Ni            0.4999540535        0.2473226731        0.3399154169
Ni            0.7474841432        0.7523022154        0.8366736788
Ni            0.9996422186        0.2474578331        0.3402160410
O             0.1234611890        0.3482783330        0.3827270591
O             0.3686943337        0.6510671153        0.8821934037
O             0.3810982798        0.1474463180        0.3779434355
O             0.1286889297        0.8528443495        0.8770532448
O             0.4722811956        0.3564492403        0.4837378936
O             0.2208032930        0.6409993074        0.9806028937
O             0.0291772657        0.1347718045        0.4816965505
O             0.2773648614        0.8631148783        0.9800701128
O             0.6200216536        0.3479588308        0.3838128648
O             0.8685208020        0.6507327147        0.8822656410
O             0.8812229412        0.1471518033        0.3779951448
O             0.6244128682        0.8530499214        0.8760585966
O             0.9724979772        0.3565417978        0.4838791078
O             0.7207364018        0.6410577181        0.9805797223
O             0.5291144125        0.1347108509        0.4817157630
O             0.7772908624        0.8632128486        0.9802302860



     Writing output data file /nfs/hpc/share/gantzlen/NiPyC2_relax_sc211_ortho_functionalized_F_vdw-df2_relax.save/
     NEW-OLD atomic charge density approx. for the potential

     Check: negative core charge=   -0.000145

     total cpu time spent up to now is     3978.3 secs

     Self-consistent Calculation

     iteration #  1     ecut=   100.00 Ry     beta= 0.70
     Davidson diagonalization with overlap
     ethr =  1.00E-06,  avg # of iterations = 12.0

     total cpu time spent up to now is     4623.1 secs

     total energy              =   -2022.92847383 Ry
     Harris-Foulkes estimate   =   -2022.95246645 Ry
     estimated scf accuracy    <       0.11221804 Ry

     total magnetization       =     8.00 Bohr mag/cell
     absolute magnetization    =     8.32 Bohr mag/cell

     iteration #  2     ecut=   100.00 Ry     beta= 0.70
     Davidson diagonalization with overlap
     ethr =  2.50E-05,  avg # of iterations =  2.0

     total cpu time spent up to now is     4772.0 secs

     total energy              =   -2022.92995089 Ry
     Harris-Foulkes estimate   =   -2022.93906662 Ry
     estimated scf accuracy    <       0.04370476 Ry

     total magnetization       =     8.00 Bohr mag/cell
     absolute magnetization    =     8.33 Bohr mag/cell

     iteration #  3     ecut=   100.00 Ry     beta= 0.70
     Davidson diagonalization with overlap
     ethr =  9.76E-06,  avg # of iterations =  1.5

     total cpu time spent up to now is     4916.7 secs

     total energy              =   -2022.92733287 Ry
     Harris-Foulkes estimate   =   -2022.93774649 Ry
     estimated scf accuracy    <       0.06699013 Ry

     total magnetization       =     8.00 Bohr mag/cell
     absolute magnetization    =     8.32 Bohr mag/cell

     iteration #  4     ecut=   100.00 Ry     beta= 0.70
     Davidson diagonalization with overlap
     ethr =  9.76E-06,  avg # of iterations =  1.5

     total cpu time spent up to now is     5061.3 secs

     total energy              =   -2022.92976760 Ry
     Harris-Foulkes estimate   =   -2022.93376453 Ry
     estimated scf accuracy    <       0.02024331 Ry

     total magnetization       =     8.00 Bohr mag/cell
     absolute magnetization    =     8.33 Bohr mag/cell

     iteration #  5     ecut=   100.00 Ry     beta= 0.70
     Davidson diagonalization with overlap
     ethr =  4.52E-06,  avg # of iterations =  4.5

     total cpu time spent up to now is     5208.6 secs

     total energy              =   -2022.92991202 Ry
     Harris-Foulkes estimate   =   -2022.93120222 Ry
     estimated scf accuracy    <       0.00828774 Ry

     total magnetization       =     8.00 Bohr mag/cell
     absolute magnetization    =     8.33 Bohr mag/cell

     iteration #  6     ecut=   100.00 Ry     beta= 0.70
     Davidson diagonalization with overlap
     ethr =  1.85E-06,  avg # of iterations =  4.0

     total cpu time spent up to now is     5355.9 secs

     total energy              =   -2022.92922248 Ry
     Harris-Foulkes estimate   =   -2022.93081573 Ry
     estimated scf accuracy    <       0.01141370 Ry

     total magnetization       =     8.00 Bohr mag/cell
     absolute magnetization    =     8.33 Bohr mag/cell

     iteration #  7     ecut=   100.00 Ry     beta= 0.70
     Davidson diagonalization with overlap
     ethr =  1.85E-06,  avg # of iterations =  4.0

     total cpu time spent up to now is     5508.0 secs

     total energy              =   -2022.92928602 Ry
     Harris-Foulkes estimate   =   -2022.92976394 Ry
     estimated scf accuracy    <       0.00146506 Ry

     total magnetization       =     8.00 Bohr mag/cell
     absolute magnetization    =     8.34 Bohr mag/cell

     iteration #  8     ecut=   100.00 Ry     beta= 0.70
     Davidson diagonalization with overlap
     ethr =  3.27E-07,  avg # of iterations =  4.0

     total cpu time spent up to now is     5676.8 secs

     total energy              =   -2022.92938519 Ry
     Harris-Foulkes estimate   =   -2022.92944195 Ry
     estimated scf accuracy    <       0.00037335 Ry

     total magnetization       =     8.00 Bohr mag/cell
     absolute magnetization    =     8.34 Bohr mag/cell

     iteration #  9     ecut=   100.00 Ry     beta= 0.70
     Davidson diagonalization with overlap
     ethr =  8.33E-08,  avg # of iterations =  3.5

     total cpu time spent up to now is     5828.4 secs

     total energy              =   -2022.92937937 Ry
     Harris-Foulkes estimate   =   -2022.92941196 Ry
     estimated scf accuracy    <       0.00033695 Ry

     total magnetization       =     8.00 Bohr mag/cell
     absolute magnetization    =     8.34 Bohr mag/cell

     iteration # 10     ecut=   100.00 Ry     beta= 0.70
     Davidson diagonalization with overlap
     ethr =  7.52E-08,  avg # of iterations =  2.0

     total cpu time spent up to now is     5975.1 secs

     total energy              =   -2022.92938928 Ry
     Harris-Foulkes estimate   =   -2022.92941394 Ry
     estimated scf accuracy    <       0.00042337 Ry

     total magnetization       =     8.00 Bohr mag/cell
     absolute magnetization    =     8.34 Bohr mag/cell

     iteration # 11     ecut=   100.00 Ry     beta= 0.70
     Davidson diagonalization with overlap
     ethr =  7.52E-08,  avg # of iterations =  2.0

     total cpu time spent up to now is     6122.7 secs

     total energy              =   -2022.92941657 Ry
     Harris-Foulkes estimate   =   -2022.92940605 Ry
     estimated scf accuracy    <       0.00005285 Ry

     total magnetization       =     8.00 Bohr mag/cell
     absolute magnetization    =     8.34 Bohr mag/cell

     iteration # 12     ecut=   100.00 Ry     beta= 0.70
     Davidson diagonalization with overlap
     ethr =  1.18E-08,  avg # of iterations =  4.0

     total cpu time spent up to now is     6304.0 secs

     total energy              =   -2022.92943942 Ry
     Harris-Foulkes estimate   =   -2022.92942326 Ry
     estimated scf accuracy    <       0.00001819 Ry

     total magnetization       =     8.00 Bohr mag/cell
     absolute magnetization    =     8.34 Bohr mag/cell

     iteration # 13     ecut=   100.00 Ry     beta= 0.70
     Davidson diagonalization with overlap
     ethr =  4.06E-09,  avg # of iterations =  4.0

     total cpu time spent up to now is     6483.9 secs

     total energy              =   -2022.92945466 Ry
     Harris-Foulkes estimate   =   -2022.92944184 Ry
     estimated scf accuracy    <       0.00000912 Ry

     total magnetization       =     8.00 Bohr mag/cell
     absolute magnetization    =     8.34 Bohr mag/cell

     iteration # 14     ecut=   100.00 Ry     beta= 0.70
     Davidson diagonalization with overlap
     ethr =  2.04E-09,  avg # of iterations =  4.0

     total cpu time spent up to now is     6664.7 secs

     total energy              =   -2022.92945862 Ry
     Harris-Foulkes estimate   =   -2022.92945627 Ry
     estimated scf accuracy    <       0.00000982 Ry

     total magnetization       =     8.00 Bohr mag/cell
     absolute magnetization    =     8.34 Bohr mag/cell

     iteration # 15     ecut=   100.00 Ry     beta= 0.70
     Davidson diagonalization with overlap
     ethr =  2.04E-09,  avg # of iterations =  3.5

     total cpu time spent up to now is     6821.4 secs

     total energy              =   -2022.92946537 Ry
     Harris-Foulkes estimate   =   -2022.92945971 Ry
     estimated scf accuracy    <       0.00000895 Ry

     total magnetization       =     8.00 Bohr mag/cell
     absolute magnetization    =     8.34 Bohr mag/cell

     iteration # 16     ecut=   100.00 Ry     beta= 0.70
     Davidson diagonalization with overlap
     ethr =  2.00E-09,  avg # of iterations =  4.0

     total cpu time spent up to now is     6986.2 secs

     total energy              =   -2022.92947193 Ry
     Harris-Foulkes estimate   =   -2022.92946634 Ry
     estimated scf accuracy    <       0.00000467 Ry

     total magnetization       =     8.00 Bohr mag/cell
     absolute magnetization    =     8.34 Bohr mag/cell

     iteration # 17     ecut=   100.00 Ry     beta= 0.70
     Davidson diagonalization with overlap
     ethr =  1.04E-09,  avg # of iterations =  4.0

     total cpu time spent up to now is     7160.2 secs

     total energy              =   -2022.92947794 Ry
     Harris-Foulkes estimate   =   -2022.92947272 Ry
     estimated scf accuracy    <       0.00000420 Ry

     total magnetization       =     8.00 Bohr mag/cell
     absolute magnetization    =     8.34 Bohr mag/cell

     iteration # 18     ecut=   100.00 Ry     beta= 0.70
     Davidson diagonalization with overlap
     ethr =  9.38E-10,  avg # of iterations =  4.5
 
     Magnetic moment per site:
     atom:    1    charge:    0.8626    magn:    0.0084    constr:    0.0000
     atom:    2    charge:    0.8637    magn:    0.0071    constr:    0.0000
     atom:    3    charge:    0.8609    magn:    0.0036    constr:    0.0000
     atom:    4    charge:    0.8600    magn:    0.0037    constr:    0.0000
     atom:    5    charge:    0.8626    magn:    0.0070    constr:    0.0000
     atom:    6    charge:    0.8656    magn:    0.0085    constr:    0.0000
     atom:    7    charge:    0.8639    magn:    0.0072    constr:    0.0000
     atom:    8    charge:    0.8628    magn:    0.0084    constr:    0.0000
     atom:    9    charge:    0.8483    magn:    0.0050    constr:    0.0000
     atom:   10    charge:    0.8258    magn:    0.0055    constr:    0.0000
     atom:   11    charge:    0.8264    magn:    0.0056    constr:    0.0000
     atom:   12    charge:    0.8472    magn:    0.0050    constr:    0.0000
     atom:   13    charge:    0.8492    magn:    0.0054    constr:    0.0000
     atom:   14    charge:    0.8346    magn:    0.0049    constr:    0.0000
     atom:   15    charge:    0.8357    magn:    0.0050    constr:    0.0000
     atom:   16    charge:    0.8483    magn:    0.0052    constr:    0.0000
     atom:   17    charge:    0.8633    magn:    0.0088    constr:    0.0000
     atom:   18    charge:    0.8628    magn:    0.0071    constr:    0.0000
     atom:   19    charge:    0.8620    magn:    0.0039    constr:    0.0000
     atom:   20    charge:    0.8601    magn:    0.0038    constr:    0.0000
     atom:   21    charge:    0.8437    magn:   -0.0022    constr:    0.0000
     atom:   22    charge:    0.8443    magn:   -0.0024    constr:    0.0000
     atom:   23    charge:    0.8339    magn:   -0.0026    constr:    0.0000
     atom:   24    charge:    0.8433    magn:   -0.0026    constr:    0.0000
     atom:   25    charge:    0.8632    magn:    0.0072    constr:    0.0000
     atom:   26    charge:    0.8629    magn:    0.0074    constr:    0.0000
     atom:   27    charge:    0.8605    magn:    0.0036    constr:    0.0000
     atom:   28    charge:    0.8594    magn:    0.0039    constr:    0.0000
     atom:   29    charge:    0.8630    magn:    0.0089    constr:    0.0000
     atom:   30    charge:    0.8648    magn:    0.0088    constr:    0.0000
     atom:   31    charge:    0.8647    magn:    0.0070    constr:    0.0000
     atom:   32    charge:    0.8634    magn:    0.0073    constr:    0.0000
     atom:   33    charge:    0.8476    magn:    0.0050    constr:    0.0000
     atom:   34    charge:    0.8468    magn:    0.0050    constr:    0.0000
     atom:   35    charge:    0.8472    magn:    0.0051    constr:    0.0000
     atom:   36    charge:    0.8479    magn:    0.0049    constr:    0.0000
     atom:   37    charge:    0.8357    magn:    0.0051    constr:    0.0000
     atom:   38    charge:    0.8358    magn:    0.0050    constr:    0.0000
     atom:   39    charge:    0.8343    magn:    0.0050    constr:    0.0000
     atom:   40    charge:    0.8347    magn:    0.0051    constr:    0.0000
     atom:   41    charge:    0.8641    magn:    0.0085    constr:    0.0000
     atom:   42    charge:    0.8627    magn:    0.0090    constr:    0.0000
     atom:   43    charge:    0.8622    magn:    0.0038    constr:    0.0000
     atom:   44    charge:    0.8600    magn:    0.0038    constr:    0.0000
     atom:   45    charge:    0.8442    magn:   -0.0022    constr:    0.0000
     atom:   46    charge:    0.8342    magn:   -0.0026    constr:    0.0000
     atom:   47    charge:    0.8422    magn:   -0.0024    constr:    0.0000
     atom:   48    charge:    0.8442    magn:   -0.0027    constr:    0.0000
     atom:   49    charge:    4.8258    magn:   -0.0001    constr:    0.0000
     atom:   50    charge:    4.7721    magn:    0.0055    constr:    0.0000
     atom:   51    charge:    4.7765    magn:    0.0047    constr:    0.0000
     atom:   52    charge:    4.8246    magn:   -0.0000    constr:    0.0000
     atom:   53    charge:    4.7645    magn:    0.0058    constr:    0.0000
     atom:   54    charge:    4.7653    magn:    0.0056    constr:    0.0000
     atom:   55    charge:    4.7837    magn:    0.0046    constr:    0.0000
     atom:   56    charge:    4.7744    magn:    0.0046    constr:    0.0000
     atom:   57    charge:    0.5149    magn:   -0.0012    constr:    0.0000
     atom:   58    charge:    0.5117    magn:   -0.0015    constr:    0.0000
     atom:   59    charge:    0.5119    magn:   -0.0012    constr:    0.0000
     atom:   60    charge:    0.5093    magn:   -0.0011    constr:    0.0000
     atom:   61    charge:    0.5110    magn:   -0.0015    constr:    0.0000
     atom:   62    charge:    0.5147    magn:   -0.0016    constr:    0.0000
     atom:   63    charge:    0.5039    magn:   -0.0008    constr:    0.0000
     atom:   64    charge:    0.5039    magn:   -0.0008    constr:    0.0000
     atom:   65    charge:    0.5038    magn:   -0.0008    constr:    0.0000
     atom:   66    charge:    0.5048    magn:   -0.0008    constr:    0.0000
     atom:   67    charge:    0.5037    magn:   -0.0008    constr:    0.0000
     atom:   68    charge:    0.5091    magn:   -0.0011    constr:    0.0000
     atom:   69    charge:    0.5097    magn:   -0.0015    constr:    0.0000
     atom:   70    charge:    0.5151    magn:   -0.0015    constr:    0.0000
     atom:   71    charge:    0.5141    magn:   -0.0015    constr:    0.0000
     atom:   72    charge:    0.5094    magn:   -0.0015    constr:    0.0000
     atom:   73    charge:    0.5094    magn:   -0.0011    constr:    0.0000
     atom:   74    charge:    0.5134    magn:   -0.0015    constr:    0.0000
     atom:   75    charge:    0.5146    magn:   -0.0012    constr:    0.0000
     atom:   76    charge:    0.5044    magn:   -0.0008    constr:    0.0000
     atom:   77    charge:    0.5039    magn:   -0.0008    constr:    0.0000
     atom:   78    charge:    0.5044    magn:   -0.0008    constr:    0.0000
     atom:   79    charge:    0.5092    magn:   -0.0011    constr:    0.0000
     atom:   80    charge:    0.5120    magn:   -0.0011    constr:    0.0000
     atom:   81    charge:    2.4926    magn:    0.0148    constr:    0.0000
     atom:   82    charge:    2.4952    magn:    0.0162    constr:    0.0000
     atom:   83    charge:    2.4987    magn:    0.0166    constr:    0.0000
     atom:   84    charge:    2.4911    magn:    0.0152    constr:    0.0000
     atom:   85    charge:    2.4949    magn:    0.0160    constr:    0.0000
     atom:   86    charge:    2.4964    magn:    0.0171    constr:    0.0000
     atom:   87    charge:    2.4974    magn:    0.0159    constr:    0.0000
     atom:   88    charge:    2.4928    magn:    0.0162    constr:    0.0000
     atom:   89    charge:    7.4573    magn:    1.1601    constr:    0.0000
     atom:   90    charge:    7.4569    magn:    1.1541    constr:    0.0000
     atom:   91    charge:    7.4537    magn:    1.1816    constr:    0.0000
     atom:   92    charge:    7.4532    magn:    1.1724    constr:    0.0000
     atom:   93    charge:    3.3038    magn:    0.0622    constr:    0.0000
     atom:   94    charge:    3.3031    magn:    0.0669    constr:    0.0000
     atom:   95    charge:    3.3013    magn:    0.0641    constr:    0.0000
     atom:   96    charge:    3.2963    magn:    0.0651    constr:    0.0000
     atom:   97    charge:    3.3009    magn:    0.0677    constr:    0.0000
     atom:   98    charge:    3.3033    magn:    0.0680    constr:    0.0000
     atom:   99    charge:    3.3062    magn:    0.0669    constr:    0.0000
     atom:  100    charge:    3.3018    magn:    0.0681    constr:    0.0000
     atom:  101    charge:    3.3031    magn:    0.0641    constr:    0.0000
     atom:  102    charge:    3.3016    magn:    0.0679    constr:    0.0000
     atom:  103    charge:    3.2997    magn:    0.0650    constr:    0.0000
     atom:  104    charge:    3.3022    magn:    0.0622    constr:    0.0000
     atom:  105    charge:    3.3013    magn:    0.0631    constr:    0.0000
     atom:  106    charge:    3.3035    magn:    0.0692    constr:    0.0000
     atom:  107    charge:    3.3061    magn:    0.0657    constr:    0.0000
     atom:  108    charge:    3.3012    magn:    0.0636    constr:    0.0000

     total cpu time spent up to now is     7334.6 secs

     End of self-consistent calculation

 ------ SPIN UP ------------


          k = 0.0000 0.0000 0.0000 ( 91663 PWs)   bands (ev):

   -26.7458 -26.7171 -26.6420 -26.6332 -26.4782 -26.4582 -26.1589 -26.1586
   -22.4316 -22.4152 -22.4088 -22.3149 -22.2746 -22.2672 -22.0072 -21.9990
   -19.3211 -19.3107 -19.2910 -19.2704 -19.2673 -19.2636 -19.1969 -19.1968
   -18.9523 -18.9452 -18.9280 -18.9272 -18.8735 -18.8601 -18.8373 -18.8211
   -15.5457 -15.5032 -15.4924 -15.4716 -15.4633 -15.4588 -15.4465 -15.4295
   -14.1578 -14.1385 -14.1336 -14.1151 -14.1002 -14.0965 -14.0906 -14.0704
   -12.0216 -11.9510 -11.9377 -11.8858 -11.8657 -11.8524 -11.8502 -11.8234
   -11.3023 -11.2388 -11.2254 -11.2150 -11.1910 -11.1776 -11.1390 -11.1371
    -9.9193  -9.8193  -9.7206  -9.7145  -9.6639  -9.6254  -9.5950  -9.5685
    -8.3949  -8.3592  -8.3242  -8.2712  -8.2446  -8.1927  -8.1472  -8.1229
    -8.1148  -8.0925  -8.0758  -8.0594  -8.0498  -8.0101  -7.9938  -7.8525
    -7.8106  -7.6691  -7.6346  -7.6065  -7.5692  -7.5320  -7.4716  -7.4131
    -7.4092  -7.3059  -7.2806  -7.2773  -7.2222  -7.1496  -7.0931  -7.0201
    -6.6975  -6.6893  -6.6714  -6.6627  -6.6094  -6.5646  -6.5544  -6.5499
    -6.5421  -6.5313  -6.5092  -6.4995  -6.4863  -6.4183  -6.4030  -6.3798
    -6.3203  -6.2621  -6.2430  -6.2232  -6.1358  -6.1163  -6.0681  -6.0215
    -5.9771  -5.9460  -5.9378  -5.9102  -5.8487  -5.8166  -5.7437  -5.7318
    -5.0423  -5.0054  -4.9526  -4.9382  -4.9273  -4.8953  -4.8796  -4.8646
    -4.8439  -4.8163  -4.8070  -4.7917  -4.7662  -4.7578  -4.7183  -4.7121
    -4.7077  -4.6888  -4.6059  -4.5708  -4.5418  -4.5321  -4.4727  -4.4352
    -4.3547  -4.3267  -4.2758  -4.2672  -4.0402  -3.9483  -3.8878  -3.8186
    -3.7773  -3.6716  -3.6456  -3.4444  -3.4359  -3.3505  -3.2410  -3.2294
    -3.1911  -3.1548  -3.1516  -3.1372  -3.0585  -3.0228  -3.0091  -2.9805
    -2.8809  -2.8709  -2.7908  -2.5839  -2.5157  -2.4599  -2.4447  -2.4257
    -2.3869  -2.3235  -2.2656  -2.2526  -2.2421  -2.2208  -2.2043  -2.1800
    -2.1060  -2.0933  -2.0913  -2.0818  -2.0539  -2.0468  -2.0376  -2.0320
    -1.8747  -1.8271  -1.7763  -1.7213  -1.6749  -1.6165  -1.5942  -1.5732
    -1.5298  -1.5204  -1.5080  -1.4433  -0.2308  -0.1741  -0.1686  -0.1172
    -0.0441  -0.0180   0.0097   0.0400   1.8537   1.9068   1.9082   1.9353
     1.9586   1.9627   1.9841   2.0678   2.6967   3.1109   3.1371   3.1555
     3.1992   3.2034   3.2606   3.3236   3.4098   3.4235   3.5268   3.5535
     4.1522   4.2527   4.3692   4.4464   4.4662   4.6049   4.6303   4.6512
     4.7400   4.7630   4.7993   4.8150   4.8216   4.8752   4.9439   5.0325
     5.1989   5.3188   5.3561   5.7288   5.8837   5.8979   6.0095   6.0472
     6.1083   6.1250

 ------ SPIN DOWN ----------


          k = 0.0000 0.0000 0.0000 ( 91663 PWs)   bands (ev):

   -26.7368 -26.7070 -26.6323 -26.6228 -26.4695 -26.4478 -26.1585 -26.1584
   -22.3193 -22.3017 -22.2937 -22.1974 -22.1621 -22.1518 -21.8987 -21.8912
   -19.1733 -19.1607 -19.1386 -19.1186 -19.1145 -19.1093 -19.0526 -19.0520
   -18.9153 -18.9077 -18.8909 -18.8893 -18.8368 -18.8233 -18.7999 -18.7837
   -15.5063 -15.4637 -15.4530 -15.4321 -15.4235 -15.4198 -15.4062 -15.3889
   -14.1155 -14.0959 -14.0909 -14.0722 -14.0571 -14.0534 -14.0473 -14.0270
   -11.9845 -11.9140 -11.9005 -11.8496 -11.8305 -11.8171 -11.8141 -11.7873
   -11.2741 -11.2099 -11.1976 -11.1872 -11.1635 -11.1511 -11.1126 -11.1083
    -9.8981  -9.7994  -9.7017  -9.6939  -9.6446  -9.6079  -9.5779  -9.5534
    -8.3603  -8.3209  -8.2834  -8.2427  -8.2039  -8.1704  -8.1233  -8.1024
    -8.0898  -8.0729  -8.0568  -8.0377  -8.0239  -7.9795  -7.9658  -7.8325
    -7.7725  -7.6208  -7.5863  -7.5608  -7.5245  -7.4864  -7.4334  -7.3700
    -7.3596  -7.2542  -7.2355  -7.2298  -7.1695  -7.0956  -7.0371  -6.9620
    -6.6352  -6.6220  -6.5977  -6.5861  -6.5207  -6.4808  -6.4665  -6.4581
    -6.4518  -6.4304  -6.4189  -6.3919  -6.3793  -6.3208  -6.2968  -6.2760
    -6.2565  -6.1930  -6.1638  -6.1429  -6.0657  -6.0330  -5.9732  -5.9104
    -5.8998  -5.8458  -5.8303  -5.7878  -5.7580  -5.7159  -5.6438  -5.6326
    -4.9686  -4.9630  -4.8900  -4.8855  -4.8662  -4.8471  -4.8295  -4.8082
    -4.7615  -4.7517  -4.7436  -4.7197  -4.6816  -4.6756  -4.6488  -4.6377
[...]
     atom   10 type  1   force =     0.00058987   -0.00041446   -0.00060919
     atom   11 type  1   force =    -0.00024192   -0.00018964   -0.00028736
     atom   12 type  1   force =     0.00011005   -0.00110912   -0.00133952
     atom   13 type  1   force =    -0.00103143    0.00064719    0.00068619
     atom   14 type  1   force =     0.00048021    0.00141166    0.00268497
     atom   15 type  1   force =     0.00012672    0.00058859   -0.00103742
     atom   16 type  1   force =    -0.00111983   -0.00086352    0.00156067
     atom   17 type  1   force =    -0.00210329   -0.00113910    0.00002432
     atom   18 type  1   force =    -0.00164471   -0.00050663   -0.00061467
     atom   19 type  1   force =     0.00080763    0.00011339    0.00072606
     atom   20 type  1   force =    -0.00004935    0.00007985   -0.00033846
     atom   21 type  1   force =    -0.00136680   -0.00008637    0.00080741
     atom   22 type  1   force =    -0.00120647   -0.00086651   -0.00021467
     atom   23 type  1   force =    -0.00106256   -0.00022983   -0.00086650
     atom   24 type  1   force =     0.00019058   -0.00100083   -0.00127893
     atom   25 type  1   force =     0.00065319   -0.00228873    0.00066263
     atom   26 type  1   force =    -0.00038918   -0.00001667   -0.00108129
     atom   27 type  1   force =    -0.00038843   -0.00058379   -0.00025834
     atom   28 type  1   force =    -0.00073821    0.00010115   -0.00028880
     atom   29 type  1   force =     0.00066898   -0.00084120   -0.00050739
     atom   30 type  1   force =    -0.00110515   -0.00076366   -0.00072219
     atom   31 type  1   force =    -0.00139377   -0.00011238    0.00047469
     atom   32 type  1   force =     0.00110554   -0.00019108    0.00025686
     atom   33 type  1   force =    -0.00098319   -0.00143219   -0.00143858
     atom   34 type  1   force =     0.00017481   -0.00155974    0.00126451
     atom   35 type  1   force =    -0.00090393    0.00229414    0.00111607
     atom   36 type  1   force =    -0.00055454   -0.00088960   -0.00048847
     atom   37 type  1   force =     0.00040809    0.00041110   -0.00042316
     atom   38 type  1   force =     0.00162833    0.00060714    0.00091450
     atom   39 type  1   force =     0.00236269   -0.00233237    0.00043190
     atom   40 type  1   force =    -0.00131750   -0.00034158   -0.00148567
     atom   41 type  1   force =     0.00110476    0.00108333   -0.00173905
     atom   42 type  1   force =    -0.00035336    0.00020736   -0.00138351
     atom   43 type  1   force =    -0.00092288    0.00048336    0.00052473
     atom   44 type  1   force =     0.00166424    0.00104303   -0.00022957
     atom   45 type  1   force =     0.00004842    0.00030272    0.00198505
     atom   46 type  1   force =     0.00073213    0.00040835    0.00099967
     atom   47 type  1   force =     0.00157363    0.00038900    0.00100891
     atom   48 type  1   force =     0.00109987    0.00042375   -0.00047119
     atom   49 type  2   force =    -0.00002791   -0.00002813   -0.00134933
     atom   50 type  2   force =    -0.00004836    0.00064114   -0.00119832
     atom   51 type  2   force =     0.00060583   -0.00062201   -0.00253273
     atom   52 type  2   force =    -0.00080575   -0.00255979   -0.00004758
     atom   53 type  2   force =    -0.00245044    0.00240203    0.00075138
     atom   54 type  2   force =     0.00270472    0.00146664   -0.00286433
     atom   55 type  2   force =     0.00318921   -0.00031590   -0.00113692
     atom   56 type  2   force =     0.00093659    0.00079873    0.00041149
     atom   57 type  3   force =    -0.00066406    0.00123074   -0.00214956
     atom   58 type  3   force =    -0.00027157    0.00018934    0.00027363
     atom   59 type  3   force =    -0.00021033    0.00049469   -0.00108833
     atom   60 type  3   force =    -0.00024567    0.00024810    0.00035947
     atom   61 type  3   force =    -0.00014477    0.00009581    0.00155040
     atom   62 type  3   force =    -0.00142101    0.00121228   -0.00042714
     atom   63 type  3   force =    -0.00050644    0.00099053    0.00101733
     atom   64 type  3   force =    -0.00019502    0.00223722   -0.00104487
     atom   65 type  3   force =    -0.00014991   -0.00006297    0.00040368
     atom   66 type  3   force =     0.00040340   -0.00012320   -0.00017136
     atom   67 type  3   force =    -0.00050164    0.00020508    0.00012597
     atom   68 type  3   force =     0.00050805   -0.00009061   -0.00038295
     atom   69 type  3   force =    -0.00085946    0.00004931    0.00071873
     atom   70 type  3   force =    -0.00031983   -0.00015441    0.00098547
     atom   71 type  3   force =    -0.00011929   -0.00085080   -0.00030588
     atom   72 type  3   force =    -0.00065653   -0.00022125    0.00051341
     atom   73 type  3   force =    -0.00097878    0.00127065   -0.00084097
     atom   74 type  3   force =    -0.00039054    0.00061686    0.00139121
     atom   75 type  3   force =     0.00137620    0.00023377   -0.00119929
     atom   76 type  3   force =    -0.00202597   -0.00028267    0.00058518
     atom   77 type  3   force =     0.00039917   -0.00148381   -0.00018843
     atom   78 type  3   force =     0.00032629    0.00073850   -0.00107617
     atom   79 type  3   force =    -0.00012222   -0.00119544   -0.00230467
     atom   80 type  3   force =     0.00036602   -0.00085636    0.00126340
     atom   81 type  4   force =     0.00031081    0.00005085    0.00067101
     atom   82 type  4   force =    -0.00038066   -0.00003363   -0.00002296
     atom   83 type  4   force =     0.00060245   -0.00079079    0.00101396
     atom   84 type  4   force =     0.00120290   -0.00012126    0.00094434
     atom   85 type  4   force =     0.00033614    0.00057663    0.00001683
     atom   86 type  4   force =     0.00063028   -0.00058255   -0.00049200
     atom   87 type  4   force =     0.00024246   -0.00012498   -0.00183641
     atom   88 type  4   force =    -0.00183889   -0.00109137    0.00159108
     atom   89 type  5   force =    -0.00031482    0.00043732    0.00217361
     atom   90 type  5   force =    -0.00055138    0.00060616   -0.00120429
     atom   91 type  5   force =     0.00028880   -0.00057445    0.00065524
     atom   92 type  5   force =    -0.00073426   -0.00098970   -0.00006686
     atom   93 type  6   force =    -0.00258392    0.00102871    0.00103100
     atom   94 type  6   force =     0.00116954   -0.00008397    0.00044060
     atom   95 type  6   force =    -0.00006192   -0.00007411   -0.00067981
     atom   96 type  6   force =     0.00079410   -0.00119738   -0.00041258
     atom   97 type  6   force =     0.00020774    0.00078258   -0.00019790
     atom   98 type  6   force =    -0.00048079   -0.00212381    0.00060019
     atom   99 type  6   force =    -0.00062376    0.00124446   -0.00109372
     atom  100 type  6   force =    -0.00137570   -0.00017921    0.00060730
     atom  101 type  6   force =     0.00051361    0.00167796    0.00137666
     atom  102 type  6   force =     0.00151787   -0.00075867    0.00089285
     atom  103 type  6   force =     0.00094233    0.00057869    0.00164828
     atom  104 type  6   force =     0.00071492    0.00145537    0.00094246
     atom  105 type  6   force =     0.00168622   -0.00154315    0.00051670
     atom  106 type  6   force =    -0.00118010   -0.00065695    0.00250788
     atom  107 type  6   force =     0.00015213   -0.00057314   -0.00050862
     atom  108 type  6   force =     0.00053505    0.00039000    0.00202101

     Total force =     0.018388     Total SCF correction =     0.000296

     number of scf cycles    =  87
     number of bfgs steps    =  86

     energy   old            =   -2023.1126868321 Ry
     energy   new            =   -2023.1129497791 Ry

     CASE: energy  _new < energy  _old

     new trust radius        =       0.0257248030 bohr
     new conv_thr            =       0.0000000263 Ry


ATOMIC_POSITIONS (crystal)
C             0.3141703083        0.9670902046        0.5231964088
C             0.0576330063        0.0460971305        0.0086887158
C             0.4180348403        0.0013698575        0.5536059551
C             0.1592147644        1.0035479210        0.0389713757
C             0.4762379762        0.9530018121        0.6552018721
C             0.2149329412        0.0388336843        0.1497306550
C             0.2161536468        0.5210332468        0.5322419627
C             0.4331522355        0.4765926619        0.0399496470
C             0.2546120608        0.6027973236        0.6135498844
C             0.4767195977        0.3908940117        0.1109326420
C             0.2717521054        0.8853605392        0.5990747027
C             0.0129479244        0.1206364638        0.0931623747
C             0.4265956438        0.8720990434        0.7267409502
C             0.1641129793        0.1156776869        0.2263007849
C             0.0878914007        0.6242019245        0.7038741044
C             0.3217864319        0.3669210822        0.2275587457
C             0.0424748273        0.5414773621        0.6297457580
C             0.2707610670        0.4507474744        0.1599066402
C             0.1091178610        0.4892970725        0.5433779552
C             0.3279674651        0.5059000337        0.0659356331
C             0.4620343733        0.0911427537        0.4801335557
C             0.2033463563        0.9173804245        0.9591650345
C             0.0665258972        0.4000494359        0.4665339155
C             0.2796114972        0.5957438072        0.9926976514
C             0.8095053878        0.9621710427        0.5191487516
C             0.5371306601        0.0279242309        0.0231467422
C             0.9102030920        0.0034027220        0.5550683756
C             0.6422301906        0.9916130993        0.0449633592
C             0.9640783256        0.9670380273        0.6664080326
C             0.7067727296        0.0372704182        0.1424256265
C             0.6894434041        0.5403106190        0.5182945169
C             0.9413212381        0.4644584860        0.0186321954
C             0.7304531369        0.6211395430        0.5990034413
C             0.9840876065        0.3830482475        0.0975032006
C             0.7651730334        0.8832673155        0.5976788429
C             0.4978726569        0.1086013468        0.1033844706
C             0.9116329218        0.8900432344        0.7409743051
C             0.6600082053        0.1179743739        0.2167436906
C             0.5776721441        0.6189548527        0.7227269330
C             0.8381104559        0.3908173481        0.2327402609
C             0.5314665370        0.5352342853        0.6506181963
C             0.7875453090        0.4711568156        0.1585139214
C             0.5889285852        0.4966448488        0.5460685173
C             0.8415664213        0.5078394401        0.0502576857
C             0.9562626177        0.0897008448        0.4781874691
C             0.6842587254        0.9035604914        0.9677259120
C             0.5459342509        0.4078304108        0.4682749041
C             0.7959316406        0.5953329671        0.9720479871
F             0.1729119162        0.8524427667        0.5740102230
F             0.2105566792        0.1517756668        0.3330751953
F             0.0291668985        0.6795152916        0.7827510395
F             0.5755599135        0.3596267493        0.0879073853
F             0.9520376498        0.8583676520        0.8525488496
F             0.7136114190        0.1652356325        0.3107641576
F             0.5265967937        0.6596552471        0.8212135643
F             0.7957493717        0.3549797321        0.3390966362
H             0.2650659595        1.0023452975        0.4483093036
H             0.4861101736       -0.0063573666        0.9490496290
H             0.0413543332        0.9953680767        0.6974550109
H             0.2922898667        1.0088852314        0.1790696711
H             0.2689206009        0.4826057406        0.4658204526
H            -0.0142172019        0.4931508259        0.9377421966
H             0.3362145893        0.6294874073        0.6111426187
H             0.0599808499        0.3464641572        0.0786283390
H             0.4177698589        0.1390543605        0.0924683350
H             0.4656617010        0.8350206555        0.8083752533
H             0.2829731286        0.3238195247        0.3028958298
H             0.4555520896        0.5032386699        0.6781772403
H             0.1903516982        0.4716713402        0.1828034500
H             0.7661567061        0.9911137353        0.4352593500
H             1.0127286868        0.0211496523        0.9247351957
H             0.5559206481        0.9774675754        0.6814497823
H             0.7875756269        1.0123003795        0.1637423947
H             0.7358028247        0.5110595067        0.4396645598
H             0.4813028922        0.5172800553        0.9706456864
H             0.8086391199        0.6547930143        0.5855098402
H             0.6874933571        0.8498932689        0.5766773340
H             0.9337052846        0.1521321286        0.0770562746
H             0.9599461342        0.5210952670        0.6429515392
H             0.7110905156        0.5015033699        0.1860616911
N             0.3259870384        0.8392531854        0.6992148050
N             0.0661379651        0.1556902987        0.2004021705
N             0.1915786131        0.6519148551        0.6999160722
N             0.4232532890        0.3380436428        0.2037087103
N             0.8160108036        0.8473838481        0.7064705627
N             0.5585146295        0.1512524595        0.1999671639
N             0.6747803437        0.6604275863        0.6996955284
N             0.9326771959        0.3465846904        0.2026846184
Ni            0.2475974730        0.7539495409        0.8361122805
Ni            0.5028441579        0.2476407383        0.3399912570
Ni            0.7463008845        0.7528278896        0.8367147913
Ni            0.9980276925        0.2475493344        0.3393583389
O             0.1182413325        0.3584995493        0.3720988035
O             0.3398881909        0.6436472199        0.9085236181
O             0.4037020142        0.1335048997        0.3872688434
O             0.1533497386        0.8846665491        0.8552899005
O             0.4587132585        0.3588690339        0.4924175487
O             0.1848852990        0.6284175142        1.0040317031
O             0.0445861590        0.1348865084        0.5063222273
O             0.2897010703        0.8665051935        0.9884173663
O             0.5976866766        0.3724633709        0.3696401064
O             0.8479386881        0.6335751961        0.8749497490
O             0.9035122693        0.1257577216        0.3770823432
O             0.6324583972        0.8656271689        0.8679003845
O             0.9750247791        0.3584886206        0.4890805654
O             0.7065435451        0.6399597916        0.9942347957
O             0.5532677301        0.1332325600        0.5003349757
O             0.7739931967        0.8588204516        0.9945364781



     Writing output data file /nfs/hpc/share/gantzlen/NiPyC2_relax_sc211_ortho_functionalized_F_vdw-df2_relax.save/
     NEW-OLD atomic charge density approx. for the potential

     Check: negative core charge=   -0.000145

     total cpu time spent up to now is   237767.2 secs

     Self-consistent Calculation

     iteration #  1     ecut=   100.00 Ry     beta= 0.70
     Davidson diagonalization with overlap
     ethr =  1.00E-06,  avg # of iterations =  4.0

     total cpu time spent up to now is   238164.8 secs

     total energy              =   -2023.11316656 Ry
     Harris-Foulkes estimate   =   -2023.11324786 Ry
     estimated scf accuracy    <       0.00102790 Ry

     total magnetization       =     8.00 Bohr mag/cell
     absolute magnetization    =     8.32 Bohr mag/cell

     iteration #  2     ecut=   100.00 Ry     beta= 0.70
     Davidson diagonalization with overlap
     ethr =  2.29E-07,  avg # of iterations =  3.0

     total cpu time spent up to now is   238316.8 secs

     total energy              =   -2023.11319976 Ry
     Harris-Foulkes estimate   =   -2023.11326132 Ry
     estimated scf accuracy    <       0.00031686 Ry

     total magnetization       =     8.00 Bohr mag/cell
     absolute magnetization    =     8.32 Bohr mag/cell

     iteration #  3     ecut=   100.00 Ry     beta= 0.70
     Davidson diagonalization with overlap
     ethr =  7.07E-08,  avg # of iterations =  3.0

     total cpu time spent up to now is   238475.3 secs

     total energy              =   -2023.11316144 Ry
     Harris-Foulkes estimate   =   -2023.11333526 Ry
     estimated scf accuracy    <       0.00235993 Ry

     total magnetization       =     8.00 Bohr mag/cell
     absolute magnetization    =     8.32 Bohr mag/cell

     iteration #  4     ecut=   100.00 Ry     beta= 0.70
     Davidson diagonalization with overlap
     ethr =  7.07E-08,  avg # of iterations =  2.0

     total cpu time spent up to now is   238623.1 secs

     total energy              =   -2023.11325059 Ry
     Harris-Foulkes estimate   =   -2023.11326210 Ry
     estimated scf accuracy    <       0.00008465 Ry

     total magnetization       =     8.00 Bohr mag/cell
     absolute magnetization    =     8.32 Bohr mag/cell

     iteration #  5     ecut=   100.00 Ry     beta= 0.70
     Davidson diagonalization with overlap
     ethr =  1.89E-08,  avg # of iterations =  2.0

     total cpu time spent up to now is   238770.7 secs

     total energy              =   -2023.11325522 Ry
     Harris-Foulkes estimate   =   -2023.11325739 Ry
     estimated scf accuracy    <       0.00001285 Ry

     total magnetization       =     8.00 Bohr mag/cell
     absolute magnetization    =     8.32 Bohr mag/cell

     iteration #  6     ecut=   100.00 Ry     beta= 0.70
     Davidson diagonalization with overlap
     ethr =  2.87E-09,  avg # of iterations =  3.0

     total cpu time spent up to now is   238923.3 secs

     total energy              =   -2023.11325623 Ry
     Harris-Foulkes estimate   =   -2023.11325740 Ry
     estimated scf accuracy    <       0.00000813 Ry

     total magnetization       =     8.00 Bohr mag/cell
     absolute magnetization    =     8.32 Bohr mag/cell

     iteration #  7     ecut=   100.00 Ry     beta= 0.70
     Davidson diagonalization with overlap
     ethr =  1.81E-09,  avg # of iterations =  2.5

     total cpu time spent up to now is   239073.6 secs

     total energy              =   -2023.11325655 Ry
     Harris-Foulkes estimate   =   -2023.11325693 Ry
     estimated scf accuracy    <       0.00000083 Ry

     total magnetization       =     8.00 Bohr mag/cell
     absolute magnetization    =     8.32 Bohr mag/cell

     iteration #  8     ecut=   100.00 Ry     beta= 0.70
     Davidson diagonalization with overlap
     ethr =  1.85E-10,  avg # of iterations =  3.5

     total cpu time spent up to now is   239268.2 secs

     total energy              =   -2023.11325656 Ry
     Harris-Foulkes estimate   =   -2023.11325682 Ry
     estimated scf accuracy    <       0.00000205 Ry

     total magnetization       =     8.00 Bohr mag/cell
     absolute magnetization    =     8.32 Bohr mag/cell

     iteration #  9     ecut=   100.00 Ry     beta= 0.70
     Davidson diagonalization with overlap
     ethr =  1.85E-10,  avg # of iterations =  2.5

     total cpu time spent up to now is   239418.9 secs

     total energy              =   -2023.11325654 Ry
     Harris-Foulkes estimate   =   -2023.11325666 Ry
     estimated scf accuracy    <       0.00000024 Ry

     total magnetization       =     8.00 Bohr mag/cell
     absolute magnetization    =     8.32 Bohr mag/cell

     iteration # 10     ecut=   100.00 Ry     beta= 0.70
     Davidson diagonalization with overlap
