LAMMPS (3 Mar 2020)
# generate simulation log file
log             log.NiPyC2_experiment_with_Kr append
