
# --------------------------------- Initialization -------------------------------------- #
units           real
atom_style      full
boundary        p p p

pair_style      lj/cut 14.000
bond_style      harmonic
angle_style     cosine/periodic
dihedral_style  harmonic
improper_style  fourier

special_bonds   lj/coul 0.0 0.0 1.0
#dielectric      1.0
pair_modify     tail yes mix arithmetic
box tilt        large
read_data       data.Pn_Ni-PyC-NH2_with_Kr
  triclinic box = (0 0 0) to (31.854 35.6358 28.3672) with tilt (0 0.013863 0)
  1 by 1 by 1 MPI processor grid
  reading atoms ...
  2233 atoms
  scanning bonds ...
  6 = max bonds/atom
  scanning angles ...
  15 = max angles/atom
  scanning dihedrals ...
  12 = max dihedrals/atom
  scanning impropers ...
  3 = max impropers/atom
  reading bonds ...
  2592 bonds
  reading angles ...
  4824 angles
  reading dihedrals ...
  5184 dihedrals
  reading impropers ...
  3456 impropers
  6 = max # of 1-2 neighbors
  9 = max # of 1-3 neighbors
  12 = max # of special neighbors
  special bonds CPU = 0.000713964 secs
  read_data CPU = 0.0179496 secs

#### Atom Groupings ####
group           kr       id   2233   # 63
1 atoms in group kr
group           fram     id   1:2232 # 1:62 64:2233
2232 atoms in group fram
#### END Atom Groupings ####

###
# Speed up Calculations by exluding framework-framework interactions
#   since we are keeping the framework rigid and stationary
#
# neigh_modify keyword values ...
# keyword = exclude
# values  = group group1-ID group2-ID
#
# group1-ID, group2-ID = exclude if one atom is in 1st group, other in 2nd
###
neigh_modify exclude group fram fram

# ----------------------------- Variables ---------------------- #
dump            Pn_Ni-PyC-NH2_with_Kr_xyzmov all xyz 1000 Pn_Ni-PyC-NH2_with_Kr_mov.xyz
dump_modify     Pn_Ni-PyC-NH2_with_Kr_xyzmov element Ni O C H N Kr
variable        dt         equal 1.00
variable        tdamp      equal 100*${dt}
variable        tdamp      equal 100*1
variable        eqtemp     equal 298.00

# ------------------------------ Equilibriation -------------------------------------------- #
# we do not need to perform equilibriation since we are using a rigid framework
# and the (single) adsorbate has already been inserted into the material via GCMC
# which already included an equilibriation phase.
#fix             1 1 langevin 298.00 298.00 ${tdamp} 1305871
#fix             2 1 nve
#fix             3 fram langevin 298.00 298.00 ${tdamp} 1500201
#fix             4 fram nve
#thermo          0
#run             200000
#unfix           1
#unfix           2
#unfix           3
#unfix           4

# --------------------- Production (data gathering) --------------------------------------- #
# A simple way to hold atoms stationary is to not include those atoms in your time integration.
#reset_timestep  0

fix             1 kr nvt temp ${eqtemp} ${eqtemp} ${tdamp}
fix             1 kr nvt temp 298 ${eqtemp} ${tdamp}
fix             1 kr nvt temp 298 298 ${tdamp}
fix             1 kr nvt temp 298 298 100
#fix             6 fram nvt temp 298.00 298.00 ${tdamp}


###
#  mean-squared disp of grp 1
#
# A vector of four quantities is calculated by this compute:
# The first 3 elements of the vector are the squared dx,dy,dz displacements, summed and averaged over atoms in the group.
# The fourth element is the total squared displacement, i.e. (dx*dx + dy*dy + dz*dz),
#  summed and averaged over atoms in the group.
#
# The slope of the MSD versus time is proportional to the diffusion coefficient.
# MSD values can be accumulated in a vector via the fix vector command,
#   and a line fit to the vector to compute its slope via the variable slope function,
#   and thus extract D.
#
# fix ID group-ID vector Nevery value1 value2 ...
#
# c_ID[I] = Ith component of global vector calculated by a compute with ID
# f_ID = global scalar calculated by a fix with ID
# v_name = value calculated by an equal-style variable with name
#
# variable name style args...
#
# The slope() function uses linear regression to fit a line to the set of points,
#   equally spaced by 1 in their x coordinate: (1,V1), (2,V2), …, (N,VN),
#   where the Vi are the values in the global vector of length N.
#   The returned value is the slope of the line.
#   If the line has a single point or is vertical, it returns 1.0e20.
###
compute         msd all msd com yes
#variable        twopoint equal c_msd[4]/6/(step*dt+1.0e-6) # scaled r_sqr(t)... not used? idk what this is for...
fix             2 kr vector 500 c_msd[4]
variable        fitslope equal slope(f_2)/6/(500*dt) # why dividing slope?

thermo_style    custom step v_eqtemp c_msd[4] v_fitslope # prints this info to log file



thermo          1000
run             1000000
Neighbor list info ...
  update every 1 steps, delay 10 steps, check yes
  max neighbors/atom: 2000, page size: 100000
  master list distance cutoff = 16
  ghost atom cutoff = 16
  binsize = 8, bins = 4 5 4
  1 neighbor lists, perpetual/occasional/extra = 1 0 0
  (1) pair lj/cut, perpetual
      attributes: half, newton on
      pair build: half/bin/newton/tri
      stencil: half/bin/3d/newton/tri
      bin: standard
WARNING: Inconsistent image flags (src/domain.cpp:785)
Per MPI rank memory allocation (min/avg/max) = 34.26 | 34.26 | 34.26 Mbytes
Step v_eqtemp c_msd[4] v_fitslope 
       0          298 1.8824207e-29 3.3333333e+16 
    1000          298 0.00051407005 8.5678341e-08 
    2000          298 0.00012376323 1.1857949e-08 
    3000          298 0.00027999222 1.397986e-08 
    4000          298 3.1661652e-05 -1.2078385e-09 
    5000          298 0.00052268669 5.9731404e-09 
    6000          298 0.00087381002 1.5024356e-08 
    7000          298 0.00022822688 1.094299e-08 
    8000          298 0.00026856404 6.0745514e-09 
    9000          298 0.00028049464 4.3271907e-09 
   10000          298 0.00039868479 3.4079089e-09 
   11000          298 0.00020996186 3.1817665e-09 
   12000          298 0.0002712511 1.9509451e-09 
   13000          298 0.00068505444 2.8508439e-09 
   14000          298 0.00054962157 4.1557397e-09 
   15000          298 0.00035902135 3.1011311e-09 
   16000          298 0.00022177291 2.2740376e-09 
   17000          298 0.0004391546 1.7967324e-09 
   18000          298 0.00016938217 9.2429654e-10 
   19000          298 0.0003817246 7.0478656e-10 
   20000          298  0.000273293 5.8689611e-10 
   21000          298 0.00038732995 5.3193026e-10 
   22000          298 0.0005298155 6.9086359e-10 
   23000          298 0.0015155437 2.0798516e-09 
   24000          298 0.0019773471 4.2664026e-09 
   25000          298 0.0017815691 5.8033453e-09 
   26000          298  0.001766668 6.8181909e-09 
   27000          298 0.0018875015 7.8708207e-09 
   28000          298 0.0011542099 7.7818825e-09 
   29000          298 0.0020971503 8.3335869e-09 
   30000          298 0.0016676022 8.8928722e-09 
   31000          298 0.0012405477 8.6346383e-09 
   32000          298 0.00059069698 7.842397e-09 
   33000          298 0.00076911563 7.1209251e-09 
   34000          298 0.0011101399 6.8278086e-09 
   35000          298 0.0023384815 7.1923384e-09 
   36000          298 0.0011857238 7.2222434e-09 
   37000          298 0.00078617735 6.6721481e-09 
   38000          298 0.0004587204 6.0293652e-09 
   39000          298 0.0002782553 5.2892567e-09 
   40000          298 0.00038297792 4.673081e-09 
   41000          298 0.00046943289 4.1018051e-09 
   42000          298 0.00038955337 3.6492791e-09 
   43000          298 0.00046098115 3.2425076e-09 
   44000          298 0.00041119228 2.9236573e-09 
   45000          298 0.00036541119 2.503146e-09 
   46000          298 0.00024384262 2.1480057e-09 
   47000          298 0.00027002767 1.8144097e-09 
   48000          298 0.00040280258 1.5581445e-09 
   49000          298 0.00030349917 1.3355867e-09 
   50000          298 0.00058986418 1.1947764e-09 
   51000          298 0.0014889147 1.3104662e-09 
   52000          298 0.0018523438 1.6840848e-09 
   53000          298 0.0015128878 1.8574973e-09 
   54000          298 0.0012317008 1.9500867e-09 
   55000          298 0.0021289904 2.1819329e-09 
   56000          298 0.0012845072 2.3646762e-09 
   57000          298 0.0010090862 2.2982269e-09 
   58000          298 0.0014559028 2.3765178e-09 
   59000          298 0.0020909865 2.561092e-09 
   60000          298 0.0012028054 2.6391482e-09 
   61000          298 0.00088637001 2.5388741e-09 
   62000          298 0.00067868836 2.3836208e-09 
   63000          298 0.0010843978 2.3092843e-09 
   64000          298 0.0016424965 2.3988304e-09 
   65000          298 0.0017931093 2.4939987e-09 
   66000          298 0.0016390448 2.5666611e-09 
   67000          298 0.0019331736 2.6601019e-09 
   68000          298  0.002518901 2.8696309e-09 
   69000          298 0.0019079011 2.9887214e-09 
   70000          298 0.0016148589 2.9985023e-09 
   71000          298 0.0016711527 3.0161179e-09 
   72000          298 0.0015371795 3.0169737e-09 
   73000          298 0.0016135993 3.0184933e-09 
   74000          298 0.00063547508 2.8655068e-09 
   75000          298 0.0007058532 2.7045525e-09 
   76000          298 0.0001416096 2.4845596e-09 
   77000          298 0.0003381045 2.2895876e-09 
   78000          298 0.00029212192 2.0940543e-09 
   79000          298 0.0005542549 1.9522144e-09 
   80000          298 8.7366743e-05 1.7662776e-09 
   81000          298 0.00040264435 1.6255408e-09 
   82000          298 0.00010821721 1.4645033e-09 
   83000          298 0.00034607773 1.3188814e-09 
   84000          298 0.00081366689 1.2369145e-09 
   85000          298 0.00057945655 1.1669584e-09 
   86000          298 9.0046042e-05 1.0236258e-09 
   87000          298 0.00012501232 8.8917552e-10 
   88000          298 0.00021529467 7.9406301e-10 
   89000          298 0.00030692455 6.8518119e-10 
   90000          298 0.00022792468 6.0860688e-10 
   91000          298 0.0003775604 5.1557425e-10 
   92000          298 0.0001941746 4.3468382e-10 
   93000          298 0.00015715966 3.397906e-10 
   94000          298 0.00047492932 2.835655e-10 
   95000          298 0.00079125666 2.7433954e-10 
   96000          298 0.00012307598 2.123337e-10 
   97000          298 0.00010422714 1.3207124e-10 
   98000          298 0.00047427426 7.6865306e-11 
   99000          298 9.0502946e-05 8.6480263e-12 
  100000          298 0.00058915128 -2.3906245e-11 
  101000          298 5.5757745e-05 -8.5912921e-11 
  102000          298 0.00034037467 -1.2389912e-10 
  103000          298 0.00017002173 -1.7333506e-10 
  104000          298 0.00045990811 -2.1140179e-10 
  105000          298 0.00014947731 -2.6247284e-10 
  106000          298 0.00038116863 -2.91507e-10 
  107000          298 0.00033817762 -3.2751366e-10 
  108000          298 0.00013010398 -3.5685158e-10 
  109000          298 0.00044730855 -3.8725198e-10 
  110000          298 0.00022884274 -4.189181e-10 
  111000          298 0.00035909658 -4.4086131e-10 
  112000          298 0.00023736666 -4.7526674e-10 
  113000          298 0.00054971537 -4.8210436e-10 
  114000          298 0.00072181175 -4.7340097e-10 
  115000          298 0.00013252609 -4.9986748e-10 
  116000          298 0.00036945668 -5.1963034e-10 
  117000          298 0.00039338793 -5.3608523e-10 
  118000          298 0.00032479813 -5.5711132e-10 
  119000          298 0.00034332002 -5.6783515e-10 
  120000          298 0.00044281568 -5.7898408e-10 
  121000          298 0.00040887873 -5.7529543e-10 
  122000          298 8.0080485e-05 -6.0200926e-10 
  123000          298 0.00073124533 -6.0362256e-10 
  124000          298 0.0011588705 -5.6200641e-10 
  125000          298 0.00026904953 -5.6224296e-10 
  126000          298 0.00011347742 -5.8539487e-10 
  127000          298 0.00047647595 -5.9294382e-10 
  128000          298 0.0001190007 -6.0289813e-10 
  129000          298 0.00057448418 -6.0437176e-10 
  130000          298 0.00025477158 -6.0939585e-10 
  131000          298 0.00019196384 -6.2731107e-10 
  132000          298 0.00030595544 -6.2776104e-10 
  133000          298 0.00020217628 -6.3873251e-10 
  134000          298 0.00034268104 -6.470504e-10 
  135000          298 0.00051263402 -6.4885073e-10 
  136000          298 0.00029869188 -6.5534851e-10 
  137000          298 0.00038894452 -6.6163336e-10 
  138000          298 0.00036308939 -6.6269341e-10 
  139000          298 6.2981439e-05 -6.6788163e-10 
  140000          298 0.00012691915 -6.8224886e-10 
  141000          298 7.9927498e-05 -6.9568568e-10 
  142000          298 0.00043981927 -6.9490619e-10 
  143000          298 0.00047317002 -6.9069037e-10 
  144000          298 0.00031518467 -6.9590874e-10 
  145000          298 0.00053979141 -6.9407589e-10 
  146000          298 0.00056588134 -6.8521063e-10 
  147000          298 3.530236e-05 -6.9253036e-10 
  148000          298 0.0001019681 -7.043072e-10 
  149000          298 0.00048023351 -7.0331144e-10 
  150000          298 0.00025323779 -7.0703448e-10 
  151000          298 0.00011914163 -7.078727e-10 
  152000          298 0.0001400429 -7.1758775e-10 
  153000          298 9.9082713e-05 -7.1777605e-10 
  154000          298 0.00025684424 -7.2354455e-10 
  155000          298 0.0001742002 -7.2313512e-10 
  156000          298  0.000517882 -7.1868179e-10 
  157000          298 5.6353463e-06 -7.2846181e-10 
  158000          298 0.00053611437 -7.2521869e-10 
  159000          298 0.00015158648 -7.2914607e-10 
  160000          298 0.0002469732 -7.2536377e-10 
  161000          298 1.8867001e-05 -7.3418888e-10 
  162000          298 0.00055746599 -7.3011173e-10 
  163000          298 0.0002207368 -7.3092788e-10 
  164000          298 0.00021778814 -7.265824e-10 
  165000          298 9.1019846e-05 -7.328076e-10 
  166000          298 0.00034170843 -7.2755773e-10 
  167000          298 0.00056245895 -7.1630748e-10 
  168000          298 0.00017597206 -7.1173906e-10 
  169000          298 0.00016254989 -7.1598229e-10 
  170000          298 0.00039611737 -7.127856e-10 
  171000          298 0.00024133921 -7.0920803e-10 
  172000          298 0.00036043971 -7.0418632e-10 
  173000          298 9.707264e-05 -7.071979e-10 
  174000          298 6.2153016e-05 -7.1273724e-10 
  175000          298 0.00044395972 -7.0439704e-10 
  176000          298 0.0005308814 -6.933018e-10 
  177000          298 0.00021423204 -6.9149374e-10 
  178000          298 0.00027283179 -6.9210805e-10 
  179000          298 0.00031791386 -6.8858881e-10 
  180000          298 0.00013471865 -6.8917911e-10 
  181000          298 0.00049440114 -6.8137737e-10 
  182000          298 0.00020047029 -6.7995274e-10 
  183000          298 0.00042049459 -6.7362945e-10 
  184000          298 0.00024549203 -6.734787e-10 
  185000          298 0.00054210256 -6.6506489e-10 
  186000          298 0.00011936946 -6.6570321e-10 
  187000          298 0.00046033162 -6.5847066e-10 
  188000          298 3.4698239e-05 -6.609874e-10 
  189000          298 0.00044186096 -6.5687439e-10 
  190000          298 0.0012692647 -6.3263526e-10 
  191000          298 0.00051071579 -6.1624209e-10 
  192000          298 0.00013476359 -6.1832839e-10 
  193000          298 0.00078710711 -6.1041071e-10 
  194000          298 0.0010231846 -5.8732262e-10 
  195000          298 0.00031189952 -5.8238105e-10 
  196000          298 0.00014754534 -5.8444381e-10 
  197000          298 0.00063144697 -5.7654601e-10 
  198000          298 0.00021237466 -5.7293834e-10 
  199000          298 0.00061146749 -5.6623886e-10 
  200000          298 0.0010505958 -5.4941348e-10 
  201000          298  0.001959764 -5.1048931e-10 
  202000          298 0.0013387449 -4.7766713e-10 
  203000          298 0.0013383967 -4.5427113e-10 
  204000          298  0.001868127 -4.2212657e-10 
  205000          298  0.001625029 -3.8839442e-10 
  206000          298 0.00084440839 -3.7254537e-10 
  207000          298 0.00067881437 -3.6402129e-10 
  208000          298  0.001048677 -3.5181069e-10 
  209000          298 0.0018833527 -3.236827e-10 
  210000          298 0.0017410846 -2.864661e-10 
  211000          298 0.0010767767 -2.7047788e-10 
  212000          298 0.0014439328 -2.4852285e-10 
  213000          298 0.0022619448 -2.1523461e-10 
  214000          298 0.0030209743 -1.6289014e-10 
  215000          298  0.001842304 -1.2627212e-10 
  216000          298 0.0013861833 -1.0862552e-10 
  217000          298 0.0014018484 -8.7962654e-11 
  218000          298 0.0020688643 -6.2648996e-11 
  219000          298 0.0021640764 -2.8392246e-11 
  220000          298 0.0020434082 3.6564627e-13 
  221000          298 0.0015106535 2.0403965e-11 
  222000          298 0.0014839783 3.5285852e-11 
  223000          298 0.0020206685 6.1079459e-11 
  224000          298  0.001017231 6.928654e-11 
  225000          298  0.001269999 7.7535834e-11 
  226000          298 0.0019950349 1.0265536e-10 
  227000          298 0.0013127989 1.1472874e-10 
  228000          298 0.0017393535 1.3059129e-10 
  229000          298 0.0020015268 1.5304802e-10 
  230000          298 0.0023921908 1.806799e-10 
  231000          298 0.0016447594 2.0056987e-10 
  232000          298 0.0015362251 2.1149263e-10 
  233000          298 0.00095116193 2.1822325e-10 
  234000          298 0.0010109178 2.1892782e-10 
  235000          298  0.001499953 2.3134915e-10 
  236000          298  0.001698881 2.4338508e-10 
  237000          298 0.0017191686 2.5907107e-10 
  238000          298 0.0013304772 2.6659316e-10 
  239000          298 0.0023583748 2.8586471e-10 
  240000          298 0.0024775741 3.144545e-10 
  241000          298 0.0018699378 3.3211642e-10 
  242000          298 0.0013932311 3.4037131e-10 
  243000          298 0.0014480404 3.4528388e-10 
  244000          298 0.0020000984 3.6250057e-10 
  245000          298 0.0015279237 3.721215e-10 
  246000          298 0.0020131518 3.8569474e-10 
  247000          298 0.0017764714 3.9989612e-10 
  248000          298 0.0011177526 4.0145718e-10 
  249000          298 0.0019879808 4.1133332e-10 
  250000          298 0.0014525085 4.2361262e-10 
  251000          298 0.0012326659 4.2437542e-10 
  252000          298  0.001548913 4.3072098e-10 
  253000          298  0.001969066 4.4390487e-10 
  254000          298 0.00079293936 4.4353269e-10 
  255000          298 0.00034126654 4.3266143e-10 
  256000          298 0.00038415649 4.2123364e-10 
  257000          298 0.00024240765 4.0923985e-10 
  258000          298 0.00010120751 3.9430739e-10 
  259000          298 0.00044647786 3.8514002e-10 
  260000          298 0.00013858504 3.7121438e-10 
  261000          298 0.00038844291 3.6093984e-10 
  262000          298 0.00046230332 3.5120891e-10 
  263000          298 0.00023399335 3.3972589e-10 
  264000          298 0.00035192434 3.2944259e-10 
  265000          298 0.00055701501 3.2205087e-10 
  266000          298 0.00030059288 3.1117799e-10 
  267000          298 0.00021220147 3.0177157e-10 
  268000          298 7.389103e-05 2.8918087e-10 
  269000          298 0.00036639021 2.781427e-10 
  270000          298 0.00011134612 2.677707e-10 
  271000          298 0.00039160181 2.5810937e-10 
  272000          298 0.00025036452 2.492074e-10 
  273000          298 0.00027839901 2.414415e-10 
  274000          298 3.3493699e-05 2.2928649e-10 
  275000          298 0.00027756102 2.1909091e-10 
  276000          298 0.0001664015  2.10765e-10 
  277000          298 0.00047428136 2.0366758e-10 
  278000          298 1.4934472e-05 1.9280191e-10 
  279000          298 0.00044206343 1.8468904e-10 
  280000          298 0.00063483176 1.7991679e-10 
  281000          298 0.00049536574 1.7594168e-10 
  282000          298 0.00012278886 1.6643818e-10 
  283000          298 0.00036336046 1.5928113e-10 
  284000          298 0.00025459993 1.5269128e-10 
  285000          298 0.00065301195 1.4886863e-10 
  286000          298 0.00012519555 1.3993775e-10 
  287000          298 0.00055821437 1.3437669e-10 
  288000          298 0.0006959374 1.3273682e-10 
  289000          298 0.00014127902 1.2433524e-10 
  290000          298 0.00062703243 1.1933598e-10 
  291000          298 0.0010299938 1.213989e-10 
  292000          298 0.00033906145 1.1680919e-10 
  293000          298 0.0001025744 1.094144e-10 
  294000          298 0.00076210012 1.0637071e-10 
  295000          298 0.00028369634 1.0153618e-10 
  296000          298 0.00042751331 9.6861723e-11 
  297000          298 0.00029104208 9.1571577e-11 
  298000          298 0.00036581501 8.6081387e-11 
  299000          298 0.00072238559 8.450406e-11 
  300000          298 0.00012035336 7.8192831e-11 
  301000          298 0.00036008858 7.3105361e-11 
  302000          298 0.0011306684 7.4584073e-11 
  303000          298 0.00051747061 7.4283032e-11 
  304000          298 0.00018708191 6.7685773e-11 
  305000          298 0.00083707322 6.4954218e-11 
  306000          298 0.0011902389 6.9454469e-11 
  307000          298 0.00029156572 6.6089102e-11 
  308000          298 0.00013678483 5.9296659e-11 
  309000          298 0.00063875341 5.6235753e-11 
  310000          298 0.00025484488 5.3019373e-11 
  311000          298 0.0003336366 4.7937606e-11 
  312000          298 0.00022155751 4.3145768e-11 
  313000          298 0.00020173473 3.8661451e-11 
  314000          298 0.00053723944 3.5386158e-11 
  315000          298 0.0011426732 3.7886057e-11 
  316000          298 0.0023983366 5.0696491e-11 
  317000          298 0.0012248887 5.8196379e-11 
  318000          298 0.00066909168 5.8944345e-11 
  319000          298 0.00021191173 5.4248175e-11 
  320000          298 0.00037905587 5.003724e-11 
  321000          298 0.00032882589 4.6002522e-11 
  322000          298 0.00018232634 4.0122703e-11 
  323000          298 0.00052659419 3.8198436e-11 
  324000          298 0.00043136049 3.4861086e-11 
  325000          298 2.9525462e-05 2.8599548e-11 
  326000          298 0.00052220531 2.4851505e-11 
  327000          298 2.2173265e-05 1.8497141e-11 
  328000          298 0.00044389527 1.534063e-11 
  329000          298 0.00019231437 9.9168064e-12 
  330000          298 0.00017681317 6.2601238e-12 
  331000          298 0.00021262944 8.9464609e-13 
  332000          298 0.0005895172 -8.9513622e-13 
  333000          298 0.00086162428 7.9742219e-13 
  334000          298 0.0002339503 -2.5079706e-12 
  335000          298 0.00034387459 -6.1026039e-12 
  336000          298 0.00021031769 -1.0025504e-11 
  337000          298 0.00027673242 -1.3400372e-11 
  338000          298 0.00013152701 -1.71902e-11 
  339000          298 0.00051452134 -2.0287478e-11 
  340000          298 0.00025442958 -2.2729143e-11 
  341000          298 0.00032594641 -2.5587522e-11 
  342000          298 0.00017141584 -3.0011358e-11 
  343000          298 0.00028649988 -3.2351608e-11 
  344000          298 0.00011827051 -3.7318309e-11 
  345000          298 0.00042151148 -3.9743117e-11 
  346000          298 0.00026012889 -4.3120391e-11 
  347000          298 0.0001638208 -4.5752912e-11 
  348000          298 4.4548474e-05 -5.0737053e-11 
  349000          298 0.0001869602 -5.3037441e-11 
  350000          298 0.00023932698 -5.7061578e-11 
  351000          298 0.00012958648 -5.9623575e-11 
  352000          298 0.00039897261 -6.2031627e-11 
  353000          298 3.8943175e-05 -6.5809405e-11 
  354000          298 0.0004026484 -6.8251251e-11 
  355000          298 0.00091853981 -6.6847431e-11 
  356000          298 0.00040421514 -6.6437545e-11 
  357000          298 0.00022471169 -6.96022e-11 
  358000          298 0.0002480849 -7.1949051e-11 
  359000          298 0.00021811729 -7.4561638e-11 
  360000          298 0.00037651938 -7.6700336e-11 
  361000          298 0.00019931144 -7.9265321e-11 
  362000          298 0.00083672838 -7.899855e-11 
  363000          298 0.00036918212 -7.9462422e-11 
  364000          298 0.00037626103 -8.1702377e-11 
  365000          298 0.00040969513 -8.3792906e-11 
  366000          298 0.00065720063 -8.2766914e-11 
  367000          298 0.00023503924 -8.4768583e-11 
  368000          298 0.0003120006 -8.6985343e-11 
  369000          298 0.00033031407 -8.8747768e-11 
  370000          298 0.00044980684 -9.0183019e-11 
  371000          298 0.00011629153 -9.2304091e-11 
  372000          298 0.00047874704 -9.4032103e-11 
  373000          298 0.00063873572 -9.382064e-11 
  374000          298 7.7016041e-05 -9.6199323e-11 
  375000          298 0.00030399376 -9.8938957e-11 
  376000          298 0.00025454588 -1.0037379e-10 
  377000          298 0.00047869775 -1.0186876e-10 
  378000          298 0.0001580422 -1.0393855e-10 
  379000          298 0.0005255611 -1.0559086e-10 
  380000          298 0.00019285605 -1.0726603e-10 
  381000          298 0.00019373892 -1.097726e-10 
  382000          298 0.00051065762 -1.1043971e-10 
  383000          298 0.00092305306 -1.0755842e-10 
  384000          298 0.00022793524 -1.0807255e-10 
  385000          298 8.4029307e-05 -1.1108149e-10 
  386000          298 0.00045085737 -1.1147922e-10 
  387000          298 0.00029084523 -1.1338488e-10 
  388000          298 0.00031999511 -1.141304e-10 
  389000          298 9.2563786e-05 -1.1662668e-10 
  390000          298 0.00044894532 -1.1686439e-10 
  391000          298 0.00024375493 -1.1842821e-10 
  392000          298 0.0003196087 -1.2017344e-10 
  393000          298 0.00080049937 -1.1963832e-10 
  394000          298 0.0006686936 -1.1817585e-10 
  395000          298 6.7065961e-05 -1.2027524e-10 
  396000          298 0.00027471277 -1.2250767e-10 
  397000          298 0.00016369519 -1.237323e-10 
  398000          298 0.00053273651 -1.2472497e-10 
  399000          298 3.0473837e-05 -1.2687063e-10 
  400000          298 0.00049442969 -1.2776178e-10 
  401000          298 1.2441491e-05 -1.3044988e-10 
  402000          298 0.00028611206 -1.3224437e-10 
  403000          298 0.00069797234 -1.3105836e-10 
  404000          298 0.00015663233 -1.3180262e-10 
  405000          298 0.00028519603 -1.3302254e-10 
  406000          298 0.0010659435 -1.3058903e-10 
  407000          298 0.00060797617 -1.2817049e-10 
  408000          298 0.00023969975 -1.2956074e-10 
  409000          298 0.00056099846 -1.3018268e-10 
  410000          298 0.0013445519 -1.2541925e-10 
  411000          298 0.00040525955 -1.2418437e-10 
  412000          298 8.4031837e-05 -1.2606399e-10 
  413000          298 0.00064544681 -1.2615523e-10 
  414000          298 0.00053605939 -1.2482499e-10 
  415000          298  0.000123193 -1.2673598e-10 
  416000          298 0.00055502947 -1.2757743e-10 
  417000          298 0.0010613426 -1.2428689e-10 
  418000          298 0.00034945721 -1.2412597e-10 
  419000          298 7.7021471e-05 -1.2626304e-10 
  420000          298 0.00043199774 -1.2703846e-10 
  421000          298 0.00010471933 -1.2814891e-10 
  422000          298 0.00059348584 -1.284472e-10 
  423000          298 0.00059918217 -1.2763552e-10 
  424000          298 0.0012139156 -1.246904e-10 
  425000          298  0.001955532 -1.1680954e-10 
  426000          298 0.0015209197 -1.1054112e-10 
  427000          298 0.0015764203 -1.0445611e-10 
  428000          298 0.0018359519 -9.7462751e-11 
  429000          298 0.0015859014 -9.1953959e-11 
  430000          298 0.00097926487 -8.8222062e-11 
  431000          298 0.00073665699 -8.6956186e-11 
  432000          298  0.001325092 -8.388522e-11 
  433000          298 0.0019821156 -7.7481062e-11 
  434000          298 0.0015620028 -7.0918939e-11 
  435000          298 0.00056536807 -6.9999743e-11 
  436000          298 0.00027894239 -7.117888e-11 
  437000          298 0.00032914943 -7.2254334e-11 
  438000          298 0.00021444855 -7.3695388e-11 
  439000          298 0.00025177964 -7.5732998e-11 
  440000          298 0.00023841456 -7.6173579e-11 
  441000          298 0.00022578872 -7.8115478e-11 
  442000          298 0.00032690562 -7.9071159e-11 
  443000          298 0.00044946957 -7.9504073e-11 
  444000          298 3.635471e-05 -8.1888227e-11 
  445000          298 0.00016229803 -8.4134679e-11 
  446000          298 0.00014341259 -8.5200317e-11 
  447000          298 0.00050623388 -8.6229977e-11 
  448000          298 7.2088185e-05 -8.8087485e-11 
  449000          298 0.00043815465 -8.909567e-11 
  450000          298  1.94505e-05 -9.1458075e-11 
  451000          298 0.00031718867 -9.2989742e-11 
  452000          298 0.00064219604  -9.2614e-11 
  453000          298 0.00016865952 -9.3283129e-11 
  454000          298 0.00030641266 -9.4441881e-11 
  455000          298 0.00093933037 -9.3124833e-11 
  456000          298 0.00046300949 -9.2067884e-11 
  457000          298 0.00032174522 -9.3155037e-11 
  458000          298 0.00045052865 -9.3944957e-11 
  459000          298 0.00085549384 -9.2026423e-11 
  460000          298 0.00028262696 -9.2514737e-11 
  461000          298 0.00019424965 -9.3878069e-11 
  462000          298 0.00082413955 -9.2881907e-11 
  463000          298 0.00038781139 -9.2651571e-11 
  464000          298 6.0728372e-05 -9.4573298e-11 
  465000          298 0.00052918917 -9.4673282e-11 
  466000          298 0.00033853943 -9.5386167e-11 
  467000          298 0.0006063677 -9.527639e-11 
  468000          298 0.0016302757 -9.1705598e-11 
  469000          298 0.0017921897 -8.6168897e-11 
  470000          298 0.0014495719 -8.145875e-11 
  471000          298 0.0014621563 -7.7145546e-11 
  472000          298  0.002093152 -7.1231155e-11 
  473000          298 0.0013801675 -6.6294344e-11 
  474000          298 0.0015861287 -6.2310131e-11 
  475000          298 0.0022325051 -5.5003894e-11 
  476000          298 0.0010593386 -5.1910723e-11 
  477000          298  0.001016628 -4.9706987e-11 
  478000          298 0.0013148064 -4.7350063e-11 
  479000          298 0.0021469308 -4.0352412e-11 
  480000          298 0.00094899769 -3.8196646e-11 
  481000          298 0.0011318679 -3.5906858e-11 
  482000          298 0.0017691876 -3.2266871e-11 
  483000          298 0.0016379332 -2.618849e-11 
  484000          298 0.00079880808 -2.494664e-11 
  485000          298 0.00092357898 -2.3926269e-11 
  486000          298 0.0013164043 -2.1797652e-11 
  487000          298 0.0020487991 -1.5551245e-11 
  488000          298 0.0012453731 -1.2689821e-11 
  489000          298 0.0014392131 -1.0009502e-11 
  490000          298 0.0020891801 -5.0102552e-12 
  491000          298 0.0013230915 -1.2916296e-12 
  492000          298 0.0014060895 1.6258444e-12 
  493000          298 0.0019624425 6.537364e-12 
  494000          298 0.0015004716 1.0051535e-11 
  495000          298 0.00077567567 1.0890931e-11 
  496000          298 0.00052888225 1.0321071e-11 
  497000          298 0.00043637248 9.5941041e-12 
  498000          298 0.00031973044 7.6923468e-12 
  499000          298 0.00031008505 6.2942884e-12 
  500000          298 7.4167827e-05 3.9093711e-12 
  501000          298 0.00073178227 3.1044793e-12 
  502000          298 0.0007410188 3.3676567e-12 
  503000          298 0.00027349059 2.0929006e-12 
  504000          298 0.00022621494 -3.6367675e-14 
  505000          298 0.00029782232 -1.362144e-12 
  506000          298 0.00017885279 -3.1702084e-12 
  507000          298 0.00034432502 -4.2742845e-12 
  508000          298 0.00029274705 -5.951427e-12 
  509000          298 0.00060913547 -5.8026161e-12 
  510000          298 0.00021338079 -7.2285653e-12 
  511000          298 0.00026421832 -8.7700034e-12 
  512000          298 0.00075980806 -9.1487222e-12 
  513000          298 0.0004693492 -9.578463e-12 
  514000          298 0.00015174368 -1.1354928e-11 
  515000          298 9.7699209e-05 -1.3340266e-11 
  516000          298 0.00035079625 -1.4586568e-11 
  517000          298 0.00046350443 -1.5420079e-11 
  518000          298 0.00034444922 -1.6837862e-11 
  519000          298 0.00040136958 -1.813882e-11 
  520000          298 0.00046506306 -1.872254e-11 
  521000          298 6.5410517e-05 -2.0002245e-11 
  522000          298 0.00012422108 -2.1946462e-11 
  523000          298 6.9279733e-05 -2.3932208e-11 
  524000          298 0.00048567381 -2.4674712e-11 
  525000          298 0.00052090658 -2.4895117e-11 
  526000          298 0.0003437119 -2.6021651e-11 
  527000          298 0.00018142157 -2.7791664e-11 
  528000          298 0.00036477239 -2.8815944e-11 
  529000          298 6.7587342e-05 -3.034223e-11 
  530000          298 0.00061873391 -3.0817566e-11 
  531000          298 0.00021362089 -3.188213e-11 
  532000          298 0.00044940406 -3.301713e-11 
  533000          298 0.00019368585 -3.4462213e-11 
  534000          298 0.00051150315 -3.5072692e-11 
  535000          298 0.00016106381 -3.6271613e-11 
  536000          298 0.00025636685 -3.7167166e-11 
  537000          298 0.00035455202 -3.8238902e-11 
  538000          298 0.00080311161 -3.7845489e-11 
  539000          298 0.00079948008 -3.7367073e-11 
  540000          298 0.0020533637 -3.3634709e-11 
  541000          298 0.0014352037 -2.9899206e-11 
  542000          298 0.0013411324 -2.7602419e-11 
  543000          298 0.0014064966 -2.5112232e-11 
  544000          298 0.0019128889 -2.0487264e-11 
  545000          298 0.0011948089 -1.8082108e-11 
  546000          298 0.0015710542 -1.563438e-11 
  547000          298 0.0021293723 -1.0845979e-11 
  548000          298 0.00099596515 -8.8643831e-12 
  549000          298 0.0011846876 -7.4945025e-12 
  550000          298 0.0013911574 -5.5230106e-12 
  551000          298 0.0022289248 -5.6062113e-13 
  552000          298 0.00088233943 9.7725486e-13 
  553000          298 0.0009451764 1.6285794e-12 
  554000          298 0.0010712242 2.5700895e-12 
  555000          298 0.0020200939 6.4035028e-12 
  556000          298 0.0013854385 9.4971375e-12 
  557000          298 0.0013977559 1.1274479e-11 
  558000          298 0.0015913137 1.4059707e-11 
  559000          298 0.0014455624 1.7034699e-11 
  560000          298 0.0015242909 1.9348545e-11 
  561000          298 0.0012094322 2.0789358e-11 
  562000          298 0.0019236364 2.4262776e-11 
  563000          298 0.0012887194 2.6835624e-11 
  564000          298 0.00082537937 2.7153136e-11 
  565000          298 0.00061924644 2.6921302e-11 
  566000          298 0.00069362468 2.6739138e-11 
  567000          298 0.00089522201 2.6872703e-11 
  568000          298 0.0017933786 2.9469967e-11 
  569000          298 0.0018561321 3.3529958e-11 
  570000          298 0.0010895966 3.4916677e-11 
  571000          298 0.0011080185 3.6172977e-11 
  572000          298   0.00199091 3.9082422e-11 
  573000          298 0.0017212592 4.2759712e-11 
  574000          298 0.0011630892 4.4219234e-11 
  575000          298 0.00044256389 4.3610783e-11 
  576000          298 0.00030009894 4.218799e-11 
  577000          298 0.00028292234 4.092278e-11 
  578000          298 0.00041802974 3.9757758e-11 
  579000          298 8.6594304e-05 3.786932e-11 
  580000          298 0.00052614318 3.6621581e-11 
  581000          298 6.8471069e-05 3.4612889e-11 
  582000          298 0.0002267721 3.2930592e-11 
  583000          298 0.00050282929 3.2130053e-11 
  584000          298 0.00027977095 3.0944656e-11 
  585000          298 9.7879002e-05 2.9127589e-11 
  586000          298 0.00064291281 2.8289238e-11 
  587000          298 0.00010288095 2.6532976e-11 
  588000          298 0.00041213459 2.5390094e-11 
  589000          298 0.00035267606 2.415397e-11 
  590000          298 0.00037671716 2.3005118e-11 
  591000          298 0.00068535004 2.2548776e-11 
  592000          298 0.0015852418 2.4320615e-11 
  593000          298 0.0021169766 2.8236907e-11 
  594000          298  0.001458632 3.0563014e-11 
  595000          298 0.0020466446 3.3501375e-11 
  596000          298 0.0014021642 3.6400228e-11 
  597000          298 0.0013895242 3.7809237e-11 
  598000          298 0.0019262094 4.0843107e-11 
  599000          298 0.0013426559 4.3225681e-11 
  600000          298 0.0016481597 4.506178e-11 
  601000          298 0.0014652413 4.6902997e-11 
  602000          298 0.0014759295 4.913307e-11 
  603000          298  0.001655199 5.1149673e-11 
  604000          298 0.0009562626 5.180228e-11 
  605000          298 0.0017886341 5.3753179e-11 
  606000          298 0.0017980761 5.7166261e-11 
  607000          298 0.0010457517 5.8014504e-11 
  608000          298 0.0018659988 5.9961681e-11 
  609000          298 0.0016397005 6.2660667e-11 
  610000          298 0.0015583277 6.4278378e-11 
  611000          298 0.00079394017 6.4845632e-11 
  612000          298 0.00080031212 6.4578443e-11 
  613000          298 0.0011414501 6.5271107e-11 
  614000          298 0.0023794077 6.8257914e-11 
  615000          298 0.0011056655 6.9970585e-11 
  616000          298 0.00071223379 6.972072e-11 
  617000          298 0.00014897144 6.8208091e-11 
  618000          298 0.00051280912 6.703865e-11 
  619000          298 0.00019588223 6.5624259e-11 
  620000          298 0.00032592528 6.3951451e-11 
  621000          298 0.0007465675 6.3197539e-11 
  622000          298 0.00084047295 6.3322296e-11 
  623000          298 9.8077972e-05 6.1642168e-11 
  624000          298 0.00016260118 5.9769358e-11 
  625000          298 0.00049898448 5.9039302e-11 
  626000          298 0.00033434628 5.762357e-11 
  627000          298 0.00029234611 5.6481413e-11 
  628000          298 0.0003685002 5.4993535e-11 
  629000          298 0.00025072625 5.3523945e-11 
  630000          298 0.00019128352 5.2073152e-11 
  631000          298 0.00030919692 5.0796646e-11 
  632000          298 0.00045005885 4.9983321e-11 
  633000          298 0.00034729776 4.8695812e-11 
  634000          298 0.00028268706 4.7280417e-11 
  635000          298 0.00054493017 4.641782e-11 
  636000          298 8.8295409e-05 4.5212285e-11 
  637000          298 0.00029138573 4.382997e-11 
  638000          298 0.00022588878 4.2684948e-11 
  639000          298 0.00036565836 4.1564279e-11 
  640000          298 7.5098337e-05 4.0134202e-11 
  641000          298 0.00044607117 3.8835527e-11 
  642000          298 0.00012662537 3.7606298e-11 
  643000          298 0.00041500596 3.6631135e-11 
  644000          298 9.9595527e-05 3.5024421e-11 
  645000          298 0.00033783271 3.4039026e-11 
  646000          298 0.00050156248 3.3309766e-11 
  647000          298 0.00029012019 3.2543405e-11 
  648000          298 0.00015725855 3.098525e-11 
  649000          298 0.00044803099 3.0104894e-11 
  650000          298 0.00031435054 2.9012918e-11 
  651000          298 0.00030452405 2.8378233e-11 
  652000          298 0.00018292209 2.6879854e-11 
  653000          298 0.00067420943 2.6422578e-11 
  654000          298 0.00051848164 2.6371031e-11 
  655000          298 0.00036701177 2.5274847e-11 
  656000          298 0.00027464331 2.4186065e-11 
  657000          298 0.00068885663 2.380512e-11 
  658000          298 0.00010643167 2.2355111e-11 
  659000          298 0.00038761584 2.1320889e-11 
  660000          298 0.00029458346 2.0352745e-11 
  661000          298 0.00051335937 1.9547348e-11 
  662000          298 0.0010207755 1.981736e-11 
  663000          298  0.002302179 2.267947e-11 
  664000          298 0.0013161827 2.4528243e-11 
  665000          298 0.00075038923 2.4942886e-11 
  666000          298 0.00043596607 2.4346916e-11 
  667000          298 0.0004338977 2.3663466e-11 
  668000          298 0.0004082025 2.2734895e-11 
  669000          298 0.0002981455 2.1817078e-11 
  670000          298 0.00055107591 2.1198204e-11 
  671000          298  0.001105285 2.1744688e-11 
  672000          298 0.0020011322 2.3891618e-11 
  673000          298 0.0014838184 2.6269968e-11 
  674000          298 0.00095236231 2.6821542e-11 
  675000          298 0.0013168185 2.7814182e-11 
  676000          298 0.0022287382 3.0868928e-11 
  677000          298  0.001120665 3.1971739e-11 
  678000          298 0.0010792266 3.2884555e-11 
  679000          298 0.0015484652 3.3993501e-11 
  680000          298 0.0018340484 3.6934555e-11 
  681000          298 0.0009627371 3.7474828e-11 
  682000          298 0.0012742348 3.8462412e-11 
  683000          298 0.0020764213 4.049748e-11 
  684000          298 0.0022919643 4.3895438e-11 
  685000          298 0.0021809391 4.6814752e-11 
  686000          298 0.0016155904 4.8772614e-11 
  687000          298 0.0013695528 4.9800928e-11 
  688000          298 0.0020640017 5.2323549e-11 
  689000          298 0.0017046893 5.4343804e-11 
  690000          298 0.0021413262 5.6769784e-11 
  691000          298 0.0016910059 5.8929585e-11 
  692000          298 0.0010111062 5.9560204e-11 
  693000          298 0.0017194826 6.0759542e-11 
  694000          298 0.0016824915 6.320201e-11 
  695000          298 0.0012367771 6.3906553e-11 
  696000          298 0.0011967383 6.4719884e-11 
  697000          298 0.0023245939 6.6982152e-11 
  698000          298 0.0011715915 6.8257754e-11 
  699000          298 0.00086020592 6.833968e-11 
  700000          298 0.0014843735 6.913981e-11 
  701000          298 0.0020981727 7.1544877e-11 
  702000          298 0.0010798199 7.2401568e-11 
  703000          298 0.00037518595 7.1738305e-11 
  704000          298 0.00041158937 7.0528691e-11 
  705000          298 0.00038631502 6.9563929e-11 
  706000          298 9.0340972e-05 6.801802e-11 
  707000          298 0.00070251276 6.7245228e-11 
  708000          298 0.00095242256 6.7360877e-11 
  709000          298 0.00018408886 6.6368617e-11 
  710000          298 0.00023652717 6.4975391e-11 
  711000          298 0.00049963793 6.4112674e-11 
  712000          298 0.00017291615 6.2912501e-11 
  713000          298 0.00074193761 6.2317691e-11 
  714000          298 0.0013704892 6.2930485e-11 
  715000          298 0.0021532282 6.5214427e-11 
  716000          298 0.0013190147 6.6444972e-11 
  717000          298 0.00093095847 6.6582737e-11 
  718000          298 0.0019618836 6.8074449e-11 
  719000          298 0.0016144468 7.0158596e-11 
  720000          298 0.0010099143 7.0475057e-11 
  721000          298 0.0013513121 7.135859e-11 
  722000          298 0.0021631387 7.3235187e-11 
  723000          298 0.0028262965 7.6752822e-11 
  724000          298 0.0020115066 7.9450232e-11 
  725000          298 0.0013541894 8.0383972e-11 
  726000          298 0.0012081838 8.1219202e-11 
  727000          298  0.001934142 8.2539146e-11 
  728000          298  0.002563449 8.5579014e-11 
  729000          298 0.0021633346 8.8117797e-11 
  730000          298 0.0016273293 8.9478575e-11 
  731000          298 0.0014662668 9.0535479e-11 
  732000          298 0.0024645662 9.2759169e-11 
  733000          298  0.002836107 9.6345614e-11 
  734000          298 0.0017099869 9.8208772e-11 
  735000          298 0.0016407302 9.9300864e-11 
  736000          298 0.00091447668 9.9466613e-11 
  737000          298 0.0015691061 1.0005325e-10 
  738000          298   0.00198158 1.0188959e-10 
  739000          298 0.0010472024 1.0233393e-10 
  740000          298 0.0017015975 1.0311764e-10 
  741000          298 0.0010391429 1.0342049e-10 
  742000          298 0.0020059369 1.0461978e-10 
  743000          298 0.0016626806 1.0624898e-10 
  744000          298 0.0011999216 1.0663894e-10 
  745000          298 0.0021590638 1.0811461e-10 
  746000          298 0.0014560128 1.0955544e-10 
  747000          298 0.0013987417 1.100018e-10 
  748000          298 0.0010589947 1.1035855e-10 
  749000          298  0.001818243 1.1121968e-10 
  750000          298 0.0016593407 1.1294661e-10 
  751000          298 0.0010190901 1.1309758e-10 
  752000          298 0.0019114454 1.1400125e-10 
  753000          298 0.0014891998 1.1546073e-10 
  754000          298 0.0012941504 1.1575647e-10 
  755000          298 0.0015734741 1.1667584e-10 
  756000          298 0.0019103334 1.1788332e-10 
  757000          298 0.0024437514 1.201321e-10 
  758000          298  0.002039368 1.2211366e-10 
  759000          298 0.0015388112 1.2314927e-10 
  760000          298 0.0018038452 1.2429397e-10 
  761000          298 0.0018779866 1.2560633e-10 
  762000          298 0.0011956251 1.261043e-10 
  763000          298 0.0020464678 1.271789e-10 
  764000          298 0.0017782988 1.2863424e-10 
  765000          298 0.0019248797 1.2986011e-10 
  766000          298 0.0022924988 1.3195812e-10 
  767000          298 0.0013693578 1.3269341e-10 
  768000          298 0.0016756475 1.3340024e-10 
  769000          298 0.0016238994 1.3467828e-10 
  770000          298 0.0014884384 1.3531761e-10 
  771000          298 0.0015341672 1.3593281e-10 
  772000          298 0.0013808005 1.3689135e-10 
  773000          298  0.001051116 1.367271e-10 
  774000          298 0.0017426858 1.3764161e-10 
  775000          298  0.001414288 1.3803437e-10 
  776000          298 0.0021280458 1.393958e-10 
  777000          298 0.0013177895 1.3987097e-10 
  778000          298 0.0021874751 1.4107721e-10 
  779000          298 0.0025739051 1.4362761e-10 
  780000          298 0.0019244528 1.4508671e-10 
  781000          298 0.0018640458 1.4623971e-10 
  782000          298 0.0015603276 1.4679077e-10 
  783000          298 0.0024962728 1.4864632e-10 
  784000          298 0.0024362223 1.5084796e-10 
  785000          298 0.0014754708 1.5167189e-10 
  786000          298 0.0019491496  1.52555e-10 
  787000          298 0.0017797909 1.5347032e-10 
  788000          298 0.0027284995 1.5548064e-10 
  789000          298 0.0023141474 1.5776627e-10 
  790000          298 0.0015482231 1.5846519e-10 
  791000          298  0.001983192 1.5960009e-10 
  792000          298 0.0016282318 1.6026504e-10 
  793000          298 0.0021820602 1.6163034e-10 
  794000          298 0.0020864895 1.6315272e-10 
  795000          298 0.0018497305 1.6423436e-10 
  796000          298 0.0019128674 1.6524769e-10 
  797000          298 0.0014527237 1.6558865e-10 
  798000          298 0.0026152208 1.6719541e-10 
  799000          298 0.0026111492 1.6956338e-10 
  800000          298 0.0017233102 1.7062769e-10 
  801000          298 0.0015361066 1.7112144e-10 
  802000          298 0.00087472847 1.7060971e-10 
  803000          298 0.0017691783 1.7088598e-10 
  804000          298 0.0016935143 1.7194231e-10 
  805000          298 0.0010976372 1.7172125e-10 
  806000          298 0.0013303838 1.7186769e-10 
  807000          298 0.0019970729 1.7251618e-10 
  808000          298 0.0015470944 1.7322303e-10 
  809000          298 0.0011687148 1.7311452e-10 
  810000          298 0.0021954267 1.741461e-10 
  811000          298 0.0015099705 1.7480153e-10 
  812000          298 0.0013963033 1.7486864e-10 
  813000          298 0.0021517443 1.7613397e-10 
  814000          298 0.0012709299 1.7624533e-10 
  815000          298 0.0018101494 1.7679537e-10 
  816000          298 0.0016982211 1.777599e-10 
  817000          298 0.0013725327 1.7776287e-10 
  818000          298  0.001674971 1.7822789e-10 
  819000          298 0.0014739164 1.7878155e-10 
  820000          298 0.0014201892 1.7898585e-10 
  821000          298 0.0009452902 1.7846708e-10 
  822000          298 0.0018535113 1.788192e-10 
  823000          298 0.0015631795 1.7980132e-10 
  824000          298 0.0009513542 1.7930043e-10 
  825000          298 0.00085201426 1.7881009e-10 
  826000          298 0.0016346766 1.7880781e-10 
  827000          298 0.0017352246 1.7990295e-10 
  828000          298 0.00099991431 1.7954487e-10 
  829000          298 0.0014660802 1.7950403e-10 
  830000          298 0.0018523417 1.800003e-10 
  831000          298 0.0014610719 1.8051187e-10 
  832000          298 0.0012387666 1.8052385e-10 
  833000          298 0.0019496644 1.8109974e-10 
  834000          298 0.0016515904 1.8168543e-10 
  835000          298 0.00077944782 1.8110342e-10 
  836000          298 0.00035473575 1.7986498e-10 
  837000          298 0.0005122479 1.785206e-10 
  838000          298 0.00040462414 1.7735037e-10 
  839000          298 0.00014121261 1.7564386e-10 
  840000          298 0.00082965223 1.7459569e-10 
  841000          298 0.0011939445 1.7442644e-10 
  842000          298 0.00023264322 1.7319525e-10 
  843000          298 0.00019446473 1.7164157e-10 
  844000          298 0.00075356279 1.7060297e-10 
  845000          298 0.00030164315 1.6947843e-10 
  846000          298 0.00019593217 1.6789446e-10 
  847000          298 0.00071915592 1.6680112e-10 
  848000          298 0.0012270348 1.6673971e-10 
  849000          298 0.0002316081 1.6568668e-10 
  850000          298 0.00014402307 1.6411329e-10 
  851000          298 0.00096158354 1.633901e-10 
  852000          298 0.00051649737 1.6266342e-10 
  853000          298 0.0003117104 1.6125201e-10 
  854000          298 0.00049973883 1.600138e-10 
  855000          298 0.0011570929 1.5977686e-10 
  856000          298 0.00026392602 1.5877171e-10 
  857000          298 0.00017963869 1.572628e-10 
  858000          298 0.0012118243 1.5677852e-10 
  859000          298 0.0010788063 1.5679705e-10 
  860000          298 0.00021451597 1.5556973e-10 
  861000          298 0.00026687402 1.5410831e-10 
  862000          298 0.00090824064 1.535548e-10 
  863000          298 0.00018293836 1.5242848e-10 
  864000          298 0.00017483866 1.5094451e-10 
  865000          298 0.0010836878 1.5048274e-10 
  866000          298 0.00067836014 1.5005855e-10 
  867000          298 0.00022110463 1.4876864e-10 
  868000          298 0.00022716377 1.4734716e-10 
  869000          298 0.00069686506 1.4649329e-10 
  870000          298 0.00019128751 1.4512884e-10 
  871000          298 0.00041270203 1.4403633e-10 
  872000          298 0.00030669226 1.4270437e-10 
  873000          298 0.00032186851 1.4148201e-10 
  874000          298 8.390604e-05 1.4008621e-10 
  875000          298 0.0004073075 1.389263e-10 
  876000          298 0.00058413169 1.3816474e-10 
  877000          298 0.00034581988 1.3714896e-10 
  878000          298 3.5832304e-05 1.3561745e-10 
  879000          298 0.00050578113 1.3451445e-10 
  880000          298 0.00019785014 1.3321586e-10 
  881000          298 0.00018279798 1.3211372e-10 
  882000          298 1.7074794e-05 1.3059621e-10 
  883000          298 0.00052324092 1.2949094e-10 
  884000          298 0.00020670942 1.2825001e-10 
  885000          298 0.0002370945 1.2720565e-10 
  886000          298 1.3460542e-05 1.2574755e-10 
  887000          298 0.00052430874 1.2475535e-10 
  888000          298 0.00075106763 1.2414876e-10 
  889000          298 0.00024542469 1.2316792e-10 
  890000          298 0.00013607936 1.2180595e-10 
  891000          298 0.00034146558 1.2067845e-10 
  892000          298 0.00024594244 1.1956507e-10 
  893000          298 0.00021833399 1.1854939e-10 
  894000          298 0.00023516575 1.1728434e-10 
  895000          298 0.00010295722 1.1618652e-10 
  896000          298 0.00051749354 1.1513521e-10 
  897000          298 9.116386e-05 1.1385997e-10 
  898000          298 0.00033325871  1.12865e-10 
  899000          298 0.00014922731 1.1157304e-10 
  900000          298 0.00023348278 1.1062204e-10 
  901000          298 0.00036995232 1.0958528e-10 
  902000          298 0.00010632483 1.0842274e-10 
  903000          298 0.00037998038 1.0730419e-10 
  904000          298 0.00067805416 1.0658668e-10 
  905000          298 0.00061786784 1.0596997e-10 
  906000          298 4.4524949e-05 1.0471298e-10 
  907000          298 0.00012197258 1.0348399e-10 
  908000          298 0.00044931657 1.0252639e-10 
  909000          298 0.00053961101 1.0172108e-10 
  910000          298 0.00023071282 1.0068903e-10 
  911000          298 0.00051869481 9.9784036e-11 
  912000          298 0.00049306818 9.8991362e-11 
  913000          298 5.8531584e-05 9.7852175e-11 
  914000          298 7.3488059e-05 9.6619984e-11 
  915000          298 0.00037228784 9.5589942e-11 
  916000          298 0.00035761465 9.4769459e-11 
  917000          298 0.00019600245 9.3826744e-11 
  918000          298 0.00048960066 9.2893355e-11 
  919000          298 0.00013653833 9.1929853e-11 
  920000          298 0.00040448671 9.103446e-11 
  921000          298 0.0002889825 9.0035203e-11 
  922000          298 0.00023692995 8.9060691e-11 
  923000          298 0.00022171425 8.8092592e-11 
  924000          298 0.00027384586 8.7198136e-11 
  925000          298 0.00018503301 8.6085724e-11 
  926000          298 0.00057498959 8.5438984e-11 
  927000          298 0.00014164721 8.4386706e-11 
  928000          298 0.00029273344 8.3592781e-11 
  929000          298 3.2887621e-05 8.2455076e-11 
  930000          298 0.00056342128 8.1627006e-11 
  931000          298 0.00088359465 8.1381181e-11 
  932000          298 0.0003529767 8.0725484e-11 
  933000          298 9.2645876e-05 7.9622727e-11 
  934000          298 0.00032955203 7.8742693e-11 
  935000          298 8.0507644e-05 7.7818083e-11 
  936000          298 0.00058377989 7.7124753e-11 
  937000          298 0.0001012762 7.6180872e-11 
  938000          298  0.000492745 7.5369857e-11 
  939000          298 0.00014468363 7.4366946e-11 
  940000          298 0.00028047264 7.345294e-11 
  941000          298 0.00059881406  7.28734e-11 
  942000          298 0.00031919913 7.234016e-11 
  943000          298 0.0002728549 7.1455157e-11 
  944000          298 0.00052941899 7.0806452e-11 
  945000          298 0.00069529029 7.0561831e-11 
  946000          298 0.00030028717 6.9743306e-11 
  947000          298 0.00027825187 6.8962585e-11 
  948000          298 0.00051369182 6.8246224e-11 
  949000          298 0.00014281454 6.7296945e-11 
  950000          298 0.00027120384 6.6465945e-11 
  951000          298 0.00036616264 6.5761183e-11 
  952000          298 0.00026582805 6.4960346e-11 
  953000          298 0.00025858657 6.4264687e-11 
  954000          298 2.6268945e-05 6.3246577e-11 
  955000          298 0.00031675064 6.2491668e-11 
  956000          298 0.00040058057 6.1779843e-11 
  957000          298 0.00032979616 6.1073742e-11 
  958000          298 5.4012191e-05 6.017334e-11 
  959000          298 0.00046113394 5.9472981e-11 
  960000          298 0.00016847559 5.8785447e-11 
  961000          298 0.00044580087 5.8104219e-11 
  962000          298 0.00018481328 5.7257668e-11 
  963000          298 0.00019292506 5.6439593e-11 
  964000          298 0.00047066732  5.58273e-11 
  965000          298 0.00038279629 5.509829e-11 
  966000          298 0.00044651607 5.4608171e-11 
  967000          298 0.00048138411 5.4064738e-11 
  968000          298 0.0007084913 5.3790694e-11 
  969000          298 0.00020094364 5.3086565e-11 
  970000          298 0.00039427164 5.2321479e-11 
  971000          298 0.00041579334 5.1740757e-11 
  972000          298 0.00014590874 5.0981726e-11 
  973000          298 0.00020063253 5.0255427e-11 
  974000          298 0.00049017301  4.96747e-11 
  975000          298 0.00042013788 4.905994e-11 
  976000          298 0.00014531261 4.8201966e-11 
  977000          298 0.00030313333 4.7491921e-11 
  978000          298 0.00032299356 4.6894364e-11 
  979000          298 0.00039423483 4.6424967e-11 
  980000          298 0.00011896683 4.557114e-11 
  981000          298 0.00047479038 4.508948e-11 
  982000          298 0.00027817915 4.4534151e-11 
  983000          298 0.00015783954 4.3747242e-11 
  984000          298 8.1715204e-05 4.2886968e-11 
  985000          298 0.00040376839 4.237611e-11 
  986000          298 0.00038619649 4.1927115e-11 
  987000          298 0.00029141876 4.1285339e-11 
  988000          298 0.00011220217 4.0431403e-11 
  989000          298 0.00043849963 3.9813321e-11 
  990000          298 0.00031967376 3.9163651e-11 
  991000          298 0.00020321055 3.8606652e-11 
  992000          298 0.00038219141 3.7932473e-11 
  993000          298 0.00021715657 3.7264137e-11 
  994000          298 0.00044836499 3.6705444e-11 
  995000          298 0.00021512805 3.5981838e-11 
  996000          298 0.00037837904 3.5416061e-11 
  997000          298 0.00068211076 3.512642e-11 
  998000          298 0.00012427982 3.4614568e-11 
  999000          298 0.00026984229 3.3935424e-11 
 1000000          298 0.00021510881 3.3345147e-11 
Loop time of 790.944 on 1 procs for 1000000 steps with 2233 atoms

Performance: 109.237 ns/day, 0.220 hours/ns, 1264.312 timesteps/s
100.0% CPU use with 1 MPI tasks x no OpenMP threads

MPI task timing breakdown:
Section |  min time  |  avg time  |  max time  |%varavg| %total
---------------------------------------------------------------
Pair    | 19.196     | 19.196     | 19.196     |   0.0 |  2.43
Bond    | 671.13     | 671.13     | 671.13     |   0.0 | 84.85
Neigh   | 13.058     | 13.058     | 13.058     |   0.0 |  1.65
Comm    | 57.778     | 57.778     | 57.778     |   0.0 |  7.30
Output  | 2.6127     | 2.6127     | 2.6127     |   0.0 |  0.33
Modify  | 8.9938     | 8.9938     | 8.9938     |   0.0 |  1.14
Other   |            | 18.18      |            |       |  2.30

Nlocal:    2233 ave 2233 max 2233 min
Histogram: 1 0 0 0 0 0 0 0 0 0
Nghost:    15409 ave 15409 max 15409 min
Histogram: 1 0 0 0 0 0 0 0 0 0
Neighs:    1214 ave 1214 max 1214 min
Histogram: 1 0 0 0 0 0 0 0 0 0

Total # of neighbors = 1214
Ave neighs/atom = 0.543663
Ave special neighs/atom = 6.38424
Neighbor list builds = 233
Dangerous builds = 0
unfix           1
unfix           2
undump          Pn_Ni-PyC-NH2_with_Kr_xyzmov


Total wall time: 0:13:11
