
# --------------------------------- Initialization -------------------------------------- #
units           real
atom_style      full
boundary        p p p

pair_style      lj/cut 14.000
bond_style      harmonic
angle_style     cosine/periodic
dihedral_style  harmonic
improper_style  fourier

special_bonds   lj/coul 0.0 0.0 1.0
pair_modify     tail no mix arithmetic
#dielectric      1.0
box tilt        large
read_data       data.NiPyC2_experiment_with_Ar
  triclinic box = (0 0 0) to (31.264 37.5702 30.8228) with tilt (0 -0.682783 0)
  1 by 1 by 1 MPI processor grid
  reading atoms ...
  2431 atoms
  scanning bonds ...
  6 = max bonds/atom
  scanning angles ...
  15 = max angles/atom
  scanning dihedrals ...
  8 = max dihedrals/atom
  scanning impropers ...
  3 = max impropers/atom
  reading bonds ...
  2880 bonds
  reading angles ...
  5490 angles
  reading dihedrals ...
  5760 dihedrals
  reading impropers ...
  3780 impropers
  6 = max # of 1-2 neighbors
  9 = max # of 1-3 neighbors
  12 = max # of special neighbors
  special bonds CPU = 0.000889193 secs
  read_data CPU = 0.019386 secs

#### Atom Groupings ####
group           ar       id   2431   # 55
1 atoms in group ar
group           fram     id   1:2430 # 1:54 56:2431
2430 atoms in group fram
#### END Atom Groupings ####

###
# Speed up Calculations by exluding framework-framework interactions
#   since we are keeping the framework rigid and stationary
#
# neigh_modify keyword values ...
# keyword = exclude
# values  = group group1-ID group2-ID
#
# group1-ID, group2-ID = exclude if one atom is in 1st group, other in 2nd
###
neigh_modify exclude group fram fram

# ----------------------------- Variables ---------------------- #
dump            NiPyC2_experiment_with_Ar_xyzmov all xyz 1000 NiPyC2_experiment_with_Ar_mov.xyz
dump_modify     NiPyC2_experiment_with_Ar_xyzmov element Ni O N C H Ar
variable        dt         equal 1.00
variable        tdamp      equal 100*${dt}
variable        tdamp      equal 100*1
variable        eqtemp     equal 298.00

# ------------------------------ Equilibriation -------------------------------------------- #
# we do not need to perform equilibriation since we are using a rigid framework
# and the (single) adsorbate has already been inserted into the material via GCMC
# which already included an equilibriation phase.


# --------------------- Production (data gathering) --------------------------------------- #
# A simple way to hold atoms stationary is to not include those atoms in your time integration.
#reset_timestep  0

fix             3 ar nvt temp ${eqtemp} ${eqtemp} ${tdamp}
fix             3 ar nvt temp 298 ${eqtemp} ${tdamp}
fix             3 ar nvt temp 298 298 ${tdamp}
fix             3 ar nvt temp 298 298 100

###
#  mean-squared disp of grp 1
#
# A vector of four quantities is calculated by this compute:
# The first 3 elements of the vector are the squared dx,dy,dz displacements, summed and averaged over atoms in the group.
# The fourth element is the total squared displacement, i.e. (dx*dx + dy*dy + dz*dz),
#  summed and averaged over atoms in the group.
#
# The slope of the MSD versus time is proportional to the diffusion coefficient.
# MSD values can be accumulated in a vector via the fix vector command,
#   and a line fit to the vector to compute its slope via the variable slope function,
#   and thus extract D.
#
# fix ID group-ID vector Nevery value1 value2 ...
#
# c_ID[I] = Ith component of global vector calculated by a compute with ID
# f_ID = global scalar calculated by a fix with ID
# v_name = value calculated by an equal-style variable with name
#
# variable name style args...
#
# The slope() function uses linear regression to fit a line to the set of points,
#   equally spaced by 1 in their x coordinate: (1,V1), (2,V2), …, (N,VN),
#   where the Vi are the values in the global vector of length N.
#   The returned value is the slope of the line.
#   If the line has a single point or is vertical, it returns 1.0e20.
###
compute         msd all msd com yes
fix             5 ar vector 500 c_msd[4]
variable        fitslope equal slope(f_5)/6/(500*dt) # why dividing slope?

thermo_style    custom step v_eqtemp c_msd[4] v_fitslope # prints this info to log file

thermo          1000
run             1000000
Neighbor list info ...
  update every 1 steps, delay 10 steps, check yes
  max neighbors/atom: 2000, page size: 100000
  master list distance cutoff = 16
  ghost atom cutoff = 16
  binsize = 8, bins = 4 5 4
  1 neighbor lists, perpetual/occasional/extra = 1 0 0
  (1) pair lj/cut, perpetual
      attributes: half, newton on
      pair build: half/bin/newton/tri
      stencil: half/bin/3d/newton/tri
      bin: standard
WARNING: Inconsistent image flags (src/domain.cpp:785)
Per MPI rank memory allocation (min/avg/max) = 31.83 | 31.83 | 31.83 Mbytes
Step v_eqtemp c_msd[4] v_fitslope 
       0          298 7.6802797e-30 3.3333333e+16 
    1000          298 0.00059968617 9.9947695e-08 
    2000          298 0.00064133201 4.4309994e-08 
    3000          298 0.0003488071 1.3750078e-08 
    4000          298 9.5213757e-05 3.5198421e-09 
    5000          298 0.00047042559 1.6749839e-09 
    6000          298 0.00047214844 2.9251901e-09 
    7000          298 2.5232761e-05 -9.1476305e-10 
    8000          298 0.00045994789 -6.384369e-10 
    9000          298 0.00076365255 3.0720553e-09 
   10000          298 0.00021883975 2.6278861e-09 
   11000          298 0.00051367206 2.3860912e-09 
   12000          298 0.0010422836 4.6509901e-09 
   13000          298 0.00058716824 5.4718271e-09 
   14000          298 0.00073741198 4.6962303e-09 
   15000          298 0.00052186784 4.5189415e-09 
   16000          298 0.00055087999 3.9581279e-09 
   17000          298 0.00042863269 3.0700952e-09 
   18000          298 0.0001962563 2.9671684e-09 
   19000          298 0.00097038976 3.0512062e-09 
   20000          298 0.0018442548 5.2356752e-09 
   21000          298 0.0020853748 7.8992717e-09 
   22000          298 0.0028095719 1.0602838e-08 
   23000          298 0.0031523689 1.373869e-08 
   24000          298 0.0019728031 1.4596672e-08 
   25000          298  0.001112697 1.3678839e-08 
   26000          298 0.00048869023 1.1761583e-08 
   27000          298 0.00078867086 1.0087664e-08 
   28000          298 0.00031715753 8.3742231e-09 
   29000          298 0.00077288279 7.2089417e-09 
   30000          298 0.00043577375 5.9881891e-09 
   31000          298 0.00085846924 5.4419959e-09 
   32000          298 0.0003530168 4.7730885e-09 
   33000          298 0.00057753849 4.0738021e-09 
   34000          298 0.0002693193 3.3348474e-09 
   35000          298 0.00034165053 2.8833126e-09 
   36000          298 0.00083131418 2.6483113e-09 
   37000          298 0.00082520197 2.7053128e-09 
   38000          298 0.00041432996 2.3218286e-09 
   39000          298 0.00088771698 2.0657012e-09 
   40000          298 0.00026679324 1.5821689e-09 
   41000          298 0.00073739179 1.5093257e-09 
   42000          298 0.00037685069 1.2822683e-09 
   43000          298 0.00042097252 1.081213e-09 
   44000          298 0.00075616373 1.0306276e-09 
   45000          298 0.00012522946 8.2281376e-10 
   46000          298 0.00076164193 6.992596e-10 
   47000          298 0.00056356355 5.1576343e-10 
   48000          298 0.0011242759 5.5150768e-10 
   49000          298 0.00057582387 5.5143527e-10 
   50000          298 0.00040741004 4.2776434e-10 
   51000          298 0.00010510614 2.8963236e-10 
   52000          298 0.00055053857 2.1320163e-10 
   53000          298 0.00056727483 1.332537e-10 
   54000          298 0.0015223326 3.0936362e-10 
   55000          298 0.00065210687 3.1296917e-10 
   56000          298 0.00061072199 2.2729195e-10 
   57000          298 0.00021613051 8.4145501e-11 
   58000          298 0.00025179686 8.8584152e-12 
   59000          298 0.00099499658 -4.5403173e-12 
   60000          298 0.00041148744 -5.6139731e-11 
   61000          298 0.00020173466 -1.7685027e-10 
   62000          298 0.00032907259 -2.2901443e-10 
   63000          298 0.00044081264 -2.3250562e-10 
   64000          298 0.00081932002 -2.5837006e-10 
   65000          298 0.00066455707 -2.5549808e-10 
   66000          298 0.00037905828 -3.0744559e-10 
   67000          298 0.00060824959 -3.0577171e-10 
   68000          298 0.00030902693 -3.244363e-10 
   69000          298 0.00087633794 -3.3942839e-10 
   70000          298 0.00024762633 -4.094283e-10 
   71000          298 0.00046737092 -4.0466015e-10 
   72000          298 0.00034211988 -4.1684451e-10 
   73000          298 0.00081591389 -4.2084342e-10 
   74000          298 0.00066444323 -4.2408005e-10 
   75000          298 0.00049776087 -4.5591991e-10 
   76000          298 0.00027599358 -4.8463395e-10 
   77000          298 0.00069492811 -5.0761666e-10 
   78000          298 0.00014246556 -5.5659284e-10 
   79000          298 0.00073578949 -5.4079224e-10 
   80000          298 0.00038019512 -5.2618027e-10 
   81000          298 0.0002956805 -5.5019505e-10 
   82000          298 0.00045012774 -5.4486781e-10 
   83000          298 0.00038995501 -5.1562139e-10 
   84000          298 0.00074484516 -5.0500175e-10 
   85000          298 0.0013535115 -3.8864523e-10 
   86000          298 0.00089344208 -3.379977e-10 
   87000          298 0.00011017255 -3.8706391e-10 
   88000          298 0.0005703999 -4.123586e-10 
   89000          298 0.00090888623 -3.8891892e-10 
   90000          298 0.00074615829 -3.4908119e-10 
   91000          298 0.00062952329 -3.4043507e-10 
   92000          298 0.00016302807 -3.8803934e-10 
   93000          298 0.00050480507 -4.1260055e-10 
   94000          298 4.6848937e-05 -4.4813125e-10 
   95000          298 0.0010406461 -4.3183386e-10 
   96000          298  0.001771358 -3.2992204e-10 
   97000          298 0.0016548046 -2.059968e-10 
   98000          298 0.0010818091 -1.2687801e-10 
   99000          298 0.00013243213 -1.461863e-10 
  100000          298 0.00075179767 -1.6049232e-10 
  101000          298 0.00011567907 -2.0696258e-10 
  102000          298 0.00052405123 -2.3117027e-10 
  103000          298 0.00055623584 -2.2840165e-10 
  104000          298 0.00073093052 -2.1644748e-10 
  105000          298 0.00017129508 -2.5038069e-10 
  106000          298 0.00072086262 -2.601083e-10 
  107000          298 0.00064142546 -2.506156e-10 
  108000          298 0.00076234121 -2.3427684e-10 
  109000          298 0.00019723771 -2.6232927e-10 
  110000          298 0.00072792612 -2.6512754e-10 
  111000          298 0.00066178278 -2.5292825e-10 
  112000          298 0.00018719624 -2.6375343e-10 
  113000          298 9.4417943e-05 -2.9590253e-10 
  114000          298 0.00049029329 -2.8789029e-10 
  115000          298 0.00011605046 -3.0307514e-10 
  116000          298 0.00077173513 -3.0552607e-10 
  117000          298 6.335169e-05 -3.3557823e-10 
  118000          298 0.00019227254 -3.3703425e-10 
  119000          298 0.00085911124 -3.3114526e-10 
  120000          298 0.00082074373 -3.0434727e-10 
  121000          298 0.00052578023 -3.0608662e-10 
  122000          298 8.6155432e-05 -3.3353396e-10 
  123000          298 0.00071581831 -3.3602883e-10 
  124000          298 8.445048e-05 -3.5941673e-10 
  125000          298 0.00068564985 -3.433689e-10 
  126000          298 0.00061974058 -3.2677918e-10 
  127000          298 0.00069330944 -3.258896e-10 
  128000          298 0.00060091386 -3.2518815e-10 
  129000          298 0.00033766084 -3.3200575e-10 
  130000          298 0.00070205088 -3.228861e-10 
  131000          298 0.00043097833 -3.2870638e-10 
  132000          298 0.00055624766 -3.1890308e-10 
  133000          298 0.00051265119 -3.1908325e-10 
  134000          298 0.0007164829 -3.149279e-10 
  135000          298 0.00072238202 -3.084572e-10 
  136000          298 3.2633704e-05 -3.3111032e-10 
  137000          298 0.00022926837 -3.3420165e-10 
  138000          298 0.0005278604 -3.421285e-10 
  139000          298 0.0012420075 -3.1363187e-10 
  140000          298 0.0012353144 -2.7254775e-10 
  141000          298 0.00093664685 -2.3497098e-10 
  142000          298 0.00024257625 -2.3838483e-10 
  143000          298 9.042976e-05 -2.587782e-10 
  144000          298 0.00069271161 -2.6111848e-10 
  145000          298 0.00018436031 -2.7094669e-10 
  146000          298 0.00046842605 -2.7311099e-10 
  147000          298 0.00031057353 -2.6563859e-10 
  148000          298 0.0007159476 -2.6346667e-10 
  149000          298 0.00062670438 -2.642329e-10 
  150000          298 0.00021229662 -2.7611831e-10 
  151000          298 0.00049814718 -2.8384006e-10 
  152000          298 0.00021552472 -2.9452394e-10 
  153000          298 6.859206e-05 -2.9704656e-10 
  154000          298 0.00022458015 -2.9988482e-10 
  155000          298 0.00019834689 -3.1247533e-10 
  156000          298 0.00029800139 -3.1147858e-10 
  157000          298 0.0004472504 -3.107739e-10 
  158000          298 0.00072679725 -3.1031589e-10 
  159000          298   0.00016205 -3.1249246e-10 
  160000          298 0.00065798421 -3.0702934e-10 
  161000          298 0.00073323231 -2.8806333e-10 
  162000          298 0.00049702119 -2.8007689e-10 
  163000          298 0.00022438581 -2.9023233e-10 
  164000          298 0.00016115824 -2.8986921e-10 
  165000          298 0.00022947947 -2.9977107e-10 
  166000          298 3.7735476e-05 -3.0454448e-10 
  167000          298 0.00010486803 -3.136065e-10 
  168000          298 0.00044945604 -3.0727961e-10 
  169000          298 0.00058139383 -3.0288377e-10 
  170000          298 0.00046761767 -3.0762474e-10 
  171000          298 0.00019244627 -3.1355952e-10 
  172000          298 3.7941402e-05 -3.145057e-10 
  173000          298 0.0001291881 -3.2169629e-10 
  174000          298 0.00030963283 -3.1620623e-10 
  175000          298 0.00043716972 -3.1896278e-10 
  176000          298 0.0010204507 -3.0370261e-10 
  177000          298  0.001014428 -2.8790865e-10 
  178000          298 0.00022847741 -2.9018301e-10 
  179000          298 0.00094086439 -2.7544067e-10 
  180000          298 0.0006137631 -2.6965785e-10 
  181000          298 0.00019268111 -2.770899e-10 
  182000          298 0.00088926145 -2.6939341e-10 
  183000          298 0.00046123216 -2.683312e-10 
  184000          298 0.00031675906 -2.7295068e-10 
  185000          298 4.2167186e-05 -2.7558057e-10 
  186000          298 0.00022361038 -2.8117947e-10 
  187000          298 0.00064734251 -2.8182306e-10 
  188000          298 0.00064401877 -2.7711248e-10 
  189000          298 0.00016295807 -2.7419995e-10 
  190000          298 0.0005234506 -2.7121585e-10 
  191000          298 0.00058580436 -2.721166e-10 
  192000          298 0.00024414538 -2.7568793e-10 
  193000          298 0.0009595824 -2.6772598e-10 
  194000          298 0.0004589837 -2.6465627e-10 
  195000          298 3.0607779e-05 -2.7325416e-10 
  196000          298 0.0008520752 -2.6912941e-10 
  197000          298 0.0018087096 -2.4010839e-10 
  198000          298 0.0017273294 -2.071802e-10 
  199000          298 0.0011892931 -1.8305353e-10 
  200000          298 0.00026350545 -1.7653796e-10 
  201000          298 0.00058911244 -1.7854758e-10 
  202000          298 0.0011185703 -1.6261384e-10 
  203000          298 0.00092472506 -1.472849e-10 
  204000          298 0.0002268857 -1.4614091e-10 
  205000          298 7.5381705e-05 -1.5541876e-10 
  206000          298 0.00066364505 -1.523106e-10 
  207000          298 0.0010907732 -1.4009463e-10 
  208000          298 0.00093324464 -1.2011859e-10 
  209000          298 0.0012247579 -1.0650191e-10 
  210000          298 0.00081936973 -9.1468957e-11 
  211000          298 0.0014152533 -7.4475874e-11 
  212000          298 0.0021069227 -4.5584526e-11 
  213000          298 0.0026677353 -2.4943588e-12 
  214000          298 0.0029736222 4.9312199e-11 
  215000          298 0.0022813422 8.7032469e-11 
  216000          298 0.0015198771 1.1073232e-10 
  217000          298 0.00089236939 1.1988728e-10 
  218000          298 0.00095306834 1.2405661e-10 
  219000          298 0.0014439985 1.3487571e-10 
  220000          298 0.0013419144 1.5001215e-10 
  221000          298 0.0015752852 1.6244969e-10 
  222000          298 0.0011321837 1.7279065e-10 
  223000          298 0.0010006344 1.8169001e-10 
  224000          298 0.0016177041 1.9099644e-10 
  225000          298 0.00080461859 1.967162e-10 
  226000          298 0.0018481296 2.1007581e-10 
  227000          298 0.00069824279 2.1029954e-10 
  228000          298 0.00099616961 2.1341108e-10 
  229000          298 0.0012079712  2.23306e-10 
  230000          298 0.0017909427 2.3635623e-10 
  231000          298 0.0010031626 2.4376864e-10 
  232000          298 0.00079179277 2.470227e-10 
  233000          298 0.00085968957 2.4966018e-10 
  234000          298 0.0015702675 2.6049548e-10 
  235000          298 0.0021737466 2.8114854e-10 
  236000          298 0.0028901685 3.1434623e-10 
  237000          298 0.0027811494 3.4960293e-10 
  238000          298 0.0019972734 3.7008889e-10 
  239000          298 0.0026474182 3.9543278e-10 
  240000          298 0.0025972889 4.2366087e-10 
  241000          298 0.0021004064 4.4613366e-10 
  242000          298 0.0019510852 4.6073417e-10 
  243000          298 0.0016442622 4.740077e-10 
  244000          298 0.00045594538 4.6918763e-10 
  245000          298 0.00024348746 4.5397537e-10 
  246000          298 0.00011611155 4.4316907e-10 
  247000          298 0.00020365437 4.3344645e-10 
  248000          298 0.00053125478 4.2230907e-10 
  249000          298 0.00021062645 4.0793119e-10 
  250000          298 0.00064221936 3.973155e-10 
  251000          298 0.00040088529 3.8703644e-10 
  252000          298 6.1508178e-05 3.7603709e-10 
  253000          298 0.00012229558 3.6280913e-10 
  254000          298 0.00026149205 3.5298555e-10 
  255000          298 0.00058156933 3.433533e-10 
  256000          298 8.5982653e-05 3.3047402e-10 
  257000          298 0.00092540932 3.2454621e-10 
  258000          298 0.00079936959 3.2112859e-10 
  259000          298 0.00032183816 3.108945e-10 
  260000          298 0.00030970919 3.0515259e-10 
  261000          298 0.00026825965 2.9801394e-10 
  262000          298 0.0003947662 2.902958e-10 
  263000          298 0.00040279025 2.8630023e-10 
  264000          298 0.00023891124 2.7725558e-10 
  265000          298 0.00037433118 2.7155447e-10 
  266000          298 0.00019919231 2.6640915e-10 
  267000          298 0.00078647034 2.6025962e-10 
  268000          298 0.00049393333 2.5431043e-10 
  269000          298 0.00066167968 2.4787138e-10 
  270000          298 0.00019724408 2.4189368e-10 
  271000          298 0.00046229988 2.3426007e-10 
  272000          298 0.00067027705 2.2992542e-10 
  273000          298 0.00015635992 2.2520354e-10 
  274000          298 0.0010134995 2.2163606e-10 
  275000          298 0.0010712358 2.2271925e-10 
  276000          298 0.0010453076 2.2704749e-10 
  277000          298 0.00021054758 2.2297197e-10 
  278000          298 0.0010872135 2.2078583e-10 
  279000          298 0.0016941421 2.2952381e-10 
  280000          298 0.0028299895 2.5042153e-10 
  281000          298 0.0031607294 2.7908842e-10 
  282000          298 0.0021941109 2.9699892e-10 
  283000          298 0.0012595052 3.0421247e-10 
  284000          298 0.0002043476 2.9891635e-10 
  285000          298 0.00066183882 2.9162415e-10 
  286000          298 0.00011232202 2.8268309e-10 
  287000          298 0.00061203415 2.779023e-10 
  288000          298 0.00057590044 2.7214662e-10 
  289000          298 0.00010017262 2.6229353e-10 
  290000          298 0.00045364946 2.5694806e-10 
  291000          298 0.00053921488 2.5353296e-10 
  292000          298 4.3794711e-05 2.4423879e-10 
  293000          298 0.00041868508 2.3746748e-10 
  294000          298 0.00037632476 2.3007417e-10 
  295000          298 0.0017404994 2.3369451e-10 
  296000          298 0.0010826821 2.3725462e-10 
  297000          298 0.00032268897 2.3192158e-10 
  298000          298  0.000615666 2.2607972e-10 
  299000          298 0.00053603383 2.2054722e-10 
  300000          298 0.00015077035 2.1350503e-10 
  301000          298 0.00017815795 2.0883333e-10 
  302000          298 0.00075760861 2.0413094e-10 
  303000          298 0.0014239451 2.0772532e-10 
  304000          298 0.0025414884 2.2187867e-10 
  305000          298 0.0034776762 2.4757075e-10 
  306000          298 0.0024215984 2.664447e-10 
  307000          298 0.0017966925 2.7645801e-10 
  308000          298 0.0013595132 2.8070442e-10 
  309000          298 0.00021918548 2.7381603e-10 
  310000          298 0.0010444903 2.7180969e-10 
  311000          298 0.0014311608 2.7537926e-10 
  312000          298 0.0010478533 2.7538268e-10 
  313000          298 0.00021031317 2.6947591e-10 
  314000          298 0.0011062355 2.6715449e-10 
  315000          298 0.00062038577 2.648495e-10 
  316000          298 0.00019058561 2.5862458e-10 
  317000          298 0.00059142547 2.5238095e-10 
  318000          298 0.00065916254 2.4989294e-10 
  319000          298 0.00085571571 2.4768725e-10 
  320000          298 0.00051025373 2.4424563e-10 
  321000          298 9.6793494e-05 2.3567919e-10 
  322000          298 0.00077773336 2.3135135e-10 
  323000          298 0.0015574725 2.3468875e-10 
  324000          298 0.0016676263 2.4169094e-10 
  325000          298 0.00043903213 2.4079135e-10 
  326000          298 0.00028712455 2.3364714e-10 
  327000          298 0.00017779666 2.2904313e-10 
  328000          298 0.0002856373 2.2474575e-10 
  329000          298 0.00048526292 2.2052054e-10 
  330000          298 0.00055574228 2.156083e-10 
  331000          298 0.0013385106 2.1575298e-10 
  332000          298   0.00136798 2.2012938e-10 
  333000          298 0.00044590985 2.183114e-10 
  334000          298 0.00034343515 2.1355648e-10 
  335000          298 0.00028967034 2.0994355e-10 
  336000          298 0.00052275058 2.0594398e-10 
  337000          298 0.00063199136 2.0265485e-10 
  338000          298 0.00059543491 2.005981e-10 
  339000          298 0.00042557909 1.9485431e-10 
  340000          298 0.00040093734 1.9200477e-10 
  341000          298 0.0002867737 1.8812034e-10 
  342000          298 5.670982e-05 1.8339932e-10 
  343000          298 0.00064646797 1.7856113e-10 
  344000          298 0.00019073224 1.7278058e-10 
  345000          298 0.00018715754 1.6821507e-10 
  346000          298 0.00045384886 1.6310912e-10 
  347000          298 0.0016306832 1.661538e-10 
  348000          298 0.0013523229 1.6964987e-10 
  349000          298 0.00058249049 1.7036528e-10 
  350000          298 0.00014207756 1.6534014e-10 
  351000          298 0.00052099232 1.6206212e-10 
  352000          298 0.00077112733 1.5866426e-10 
  353000          298 0.00048838083 1.5406258e-10 
  354000          298 4.6790121e-05 1.4819365e-10 
  355000          298 0.00061364076 1.4471468e-10 
  356000          298 0.00056759013 1.4197076e-10 
  357000          298 0.00014157392 1.3780355e-10 
  358000          298 0.00055719684 1.3549311e-10 
  359000          298 0.00037023786 1.3081294e-10 
  360000          298 0.0003233681 1.2840994e-10 
  361000          298 0.0001587996 1.2460589e-10 
  362000          298 6.2214448e-05 1.1905537e-10 
  363000          298 0.00016855405 1.1475756e-10 
  364000          298 0.00022572327 1.0946598e-10 
  365000          298 0.00068579867 1.0794974e-10 
  366000          298 0.0004574752 1.0451401e-10 
  367000          298 0.00025906482 1.0021545e-10 
  368000          298 7.9211955e-05 9.6184098e-11 
  369000          298 0.00053964424 9.2767518e-11 
  370000          298  7.49534e-05 8.7337338e-11 
  371000          298 0.00017861668 8.3000284e-11 
  372000          298 0.0003251542 8.0606655e-11 
  373000          298 0.00033569016 7.8358675e-11 
  374000          298 0.00028486448 7.3811932e-11 
  375000          298 0.0001173064 6.978206e-11 
  376000          298 5.4085431e-05 6.5343683e-11 
  377000          298 0.00030793177 6.2101475e-11 
  378000          298 0.00021270292 5.7811241e-11 
  379000          298 0.0014649415 6.0349889e-11 
  380000          298 0.0014853362 6.6078689e-11 
  381000          298 0.00071578576 6.7486739e-11 
  382000          298 0.00027454166 6.4463774e-11 
  383000          298 0.0001639945 6.284876e-11 
  384000          298 0.00053387729 5.9820598e-11 
  385000          298 7.3388525e-05 5.6464327e-11 
  386000          298 0.0010009808 5.5589651e-11 
  387000          298 0.0016124424 6.1184258e-11 
  388000          298 0.0010394319 6.4156144e-11 
  389000          298 0.00021800386 6.1543232e-11 
  390000          298 0.00055004923 5.9918288e-11 
  391000          298 0.00021545963 5.5806942e-11 
  392000          298  0.000275473 5.3686348e-11 
  393000          298 0.00040939388 5.2185968e-11 
  394000          298 0.00056510804 4.9527814e-11 
  395000          298 0.00019635026 4.7031257e-11 
  396000          298 0.00036951009 4.5213734e-11 
  397000          298 0.0005498705 4.393702e-11 
  398000          298 3.5688432e-05 3.9984246e-11 
  399000          298 0.00043441756 3.6875227e-11 
  400000          298 0.0010792515 3.7219094e-11 
  401000          298  0.001000221 4.0290647e-11 
  402000          298 0.00060147877 4.1058509e-11 
  403000          298 0.00023017164 3.8630347e-11 
  404000          298 0.00047101454 3.7541604e-11 
  405000          298 0.00013366335 3.4197323e-11 
  406000          298 0.00048650435 3.3553664e-11 
  407000          298 0.00056744583 3.2008138e-11 
  408000          298 0.00043035416 2.9363402e-11 
  409000          298 6.9563461e-06 2.5956065e-11 
  410000          298 0.00076846412 2.426697e-11 
  411000          298 0.00065861871 2.3399862e-11 
  412000          298 0.00043943171 2.1746567e-11 
  413000          298 0.00024586914 1.9665434e-11 
  414000          298 0.00014021661 1.8105551e-11 
  415000          298 0.00039437115 1.5819164e-11 
  416000          298 0.00016302109 1.4079724e-11 
  417000          298 0.00052545177 1.2878249e-11 
  418000          298 0.0008848679 1.4451899e-11 
  419000          298 0.00094608866 1.5364615e-11 
  420000          298 0.00014196335 1.2451138e-11 
  421000          298 0.00067693843   1.2621e-11 
  422000          298 0.00051331226 1.1020719e-11 
  423000          298 0.00012735038 8.0010545e-12 
  424000          298 0.00040985346 7.3125575e-12 
  425000          298 0.00029464942 5.4479691e-12 
  426000          298 0.00018611557 2.5177508e-12 
  427000          298 0.00064984957 1.7644922e-12 
  428000          298 0.00059732107 4.7077735e-13 
  429000          298 0.00014070805 -2.394704e-12 
  430000          298 0.0008034603 -3.2319659e-12 
  431000          298 0.00050752538 -4.2660504e-12 
  432000          298 0.00026957543 -6.8199712e-12 
  433000          298 0.0001120918 -8.0365885e-12 
  434000          298 0.00035528738 -9.3239603e-12 
  435000          298 0.00074475566 -9.9423612e-12 
  436000          298 0.00019728126 -1.2508986e-11 
  437000          298 0.00039130944  -1.4859e-11 
  438000          298 9.2367072e-05 -1.7632694e-11 
  439000          298 5.1345032e-05 -2.0133039e-11 
  440000          298 0.00012635036 -2.2004874e-11 
  441000          298 0.00042028421 -2.416789e-11 
  442000          298 0.00085052376 -2.3678145e-11 
  443000          298  0.001382746 -1.9537203e-11 
  444000          298 0.00052671905 -1.8593065e-11 
  445000          298 0.00037964575 -2.0242798e-11 
  446000          298  0.001257588 -1.7039324e-11 
  447000          298 0.0017484462 -1.1800701e-11 
  448000          298 0.0020144894 -5.6563586e-12 
  449000          298 0.0013853053 -1.2157181e-12 
  450000          298 0.00092890369 1.3179697e-12 
  451000          298 0.00028001338 -3.6050851e-13 
  452000          298   0.00132934 1.9830933e-12 
  453000          298 0.0011596473 4.7382936e-12 
  454000          298 0.00045202179 4.3150002e-12 
  455000          298 0.00065516638 3.3381178e-12 
  456000          298 0.00018757694 8.3294647e-13 
  457000          298 0.00010304542 -3.3596121e-13 
  458000          298 0.00032711192 -1.4540786e-12 
  459000          298 0.00039552672 -3.0775981e-12 
  460000          298 0.0011434872 -2.3181106e-12 
  461000          298 0.00084217924 -1.2542074e-12 
  462000          298 0.00041219007 -2.7562273e-12 
  463000          298 0.00046372126 -2.9624997e-12 
  464000          298 0.00054156854 -3.5583697e-12 
  465000          298 0.0005137547 -4.5344156e-12 
  466000          298 0.00070866792 -3.5496431e-12 
  467000          298 0.00011008811 -4.5989151e-12 
  468000          298 0.0001695082 -7.2004777e-12 
  469000          298 0.0004091917 -8.0633686e-12 
  470000          298 0.00024336756 -8.8826227e-12 
  471000          298 0.00036294417 -9.6041432e-12 
  472000          298 0.00058941921 -1.0338116e-11 
  473000          298 0.00068210809 -1.0698579e-11 
  474000          298 7.3394691e-05 -1.3336302e-11 
  475000          298 0.00023861746  -1.5392e-11 
  476000          298 0.00068570923 -1.508431e-11 
  477000          298 0.0003792302 -1.4836572e-11 
  478000          298 0.00046576933 -1.6053574e-11 
  479000          298 0.00079413765 -1.4833357e-11 
  480000          298 0.00035332241 -1.5501316e-11 
  481000          298 0.0003685611 -1.6949044e-11 
  482000          298 0.00070162998 -1.6516535e-11 
  483000          298 0.0003612247 -1.6986888e-11 
  484000          298 0.0005723695 -1.7819221e-11 
  485000          298 0.00043265648 -1.9433884e-11 
  486000          298 0.00010238114 -2.1151919e-11 
  487000          298 0.00055181663 -2.1532409e-11 
  488000          298 0.00059884383 -2.2337019e-11 
  489000          298 0.00019748177 -2.4203922e-11 
  490000          298 0.00093363263 -2.3943157e-11 
  491000          298 0.0010129559 -2.0599362e-11 
  492000          298 0.0002159166 -2.1435271e-11 
  493000          298 5.6488453e-05 -2.3800417e-11 
  494000          298 0.00065251055 -2.4588194e-11 
  495000          298 0.0017698364 -2.1626471e-11 
  496000          298 0.00044179672 -2.1083318e-11 
  497000          298 0.00019397569 -2.2864543e-11 
  498000          298 0.00014491021 -2.4097334e-11 
  499000          298 0.00062636052 -2.4848683e-11 
  500000          298 0.00025099501 -2.6670819e-11 
  501000          298 0.00010207855 -2.8342954e-11 
  502000          298 0.00032837937 -2.9341574e-11 
  503000          298 0.00030930992 -3.0929385e-11 
  504000          298  0.001735702 -2.8288613e-11 
  505000          298 0.0011196911 -2.5821288e-11 
  506000          298 0.00035670734 -2.6616054e-11 
  507000          298 0.00048181726 -2.656544e-11 
  508000          298 0.00038475115 -2.7431378e-11 
  509000          298 0.00037369267 -2.862644e-11 
  510000          298 0.00044156201 -2.8383976e-11 
  511000          298 0.00022350258 -2.9361666e-11 
  512000          298 0.00043534402 -3.0295362e-11 
  513000          298 0.00077978071 -3.0259603e-11 
  514000          298 5.9856558e-05 -3.1939597e-11 
  515000          298 0.00031854693 -3.352931e-11 
  516000          298 0.00012088848 -3.5218543e-11 
  517000          298 0.00022051123 -3.6577773e-11 
  518000          298 0.00010264932 -3.8543842e-11 
  519000          298 0.00080239883 -3.8641952e-11 
  520000          298 0.00099617064 -3.7615447e-11 
  521000          298 0.00041528753 -3.7842871e-11 
  522000          298 0.00090736653 -3.7828409e-11 
  523000          298 0.00042732926 -3.8237221e-11 
  524000          298 0.00081909888 -3.8644516e-11 
  525000          298 0.00033825986 -3.9801389e-11 
  526000          298 0.0011551299 -3.8852922e-11 
  527000          298  0.001493485 -3.4850448e-11 
  528000          298 0.00046224036 -3.4465373e-11 
  529000          298 0.00036763971 -3.5805784e-11 
  530000          298 0.00010322923 -3.6611776e-11 
  531000          298 0.00059477105 -3.728633e-11 
  532000          298 0.00018949804 -3.8311268e-11 
  533000          298 0.00082069232 -3.7915105e-11 
  534000          298 0.0012939068 -3.551113e-11 
  535000          298 0.00074187375 -3.4485345e-11 
  536000          298 0.00045219246 -3.5336476e-11 
  537000          298 4.4254596e-05 -3.6311327e-11 
  538000          298 0.00073080866 -3.6523053e-11 
  539000          298 0.00068754412 -3.6771942e-11 
  540000          298 0.00047373905 -3.7589015e-11 
  541000          298 0.0005995561 -3.8132819e-11 
  542000          298 0.00031569707 -3.8482572e-11 
  543000          298 0.00034098097 -3.9797246e-11 
  544000          298 0.00014764666 -4.0777276e-11 
  545000          298 0.00041330553 -4.1387502e-11 
  546000          298 0.00050458218 -4.1846201e-11 
  547000          298 0.00064550049 -4.199668e-11 
  548000          298 0.00023659603 -4.3463185e-11 
  549000          298 8.8987656e-05 -4.4207797e-11 
  550000          298 0.00049759821 -4.4362926e-11 
  551000          298 0.00050126294 -4.4900071e-11 
  552000          298 0.00010134264 -4.6318364e-11 
  553000          298 0.00074429767 -4.6131951e-11 
  554000          298 0.00054636058 -4.5588633e-11 
  555000          298 9.8315659e-05 -4.6306315e-11 
  556000          298 0.00032353992 -4.7354627e-11 
  557000          298 0.0010127564 -4.6142861e-11 
  558000          298 0.00055335123 -4.6195417e-11 
  559000          298 0.00017312755 -4.7504826e-11 
  560000          298 0.00082554927 -4.7356292e-11 
  561000          298 0.00039802564 -4.7143805e-11 
  562000          298 0.00020880797 -4.8225707e-11 
  563000          298 0.00026405331 -4.8818899e-11 
  564000          298 0.00015948453 -5.0277965e-11 
  565000          298 0.00030186605 -5.0572507e-11 
  566000          298 0.00041971456 -5.1257242e-11 
  567000          298 0.0006915652 -5.137247e-11 
  568000          298 0.0002797997 -5.202835e-11 
  569000          298 0.00024914946 -5.240558e-11 
  570000          298 0.00018133162 -5.2685116e-11 
  571000          298 9.712032e-05 -5.390851e-11 
  572000          298 0.0003592905 -5.4119943e-11 
  573000          298 0.00058409632 -5.4318541e-11 
  574000          298 5.5595671e-05 -5.5651968e-11 
  575000          298 0.00052694488 -5.6293972e-11 
  576000          298 0.00075135672 -5.5951587e-11 
  577000          298 0.00027873003 -5.648175e-11 
  578000          298 0.0006625868 -5.6907711e-11 
  579000          298 0.00075083899 -5.6528068e-11 
  580000          298 0.0003937487 -5.6702629e-11 
  581000          298 4.5091018e-05 -5.8008766e-11 
  582000          298 0.00061416762 -5.7863772e-11 
  583000          298 0.00048627189 -5.791392e-11 
  584000          298 0.00050091923 -5.8053055e-11 
  585000          298 0.00073032193 -5.8318119e-11 
  586000          298 0.00027420186 -5.9060999e-11 
  587000          298 0.0010491743 -5.8385068e-11 
  588000          298 0.0007531707 -5.7471686e-11 
  589000          298 0.00026162871 -5.7982879e-11 
  590000          298 0.00028956968 -5.849953e-11 
  591000          298 0.0007927123 -5.8037647e-11 
  592000          298 0.00023369679 -5.8969815e-11 
  593000          298 0.0013825423 -5.7178202e-11 
  594000          298 0.0017954438 -5.3868442e-11 
  595000          298  0.001030537 -5.2187617e-11 
  596000          298 0.00020804003 -5.2306921e-11 
  597000          298 0.00097342853 -5.192421e-11 
  598000          298 0.00072696383 -5.1365805e-11 
  599000          298 0.00016946243 -5.2326256e-11 
  600000          298  4.56801e-05 -5.2704277e-11 
  601000          298 0.00046493856 -5.3411472e-11 
  602000          298 0.00056135717 -5.3620126e-11 
  603000          298 0.00021280053 -5.3800646e-11 
  604000          298 3.2624761e-05 -5.5088543e-11 
  605000          298  0.000102415 -5.5540853e-11 
  606000          298 0.00071875406 -5.5874609e-11 
  607000          298 0.00065344113 -5.5963249e-11 
  608000          298 0.00049219474 -5.6350002e-11 
  609000          298 0.00076550738 -5.6221809e-11 
  610000          298 0.00051802111 -5.6279501e-11 
  611000          298 0.00084651268 -5.6363215e-11 
  612000          298 0.00028486228 -5.7094638e-11 
  613000          298 0.00095761823 -5.6558284e-11 
  614000          298  0.001682897 -5.4210735e-11 
  615000          298 0.0010080765 -5.2330779e-11 
  616000          298 0.00012134523 -5.3058217e-11 
  617000          298 0.00023697086 -5.4012386e-11 
  618000          298 0.00075690179 -5.3865157e-11 
  619000          298 0.00084895837 -5.2953978e-11 
  620000          298 0.0011164096 -5.1764036e-11 
  621000          298  0.001133653 -4.9616459e-11 
  622000          298 0.0019243193 -4.6457509e-11 
  623000          298 0.0012150177 -4.4992195e-11 
  624000          298 0.00055380711 -4.4623955e-11 
  625000          298 0.0012187032 -4.3499411e-11 
  626000          298 0.0012362804 -4.2544075e-11 
  627000          298 0.00072533371 -4.1900314e-11 
  628000          298 0.00059313928 -4.0953265e-11 
  629000          298 0.00088294082 -4.0429463e-11 
  630000          298 0.00076051438 -3.9484141e-11 
  631000          298 0.0014286738 -3.7061971e-11 
  632000          298 0.0013358787 -3.5723233e-11 
  633000          298  0.000869756 -3.5165762e-11 
  634000          298 0.0011431158 -3.401518e-11 
  635000          298 0.0017537271 -3.1981499e-11 
  636000          298 0.00085692032 -3.1030863e-11 
  637000          298  0.001243584 -2.9034496e-11 
  638000          298 0.0016190181 -2.6483329e-11 
  639000          298 0.0013182146 -2.4845583e-11 
  640000          298 0.0010021774 -2.4232209e-11 
  641000          298 0.0015134856 -2.2710778e-11 
  642000          298 0.0013911307 -2.0648041e-11 
  643000          298 0.0014129485 -1.8949964e-11 
  644000          298 0.0014908615 -1.6894601e-11 
  645000          298 0.00089179809 -1.5947724e-11 
  646000          298 0.0011055882 -1.5123331e-11 
  647000          298 0.0013879951 -1.3498463e-11 
  648000          298 0.0010115002 -1.195436e-11 
  649000          298 0.0013190105 -1.0190688e-11 
  650000          298 0.0011353465 -8.6751958e-12 
  651000          298 0.0012681629 -7.7977651e-12 
  652000          298 0.00050510551 -7.9904723e-12 
  653000          298 0.0012050191 -7.1254906e-12 
  654000          298  0.001585752 -5.7089813e-12 
  655000          298 0.0010069974 -4.299716e-12 
  656000          298 0.00054009866 -3.9019264e-12 
  657000          298 0.0011870445 -3.1605326e-12 
  658000          298 0.00099361601 -2.7823724e-12 
  659000          298 0.0010841025 -1.747641e-12 
  660000          298 0.0014992183 3.8161529e-13 
  661000          298 0.00099408455 1.3729826e-12 
  662000          298 0.00067287845 1.5384587e-12 
  663000          298 0.00052084875 2.0645719e-12 
  664000          298 0.0010807357 2.6325405e-12 
  665000          298 0.0016889111 3.9895385e-12 
  666000          298 0.0010731624 5.1773896e-12 
  667000          298 0.00067443783 5.6143259e-12 
  668000          298 0.0013131649 6.1972921e-12 
  669000          298 0.00071016059 6.1941032e-12 
  670000          298 0.0010396462 7.0406929e-12 
  671000          298 0.0017967019 8.7850833e-12 
  672000          298 0.00087777698 9.5628004e-12 
  673000          298 0.00058974106 9.942829e-12 
  674000          298 0.00096538876 1.0590535e-11 
  675000          298 0.0011589058 1.1326817e-11 
  676000          298  0.001323266 1.234007e-11 
  677000          298 0.0013770367 1.3989314e-11 
  678000          298 0.00099418265 1.5023687e-11 
  679000          298 0.0011105684 1.582052e-11 
  680000          298 0.0012401566 1.6541423e-11 
  681000          298 0.0010136101 1.6852099e-11 
  682000          298 0.0005609248 1.6909008e-11 
  683000          298 0.0011373829 1.7640194e-11 
  684000          298 0.0015628814 1.9326567e-11 
  685000          298 0.0010562168 2.0177775e-11 
  686000          298 0.00070001653 2.050983e-11 
  687000          298 0.00088501746 2.0993008e-11 
  688000          298 0.0010047083 2.1069819e-11 
  689000          298  0.001290973 2.1989548e-11 
  690000          298 0.00099067881 2.3345228e-11 
  691000          298 0.00089473727 2.3883551e-11 
  692000          298 0.00057070333 2.3381892e-11 
  693000          298 0.0008131485 2.4012954e-11 
  694000          298 0.0015724502 2.5711528e-11 
  695000          298 0.0012432289 2.6387307e-11 
  696000          298 0.00037020278 2.5958868e-11 
  697000          298 0.00093885873 2.5889127e-11 
  698000          298 0.0010407182 2.6542736e-11 
  699000          298 0.0010484294 2.8119328e-11 
  700000          298 0.0010467632 2.8630338e-11 
  701000          298 0.00050421355 2.8063835e-11 
  702000          298  0.001006144 2.8627084e-11 
  703000          298 0.0019223897 3.0191773e-11 
  704000          298 0.0010261706 3.0788178e-11 
  705000          298 0.0005312683 3.0633634e-11 
  706000          298 0.00075041616 3.1094415e-11 
  707000          298  0.001075369 3.1551287e-11 
  708000          298 0.0015603985 3.2721815e-11 
  709000          298 0.0012697444 3.423937e-11 
  710000          298 0.00096639106 3.4855922e-11 
  711000          298 0.00093754872 3.5264665e-11 
  712000          298 0.00084999174 3.5746203e-11 
  713000          298 0.0015042249 3.7060765e-11 
  714000          298 0.00094994088 3.7588576e-11 
  715000          298 0.0012098449 3.8674688e-11 
  716000          298 0.00088853239 3.8824733e-11 
  717000          298 0.00035379692 3.839661e-11 
  718000          298 0.00023183908 3.7235016e-11 
  719000          298 0.00076453647 3.6881396e-11 
  720000          298 0.0008756749 3.7069502e-11 
  721000          298 0.00022322888 3.6006086e-11 
  722000          298 0.0001033374 3.5429021e-11 
  723000          298 0.00086485822 3.4914943e-11 
  724000          298 0.00053600569 3.4493774e-11 
  725000          298 0.00037955888 3.3858512e-11 
  726000          298 0.00010103215 3.2998537e-11 
  727000          298 0.0001604689 3.2210576e-11 
  728000          298 0.00012434343 3.1075054e-11 
  729000          298 0.00065008573 3.0301944e-11 
  730000          298 5.1266975e-05 2.9128255e-11 
  731000          298 0.00096957655 2.906974e-11 
  732000          298 0.0016651466 3.0650521e-11 
  733000          298 0.0018375382 3.2471213e-11 
  734000          298 0.0011443667 3.3403894e-11 
  735000          298 0.0001767577 3.2714194e-11 
  736000          298 0.00083571347 3.2239216e-11 
  737000          298 0.00017325801 3.1281115e-11 
  738000          298 0.00090098525 3.1203393e-11 
  739000          298 0.0014677135 3.2170333e-11 
  740000          298 0.00078069299 3.2260619e-11 
  741000          298 8.2612761e-05 3.1306078e-11 
  742000          298  0.000143651 3.0118104e-11 
  743000          298 0.00033804485 2.9399382e-11 
  744000          298 0.00019619488 2.8663622e-11 
  745000          298 0.00076779679 2.8159042e-11 
  746000          298 3.0489504e-05 2.6883802e-11 
  747000          298 0.00041730375 2.6358201e-11 
  748000          298 0.00059642742 2.5917032e-11 
  749000          298 0.00043248646 2.5066219e-11 
  750000          298 1.7050856e-05 2.4127534e-11 
  751000          298 0.00053490214 2.3510104e-11 
  752000          298 0.00011595913 2.238301e-11 
  753000          298 0.00091017849 2.2514146e-11 
  754000          298 0.0012568082 2.3445375e-11 
  755000          298 0.00094319303 2.414543e-11 
  756000          298 0.00011274846 2.3288042e-11 
  757000          298 0.00056178333 2.2665318e-11 
  758000          298 0.00026050427 2.1723783e-11 
  759000          298 6.7322988e-05 2.1070444e-11 
  760000          298 0.00028899163 2.0476665e-11 
  761000          298 0.00036755589 1.9593691e-11 
  762000          298 0.00010820919 1.8641428e-11 
  763000          298 0.00085342543 1.8318512e-11 
  764000          298 0.0016360787 1.9618442e-11 
  765000          298 0.00035362021 1.9559281e-11 
  766000          298 0.00053869133 1.8957826e-11 
  767000          298 0.00074135737 1.9214601e-11 
  768000          298 0.00010815509 1.8580763e-11 
  769000          298 0.00043980017 1.8184218e-11 
  770000          298 0.0006038918 1.7562322e-11 
  771000          298 0.00093897027 1.778059e-11 
  772000          298 0.00049294098 1.7312389e-11 
  773000          298 0.00038893742 1.6774956e-11 
  774000          298 0.0010229996 1.6927143e-11 
  775000          298 0.0014358158 1.8043773e-11 
  776000          298 0.0003137424 1.7948372e-11 
  777000          298 0.00084198601 1.7769755e-11 
  778000          298 0.0012898961 1.8895074e-11 
  779000          298 0.0016671822 2.0312747e-11 
  780000          298 0.0013691088 2.1411843e-11 
  781000          298 0.00028810628 2.0852981e-11 
  782000          298 0.0011258626 2.0861061e-11 
  783000          298 0.0013344652 2.1643554e-11 
  784000          298 0.00092682211 2.203998e-11 
  785000          298 0.00019850557 2.1786731e-11 
  786000          298 0.0010533527 2.1708572e-11 
  787000          298 0.0012693961 2.2461422e-11 
  788000          298 0.00040383612 2.2478975e-11 
  789000          298 0.00034790614 2.1722164e-11 
  790000          298 0.0001029132 2.1245439e-11 
  791000          298 1.9901285e-05 2.020829e-11 
  792000          298 0.00029571018 1.9609607e-11 
  793000          298 0.00062434664 1.9110161e-11 
  794000          298 0.0001085817 1.8092563e-11 
  795000          298 0.00027006128 1.7269479e-11 
  796000          298 0.0002377555 1.6727298e-11 
  797000          298 0.0001573965 1.6294247e-11 
  798000          298 0.00060849028 1.6003356e-11 
  799000          298 0.00047973902 1.5435851e-11 
  800000          298 6.9568612e-05 1.4502825e-11 
  801000          298 0.0009353101 1.4253245e-11 
  802000          298 0.0014332956 1.5001231e-11 
  803000          298 0.0014931835 1.6055001e-11 
  804000          298 0.00037992251 1.6174526e-11 
  805000          298 0.00051553425 1.5736211e-11 
  806000          298 0.0012782023 1.6640213e-11 
  807000          298 0.0012625997 1.7611653e-11 
  808000          298 0.0013245275 1.8332651e-11 
  809000          298 0.00041756466 1.7892361e-11 
  810000          298 0.0013272851 1.8278869e-11 
  811000          298  0.001451524 1.9593502e-11 
  812000          298 0.00026987902 1.9279425e-11 
  813000          298 6.0423575e-05 1.826268e-11 
  814000          298 0.00030689396 1.7808406e-11 
  815000          298 0.00067273649 1.7609715e-11 
  816000          298 0.00011116059 1.6725545e-11 
  817000          298 0.0007445439 1.6246621e-11 
  818000          298 9.424589e-05 1.5340364e-11 
  819000          298 0.00063409889 1.5343776e-11 
  820000          298 0.00037393261 1.5069192e-11 
  821000          298 0.00030083653 1.4712329e-11 
  822000          298 0.00066216932 1.4469147e-11 
  823000          298 0.00042419483 1.3883389e-11 
  824000          298 0.0016033505 1.4620241e-11 
  825000          298 0.0011807351 1.5605464e-11 
  826000          298 0.00033827169 1.5268204e-11 
  827000          298 0.00094999529 1.5151751e-11 
  828000          298 0.0003048485 1.4470147e-11 
  829000          298 0.00042931116 1.4137845e-11 
  830000          298 0.00068046755 1.4092482e-11 
  831000          298 0.00067091049 1.3787018e-11 
  832000          298 0.0011953227 1.4438728e-11 
  833000          298 0.00079241981 1.5146481e-11 
  834000          298 0.00032423549 1.4608095e-11 
  835000          298  0.001355029 1.5290615e-11 
  836000          298 0.00098974366 1.599126e-11 
  837000          298 0.00037731347 1.5521855e-11 
  838000          298 0.0012910278 1.5790456e-11 
  839000          298 0.00099401829 1.6230283e-11 
  840000          298 0.00040423969 1.585974e-11 
  841000          298 0.0004499374 1.5559303e-11 
  842000          298 0.00072181883 1.5508172e-11 
  843000          298 0.00021956367 1.495083e-11 
  844000          298 0.00071075349 1.5050024e-11 
  845000          298 0.00015260651 1.4571053e-11 
  846000          298 0.00051795727 1.4370113e-11 
  847000          298 0.00058859198 1.4017445e-11 
  848000          298 0.0014133968 1.4557017e-11 
  849000          298 0.00063138968 1.4545342e-11 
  850000          298 6.5745703e-05 1.3790952e-11 
  851000          298 0.00018549668 1.3202103e-11 
  852000          298 0.00022105137 1.2385828e-11 
  853000          298 0.00052049437 1.2202058e-11 
  854000          298 0.00023028873 1.1924835e-11 
  855000          298 0.00036188725 1.1628919e-11 
  856000          298 0.00051857324 1.1479024e-11 
  857000          298 0.00033097477 1.1057095e-11 
  858000          298 0.00039119375 1.0941989e-11 
  859000          298 0.00041736921 1.0525883e-11 
  860000          298 0.0003469174 1.0138313e-11 
  861000          298 0.00029984439 9.7325696e-12 
  862000          298 0.00020984465  9.44322e-12 
  863000          298 0.0001653152 8.7781192e-12 
  864000          298 0.0001756495 8.4905871e-12 
  865000          298 0.00069213046 8.1635534e-12 
  866000          298 0.0014072995 8.8195536e-12 
  867000          298 0.0023465768 1.0631033e-11 
  868000          298 0.0031171851 1.3674204e-11 
  869000          298 0.0025001274 1.6336022e-11 
  870000          298 0.0022163691 1.8270421e-11 
  871000          298 0.0028814817 2.088457e-11 
  872000          298 0.0025498176 2.3460108e-11 
  873000          298 0.0023017495 2.5501945e-11 
  874000          298 0.0020387975 2.7340371e-11 
  875000          298 0.0015530595 2.8505238e-11 
  876000          298 0.0008456511  2.89202e-11 
  877000          298 0.00077959449 2.9127914e-11 
  878000          298 0.0012420571 2.9437201e-11 
  879000          298 0.0011211997 2.9673843e-11 
  880000          298 0.0010922673 3.0079197e-11 
  881000          298 0.0016795183 3.1117867e-11 
  882000          298 0.0013624553 3.1933614e-11 
  883000          298  0.001345039 3.2598426e-11 
  884000          298 0.0012920508 3.3487421e-11 
  885000          298 0.0011325283 3.3712142e-11 
  886000          298 0.0013429226 3.4037516e-11 
  887000          298 0.0017053878 3.5053348e-11 
  888000          298 0.0015539133 3.6097543e-11 
  889000          298 0.00080461066 3.6453524e-11 
  890000          298 0.00085563619 3.6579859e-11 
  891000          298 0.0011671599 3.7078637e-11 
  892000          298 0.0013337077  3.81016e-11 
  893000          298 0.0016073138 3.8753996e-11 
  894000          298 0.0013543343 3.9198436e-11 
  895000          298 0.0011450916 4.0174127e-11 
  896000          298 0.0010511401 4.0481806e-11 
  897000          298  0.001292027 4.0664727e-11 
  898000          298 0.0010132606 4.0682582e-11 
  899000          298 0.0011297465 4.1052179e-11 
  900000          298 0.0013966167 4.2161934e-11 
  901000          298 0.0016068653 4.2736703e-11 
  902000          298 0.0012703006 4.3135052e-11 
  903000          298  0.001223177 4.4065821e-11 
  904000          298 0.00094078339 4.4325473e-11 
  905000          298 0.00079009895 4.4335307e-11 
  906000          298 0.0014951726 4.5019334e-11 
  907000          298 0.0017611559 4.6099785e-11 
  908000          298 0.0013885219 4.6846777e-11 
  909000          298 0.0010246592 4.6929356e-11 
  910000          298 0.0013294186 4.7210892e-11 
  911000          298 0.0014399111 4.8037185e-11 
  912000          298 0.0012799049 4.8446421e-11 
  913000          298 0.00091657202 4.8573567e-11 
  914000          298 0.0012597661 4.9329862e-11 
  915000          298 0.00084827197 4.9329928e-11 
  916000          298 0.0012114874 5.0037774e-11 
  917000          298 0.0011438455 5.018635e-11 
  918000          298 0.00089240096 5.0781985e-11 
  919000          298 0.0017218494 5.1288164e-11 
  920000          298 0.0009650588 5.1558698e-11 
  921000          298 0.00047690405 5.1282512e-11 
  922000          298 0.00010140027 5.0527661e-11 
  923000          298 0.00024344129 4.9726821e-11 
  924000          298 6.3273441e-05 4.9094658e-11 
  925000          298 0.00078005925 4.8645041e-11 
  926000          298 0.00080133978 4.8513251e-11 
  927000          298 0.00047665963 4.8368513e-11 
  928000          298 0.00028990271 4.7761572e-11 
  929000          298 0.00039108086 4.7520027e-11 
  930000          298 0.00011278132 4.6721986e-11 
  931000          298 0.00045992897 4.6397875e-11 
  932000          298 0.0007021788 4.6189848e-11 
  933000          298 0.00071305033 4.5721751e-11 
  934000          298 0.00032544403 4.5046798e-11 
  935000          298 0.00012268258 4.4359265e-11 
  936000          298 3.6831086e-05 4.3489116e-11 
  937000          298 0.00027575988 4.3028602e-11 
  938000          298 0.00084557392 4.2829696e-11 
  939000          298 0.00022999898 4.2123081e-11 
  940000          298 0.00072053744 4.1737147e-11 
  941000          298 0.00052024445 4.1407618e-11 
  942000          298 0.00013309637 4.0855245e-11 
  943000          298  0.000652022 4.0403044e-11 
  944000          298 0.0001560262 3.9893859e-11 
  945000          298 0.00088042049 3.9691419e-11 
  946000          298 0.0015855812 4.0494636e-11 
  947000          298 0.0011820324 4.1065884e-11 
  948000          298 0.00021516797 4.0515263e-11 
  949000          298 0.00090830461 4.0327575e-11 
  950000          298 0.00022374223 3.9657317e-11 
  951000          298 0.00054122077 3.9192866e-11 
  952000          298 0.00077211768 3.9004386e-11 
  953000          298 0.00029625021 3.8393477e-11 
  954000          298 0.00010808232 3.7928407e-11 
  955000          298 0.00036531782 3.751407e-11 
  956000          298 0.00037410827 3.6975285e-11 
  957000          298 0.00097560465 3.7096698e-11 
  958000          298 0.00039957252 3.6864157e-11 
  959000          298 0.00067138856 3.6448083e-11 
  960000          298 0.00031377991 3.5952061e-11 
  961000          298 0.00053497449 3.5673362e-11 
  962000          298 0.00049327504 3.5350375e-11 
  963000          298 0.00081335433 3.5004839e-11 
  964000          298 0.00043052567 3.4552627e-11 
  965000          298  0.001019333 3.4495475e-11 
  966000          298 0.00060515032 3.4537929e-11 
  967000          298 0.00018379071 3.4034233e-11 
  968000          298 0.00040982518 3.3511045e-11 
  969000          298 0.00085091282 3.3400461e-11 
  970000          298 0.00026221838 3.3078094e-11 
  971000          298 2.0471853e-06 3.2281377e-11 
  972000          298 0.00038023831 3.1867653e-11 
  973000          298 0.00056647854 3.1409113e-11 
  974000          298 0.00096328594 3.1407712e-11 
  975000          298 0.00017376104 3.0939364e-11 
  976000          298 0.00042975349 3.0525458e-11 
  977000          298 0.0007597183 3.0130399e-11 
  978000          298 0.00041094447 2.9630115e-11 
  979000          298 0.00030274311 2.9232258e-11 
  980000          298 0.00018426517 2.8749978e-11 
  981000          298 0.00059139466 2.8374861e-11 
  982000          298 7.6145971e-05 2.7639378e-11 
  983000          298 0.00041233929 2.7145893e-11 
  984000          298 0.00043596067 2.6892036e-11 
  985000          298 0.00016463325 2.6428174e-11 
  986000          298 0.00011717124 2.5730971e-11 
  987000          298 0.00066892025 2.5476395e-11 
  988000          298 0.00092860039 2.5487231e-11 
  989000          298 5.3542907e-05 2.4804903e-11 
  990000          298 0.0004652855 2.449074e-11 
  991000          298 0.00021347526 2.3869496e-11 
  992000          298  0.000633239 2.3875357e-11 
  993000          298 0.00024878571 2.3547542e-11 
  994000          298 0.00033796117 2.3342199e-11 
  995000          298 0.00056071428 2.3076248e-11 
  996000          298 0.00036866243 2.2847927e-11 
  997000          298 0.00030696699 2.2262668e-11 
  998000          298 3.1884903e-05 2.1703157e-11 
  999000          298 0.00051523035 2.1352804e-11 
 1000000          298 0.00063353564 2.1027169e-11 
Loop time of 916.869 on 1 procs for 1000000 steps with 2431 atoms

Performance: 94.234 ns/day, 0.255 hours/ns, 1090.668 timesteps/s
99.9% CPU use with 1 MPI tasks x no OpenMP threads

MPI task timing breakdown:
Section |  min time  |  avg time  |  max time  |%varavg| %total
---------------------------------------------------------------
Pair    | 20.181     | 20.181     | 20.181     |   0.0 |  2.20
Bond    | 763.09     | 763.09     | 763.09     |   0.0 | 83.23
Neigh   | 39.261     | 39.261     | 39.261     |   0.0 |  4.28
Comm    | 62.56      | 62.56      | 62.56      |   0.0 |  6.82
Output  | 2.8803     | 2.8803     | 2.8803     |   0.0 |  0.31
Modify  | 10.036     | 10.036     | 10.036     |   0.0 |  1.09
Other   |            | 18.86      |            |       |  2.06

Nlocal:    2431 ave 2431 max 2431 min
Histogram: 1 0 0 0 0 0 0 0 0 0
Nghost:    16166 ave 16166 max 16166 min
Histogram: 1 0 0 0 0 0 0 0 0 0
Neighs:    1177 ave 1177 max 1177 min
Histogram: 1 0 0 0 0 0 0 0 0 0

Total # of neighbors = 1177
Ave neighs/atom = 0.484163
Ave special neighs/atom = 6.58988
Neighbor list builds = 547
Dangerous builds = 0
unfix           3
unfix           5
undump          NiPyC2_experiment_with_Ar_xyzmov

Total wall time: 0:15:16
