LAMMPS (3 Mar 2020)
log             log.NiPyC2_experiment_with_Xe append
