
# --------------------------------- Initialization -------------------------------------- #
units           real
atom_style      full
boundary        p p p

pair_style      lj/cut 14.000
bond_style      harmonic
angle_style     cosine/periodic
dihedral_style  harmonic
improper_style  fourier

special_bonds   lj/coul 0.0 0.0 1.0
#dielectric      1.0
pair_modify     tail yes mix arithmetic
box tilt        large
read_data       data.Pn_Ni-PyC-NH2_with_Xe
  triclinic box = (0 0 0) to (31.854 35.6358 28.3672) with tilt (0 0.013863 0)
  1 by 1 by 1 MPI processor grid
  reading atoms ...
  2233 atoms
  scanning bonds ...
  6 = max bonds/atom
  scanning angles ...
  15 = max angles/atom
  scanning dihedrals ...
  12 = max dihedrals/atom
  scanning impropers ...
  3 = max impropers/atom
  reading bonds ...
  2592 bonds
  reading angles ...
  4824 angles
  reading dihedrals ...
  5184 dihedrals
  reading impropers ...
  3456 impropers
  6 = max # of 1-2 neighbors
  9 = max # of 1-3 neighbors
  12 = max # of special neighbors
  special bonds CPU = 0.000760859 secs
  read_data CPU = 0.0350733 secs

#### Atom Groupings ####
group           xe       id   2233   # 63
1 atoms in group xe
group           fram     id   1:2232 # 1:62 64:2233
2232 atoms in group fram
#### END Atom Groupings ####

###
# Speed up Calculations by exluding framework-framework interactions
#   since we are keeping the framework rigid and stationary
#
# neigh_modify keyword values ...
# keyword = exclude
# values  = group group1-ID group2-ID
#
# group1-ID, group2-ID = exclude if one atom is in 1st group, other in 2nd
###
neigh_modify exclude group fram fram

# ----------------------------- Variables ---------------------- #
dump            Pn_Ni-PyC-NH2_with_Xe_xyzmov all xyz 1000 Pn_Ni-PyC-NH2_with_Xe_mov.xyz
dump_modify     Pn_Ni-PyC-NH2_with_Xe_xyzmov element Ni O C H N Xe
variable        dt         equal 1.00
variable        tdamp      equal 100*${dt}
variable        tdamp      equal 100*1
variable        eqtemp     equal 298.00

# ------------------------------ Equilibriation -------------------------------------------- #
# we do not need to perform equilibriation since we are using a rigid framework
# and the (single) adsorbate has already been inserted into the material via GCMC
# which already included an equilibriation phase.
#fix             1 1 langevin 298.00 298.00 ${tdamp} 1305871
#fix             2 1 nve
#fix             3 fram langevin 298.00 298.00 ${tdamp} 1500201
#fix             4 fram nve
#thermo          0
#run             200000
#unfix           1
#unfix           2
#unfix           3
#unfix           4

# --------------------- Production (data gathering) --------------------------------------- #
# A simple way to hold atoms stationary is to not include those atoms in your time integration.
#reset_timestep  0

fix             1 xe nvt temp ${eqtemp} ${eqtemp} ${tdamp}
fix             1 xe nvt temp 298 ${eqtemp} ${tdamp}
fix             1 xe nvt temp 298 298 ${tdamp}
fix             1 xe nvt temp 298 298 100
#fix             6 fram nvt temp 298.00 298.00 ${tdamp}


###
#  mean-squared disp of grp 1
#
# A vector of four quantities is calculated by this compute:
# The first 3 elements of the vector are the squared dx,dy,dz displacements, summed and averaged over atoms in the group.
# The fourth element is the total squared displacement, i.e. (dx*dx + dy*dy + dz*dz),
#  summed and averaged over atoms in the group.
#
# The slope of the MSD versus time is proportional to the diffusion coefficient.
# MSD values can be accumulated in a vector via the fix vector command,
#   and a line fit to the vector to compute its slope via the variable slope function,
#   and thus extract D.
#
# fix ID group-ID vector Nevery value1 value2 ...
#
# c_ID[I] = Ith component of global vector calculated by a compute with ID
# f_ID = global scalar calculated by a fix with ID
# v_name = value calculated by an equal-style variable with name
#
# variable name style args...
#
# The slope() function uses linear regression to fit a line to the set of points,
#   equally spaced by 1 in their x coordinate: (1,V1), (2,V2), …, (N,VN),
#   where the Vi are the values in the global vector of length N.
#   The returned value is the slope of the line.
#   If the line has a single point or is vertical, it returns 1.0e20.
###
compute         msd all msd com yes
#variable        twopoint equal c_msd[4]/6/(step*dt+1.0e-6) # scaled r_sqr(t)... not used? idk what this is for...
fix             2 xe vector 500 c_msd[4]
variable        fitslope equal slope(f_2)/6/(500*dt) # why dividing slope?

thermo_style    custom step v_eqtemp c_msd[4] v_fitslope # prints this info to log file



thermo          1000
run             1000000
Neighbor list info ...
  update every 1 steps, delay 10 steps, check yes
  max neighbors/atom: 2000, page size: 100000
  master list distance cutoff = 16
  ghost atom cutoff = 16
  binsize = 8, bins = 4 5 4
  1 neighbor lists, perpetual/occasional/extra = 1 0 0
  (1) pair lj/cut, perpetual
      attributes: half, newton on
      pair build: half/bin/newton/tri
      stencil: half/bin/3d/newton/tri
      bin: standard
WARNING: Inconsistent image flags (src/domain.cpp:785)
Per MPI rank memory allocation (min/avg/max) = 34.26 | 34.26 | 34.26 Mbytes
Step v_eqtemp c_msd[4] v_fitslope 
       0          298 1.8817141e-29 3.3333333e+16 
    1000          298 0.00070765835 1.1794306e-07 
    2000          298 0.00088341299 8.7020942e-08 
    3000          298 0.00086478639 5.5611456e-08 
    4000          298 0.00090589377 3.5396077e-08 
    5000          298 0.00025700148 8.2389524e-09 
    6000          298 0.00035878253 -1.4680714e-09 
    7000          298 0.00080198828 2.579836e-09 
    8000          298 0.0011182089 6.3054177e-09 
    9000          298 0.00092293606 7.5820602e-09 
   10000          298 0.00022869036 3.9334053e-09 
   11000          298 8.8076709e-05 -1.250158e-09 
   12000          298 0.0011613643 3.3411081e-10 
   13000          298 0.00091335322 2.3872444e-09 
   14000          298 0.00048659974 1.4855424e-09 
   15000          298 0.00033198073 5.7748004e-10 
   16000          298 4.1281445e-05 -1.511121e-09 
   17000          298 0.00052594688 -1.9087913e-09 
   18000          298 5.1886224e-05 -3.1120346e-09 
   19000          298 0.00073381868 -2.8998081e-09 
   20000          298 0.00091424181 -1.0838894e-09 
   21000          298 0.00024275011 -1.3897862e-09 
   22000          298 0.00048197252 -1.6119131e-09 
   23000          298 0.00027783855 -1.9448889e-09 
   24000          298 0.00097372952 -1.3865307e-09 
   25000          298 0.0013768091 9.0789758e-11 
   26000          298 0.00041495402 -2.0280758e-11 
   27000          298 0.00059362297 -2.3664791e-10 
   28000          298 0.00036811731 -3.4037014e-10 
   29000          298 0.00048847693 -3.9339994e-10 
   30000          298 0.00027237196 -6.6002463e-10 
   31000          298 0.00033540628 -8.5759637e-10 
   32000          298 0.00076145737 -7.9649629e-10 
   33000          298 0.0010809668 -2.5941092e-10 
   34000          298 0.0001503555 -5.1710629e-10 
   35000          298 0.00046480622 -7.1243572e-10 
   36000          298 0.00096415989 -3.7921748e-10 
   37000          298 0.00034409111 -4.0218273e-10 
   38000          298 0.0011195914 -2.2190269e-10 
   39000          298 0.00069795639 5.4153096e-11 
   40000          298 0.00025134942 -1.2642499e-10 
   41000          298 0.00033861597 -2.6373507e-10 
   42000          298 0.00068421361 -1.8154071e-10 
   43000          298 0.00072370431 -1.0944729e-10 
   44000          298 0.00054009604 -1.6807266e-10 
   45000          298 0.00085277987 -6.5780404e-11 
   46000          298 0.00082744932 4.8890967e-11 
   47000          298 0.00016111634 -1.350527e-10 
   48000          298 0.00063948542 -1.3523608e-10 
   49000          298 0.0011599649 3.4302748e-11 
   50000          298 0.00043042953 1.6370833e-12 
   51000          298 0.00029868271 -1.1473585e-10 
   52000          298 0.00097101637 -2.6283575e-11 
   53000          298 0.00031764652 -1.25382e-10 
   54000          298 0.00091655138 -6.3393502e-11 
   55000          298 0.00093023145 1.0721491e-10 
   56000          298 0.00021272725 2.6311084e-11 
   57000          298 0.00043235679 -5.9709765e-11 
   58000          298 0.00090954179 -1.3211857e-11 
   59000          298 0.00062212038 -1.372733e-11 
   60000          298 2.7486213e-05 -1.437963e-10 
   61000          298 0.0009258918 -1.3035016e-10 
   62000          298 0.00076828622 2.1502285e-11 
   63000          298 0.00053912846 -1.555383e-11 
   64000          298 0.00091171698 8.7804946e-11 
   65000          298 6.6482566e-05 -4.373321e-12 
   66000          298 0.00084205619 -1.2963356e-11 
   67000          298 0.00094955899 1.3402785e-10 
   68000          298 0.00020273946 5.0749644e-11 
   69000          298 0.0012046398 1.3672779e-10 
   70000          298 0.00024699041 8.3028413e-11 
   71000          298 0.0013033994  1.33995e-10 
   72000          298 0.00060612012 1.9288742e-10 
   73000          298 0.0001397423 9.9892591e-11 
   74000          298 0.00099937504 1.2989463e-10 
   75000          298 0.00044176266 1.2466307e-10 
   76000          298 0.0011101793 1.5269419e-10 
   77000          298 0.00087408023 2.4136641e-10 
   78000          298 0.00028988384 1.8502159e-10 
   79000          298 0.00024695621 1.456997e-10 
   80000          298 0.00036372017 8.1512279e-11 
   81000          298 0.00060531018 8.6968576e-11 
   82000          298 0.00081271826 1.0813013e-10 
   83000          298 3.5209512e-05 3.1930134e-11 
   84000          298 0.00069793368 1.8284604e-11 
   85000          298 0.00086401186 4.5961644e-11 
   86000          298 0.00086267057 6.6208955e-11 
   87000          298 0.00044724012 5.1145554e-11 
   88000          298 0.00083592365 5.6189709e-11 
   89000          298  0.001144275 1.4620345e-10 
   90000          298 0.00048276485 1.3408656e-10 
   91000          298 0.00035808294 9.1327029e-11 
   92000          298 0.00017627115 5.828123e-11 
   93000          298 0.00025171607 1.1090015e-11 
   94000          298 0.00095229656 1.940592e-11 
   95000          298 0.00026484356 -6.7548246e-13 
   96000          298 0.00013291523 -4.5866608e-11 
   97000          298 0.00036504474 -6.5527183e-11 
   98000          298 0.00046484238 -9.281476e-11 
   99000          298 0.0010497281 -5.3154955e-11 
  100000          298 0.00076424628 -1.4527753e-11 
  101000          298 0.00034356628 -2.5704053e-11 
  102000          298 0.00020091683 -5.0930573e-11 
  103000          298 0.00055971712 -6.9621426e-11 
  104000          298 0.0012851898 -8.4655452e-12 
  105000          298 0.00039718415 -1.6710241e-11 
  106000          298 0.00079947171 -1.7652965e-11 
  107000          298 0.00019622421 -1.8985781e-11 
  108000          298 0.00052743967 -4.088882e-11 
  109000          298 0.0012110832 -3.1120505e-12 
  110000          298 0.00065174539 7.6574856e-12 
  111000          298 0.00022101346 -1.1467829e-11 
  112000          298 0.0010037611 -2.9142248e-12 
  113000          298 0.00044315033 -8.5957397e-12 
  114000          298 0.00037529135 -2.9689409e-11 
  115000          298 0.0011376138 6.0672085e-12 
  116000          298 0.00029411971 1.0755993e-12 
  117000          298 0.00094884053 5.1915824e-12 
  118000          298 0.00080890988 2.7198915e-11 
  119000          298 0.00017978525 -1.4499823e-12 
  120000          298 0.00061174237 -1.1028426e-11 
  121000          298 0.00044102415 -9.0940487e-12 
  122000          298 0.00024405594 -2.925417e-11 
  123000          298 0.00068682431 -3.4245166e-11 
  124000          298 0.00021573427 -5.4175616e-11 
  125000          298 0.00045288396 -6.4767047e-11 
  126000          298 0.00070949227 -5.4811164e-11 
  127000          298 0.00020875179 -6.8417151e-11 
  128000          298 0.00043635933 -8.499214e-11 
  129000          298 0.00033873644 -9.9721141e-11 
  130000          298 0.00058785246 -9.9689008e-11 
  131000          298 0.0011024248 -7.5220158e-11 
  132000          298 0.00024361748 -7.9925751e-11 
  133000          298 0.00060009805 -8.4618055e-11 
  134000          298 0.00050324457 -8.4371286e-11 
  135000          298 0.00095620498 -6.7565489e-11 
  136000          298 0.00067722563 -4.9651499e-11 
  137000          298 7.1144778e-05 -6.8746557e-11 
  138000          298 0.00061067939 -7.4651972e-11 
  139000          298 0.00081398596 -6.7835129e-11 
  140000          298 0.00066817746 -6.341705e-11 
  141000          298 0.00032569157 -7.7573074e-11 
  142000          298 0.00041607086 -8.1744123e-11 
  143000          298 0.00022509334 -9.7684421e-11 
  144000          298 0.00060358987 -9.705852e-11 
  145000          298  0.001159158 -7.8521012e-11 
  146000          298 0.00080051636 -6.3347818e-11 
  147000          298 0.00021869863 -7.3293061e-11 
  148000          298 0.00078116996 -7.2410137e-11 
  149000          298 0.00044758847 -7.0514387e-11 
  150000          298 0.00028578497 -7.5329637e-11 
  151000          298 0.00014094274 -9.5858208e-11 
  152000          298 0.0014439312 -7.6309029e-11 
  153000          298 0.00033027109 -6.8301587e-11 
  154000          298 0.00029797605 -8.2944671e-11 
  155000          298 0.00074980214 -6.6225629e-11 
  156000          298 0.00068518793 -6.5859316e-11 
  157000          298 0.00096087716 -5.6718869e-11 
  158000          298 0.00091105795 -3.7433045e-11 
  159000          298 0.00054301687 -3.9818118e-11 
  160000          298 0.00018246621 -4.7949484e-11 
  161000          298 0.00065781213 -5.1496938e-11 
  162000          298 0.0012532137 -2.602322e-11 
  163000          298 0.00051735726 -2.1266801e-11 
  164000          298 0.00046542771 -2.9543734e-11 
  165000          298 4.5655337e-05 -4.2793164e-11 
  166000          298 0.00031810395 -5.4557257e-11 
  167000          298 0.0012728867 -3.7058437e-11 
  168000          298 0.00044596016 -3.5055709e-11 
  169000          298 0.00036383205 -4.3663054e-11 
  170000          298 0.00026311546 -5.3677355e-11 
  171000          298 0.00054770966 -5.5848878e-11 
  172000          298 0.00034136638 -6.2582038e-11 
  173000          298 0.00021959516 -6.7246237e-11 
  174000          298 0.00023811093 -8.027244e-11 
  175000          298 0.0008420613 -7.6876053e-11 
  176000          298 0.00087593565 -6.2160274e-11 
  177000          298 6.5497233e-05 -7.4776159e-11 
  178000          298 0.00090772571 -7.1975424e-11 
  179000          298 0.0008019334 -5.8771365e-11 
  180000          298 0.00026490006 -6.7313406e-11 
  181000          298 0.00026317195 -7.3418534e-11 
  182000          298 0.00067626897 -7.6035617e-11 
  183000          298 0.00067928896 -6.4249271e-11 
  184000          298 0.00011715759 -7.1249802e-11 
  185000          298 0.00032399483 -8.1926558e-11 
  186000          298 0.00034830682 -8.027305e-11 
  187000          298 0.0008983581 -7.7000389e-11 
  188000          298 0.00020681399 -8.2550371e-11 
  189000          298 0.00035636927 -8.5261499e-11 
  190000          298 6.7862322e-05 -9.7433191e-11 
  191000          298 0.0008718374 -9.6073994e-11 
  192000          298 0.00082763112 -8.4772486e-11 
  193000          298 0.0006914146 -8.0701619e-11 
  194000          298 0.00013816796 -8.9264278e-11 
  195000          298  0.001127805 -8.2124864e-11 
  196000          298 0.00071980781 -7.2500482e-11 
  197000          298 0.00017992892 -8.171241e-11 
  198000          298 0.00059685975 -8.5405151e-11 
  199000          298 0.00043470318 -8.2531818e-11 
  200000          298 0.00038821687 -8.4672206e-11 
  201000          298 0.00069284027 -7.9650825e-11 
  202000          298 0.00025008333 -8.6212017e-11 
  203000          298  0.001032633 -8.2812884e-11 
  204000          298 0.0010276859 -6.6204036e-11 
  205000          298 0.00016966936 -7.2776844e-11 
  206000          298 0.00051582455 -7.7534297e-11 
  207000          298 0.00043054164 -7.9191984e-11 
  208000          298 0.00051364477 -7.8660325e-11 
  209000          298 0.0015218169 -6.0884021e-11 
  210000          298 0.00055936418 -5.6116898e-11 
  211000          298 0.00035109644 -6.0287038e-11 
  212000          298 0.0005270025 -5.8093806e-11 
  213000          298 0.00052452795 -5.8265193e-11 
  214000          298 0.00037677031 -6.2145999e-11 
  215000          298 0.00058709516 -6.283343e-11 
  216000          298 0.00045816525 -6.2691114e-11 
  217000          298 0.00077867927 -5.6239285e-11 
  218000          298 0.00041208431 -5.4389342e-11 
  219000          298 0.00027646797 -5.8111312e-11 
  220000          298 0.00045491806 -6.2340337e-11 
  221000          298 0.0013471808 -5.0711615e-11 
  222000          298 0.00054889731 -4.6650855e-11 
  223000          298 0.00017740766 -5.3428572e-11 
  224000          298 0.00087129466 -5.0899116e-11 
  225000          298 0.00050028728 -5.2792006e-11 
  226000          298 0.00023169702 -5.5078891e-11 
  227000          298 0.00058767336 -5.6722475e-11 
  228000          298 0.00055916579 -5.5621589e-11 
  229000          298 0.00034154534 -5.3660269e-11 
  230000          298 0.00027067414 -6.0407041e-11 
  231000          298 0.0004247869 -6.1410811e-11 
  232000          298 0.00088358301 -5.571393e-11 
  233000          298 0.00053427248 -5.3868649e-11 
  234000          298 0.00027442446 -5.9666296e-11 
  235000          298 0.0013740421 -4.9905194e-11 
  236000          298 0.00062699915 -4.2726454e-11 
  237000          298  0.000347806 -4.481446e-11 
  238000          298 0.00033910309 -4.6846957e-11 
  239000          298 0.00055203793 -5.0009176e-11 
  240000          298 0.00022149856 -5.2349228e-11 
  241000          298 0.00042162367 -5.6253547e-11 
  242000          298 0.00038909366 -5.7952105e-11 
  243000          298 0.00059207633 -5.9180673e-11 
  244000          298 0.00029530784 -6.3093573e-11 
  245000          298 0.00090943127 -5.8150286e-11 
  246000          298 0.00071622769 -5.1574928e-11 
  247000          298 0.0004575437 -5.3861653e-11 
  248000          298 0.00021596735 -5.664051e-11 
  249000          298 0.00040205176 -6.0316545e-11 
  250000          298 0.00026745118 -6.4536374e-11 
  251000          298 0.00075013999 -6.3326597e-11 
  252000          298 0.00038376777 -6.3554771e-11 
  253000          298 0.00018349447 -6.8658052e-11 
  254000          298 0.00065959235 -6.8643182e-11 
  255000          298 0.00024797952 -7.2897432e-11 
  256000          298 0.00073654145 -7.2179407e-11 
  257000          298 0.00079944714 -6.3586528e-11 
  258000          298 0.00045653714 -6.3344694e-11 
  259000          298 0.00080497452 -6.1157787e-11 
  260000          298 0.00019245544 -6.5149018e-11 
  261000          298 0.00049212389 -6.7054309e-11 
  262000          298 0.00098422588 -5.8568082e-11 
  263000          298 0.00088502137 -5.3413896e-11 
  264000          298  0.001120957 -4.6074432e-11 
  265000          298 0.00017254181 -4.8660116e-11 
  266000          298 0.00035017182 -5.2893802e-11 
  267000          298 0.00042136764 -5.4286608e-11 
  268000          298 0.00055459509 -5.4723665e-11 
  269000          298 0.0013255167 -4.602224e-11 
  270000          298 0.00065688138 -4.2697772e-11 
  271000          298 0.00015314497 -4.6538086e-11 
  272000          298 0.00034245624 -4.8617547e-11 
  273000          298 0.00034220816 -5.2366123e-11 
  274000          298 0.0013333124 -4.6227688e-11 
  275000          298 0.00040910094 -4.3145333e-11 
  276000          298 2.3856072e-05 -4.9032545e-11 
  277000          298 0.00066441924 -4.9686347e-11 
  278000          298 0.00063315646 -4.9521009e-11 
  279000          298 0.0014088542 -3.950437e-11 
  280000          298 0.00044044081 -3.8268832e-11 
  281000          298 0.00038267269 -3.9549902e-11 
  282000          298 0.00011969701 -4.4584575e-11 
  283000          298 0.00077847568 -4.3391775e-11 
  284000          298 0.00093607099 -4.0269168e-11 
  285000          298 0.00082232286 -3.7260395e-11 
  286000          298 0.00029009798 -3.7989867e-11 
  287000          298 0.0004219943 -4.0323348e-11 
  288000          298 0.00018896034 -4.3877788e-11 
  289000          298 0.00090201203 -4.1337147e-11 
  290000          298 0.00052061191 -4.165734e-11 
  291000          298 0.00017639586 -4.4598787e-11 
  292000          298 0.00072006815 -4.4459924e-11 
  293000          298 0.00042305376 -4.6305087e-11 
  294000          298 0.00038643177 -4.4284003e-11 
  295000          298 0.00044367845 -4.6844904e-11 
  296000          298 0.00060762303 -4.5585558e-11 
  297000          298 0.0016758371 -3.5535391e-11 
  298000          298 0.00046602402 -3.2173696e-11 
  299000          298 0.00047153647 -3.3883265e-11 
  300000          298 0.00085628556 -3.2809483e-11 
  301000          298 0.00026080069 -3.3590906e-11 
  302000          298 0.00043330219 -3.5296259e-11 
  303000          298 0.00059956795 -3.5972494e-11 
  304000          298 0.0013243589 -2.9886018e-11 
  305000          298 0.00035676477 -2.9463945e-11 
  306000          298 0.00016274787 -3.3879083e-11 
  307000          298 0.0007421855 -3.2097016e-11 
  308000          298 0.00045805893 -3.0452987e-11 
  309000          298 0.0004129205 -3.2115113e-11 
  310000          298 0.00018022858 -3.4837939e-11 
  311000          298 0.00034357224 -3.7120996e-11 
  312000          298 0.00076967545 -3.4165191e-11 
  313000          298 0.00043462907 -3.5361149e-11 
  314000          298 0.00061448577 -3.5914475e-11 
  315000          298 0.0003125689 -3.5557876e-11 
  316000          298 8.2052088e-05 -3.9844838e-11 
  317000          298  0.000654471 -4.1079492e-11 
  318000          298 0.00038971749 -4.0925538e-11 
  319000          298 0.00082869319 -3.9059128e-11 
  320000          298 0.0010252353 -3.3935428e-11 
  321000          298 0.0001856081 -3.4908334e-11 
  322000          298 0.00089714773 -3.4380811e-11 
  323000          298 0.00046599744 -3.3033413e-11 
  324000          298 0.00046768843 -3.3650911e-11 
  325000          298 0.00099627348 -3.1547965e-11 
  326000          298 0.0012868622 -2.3344681e-11 
  327000          298 0.00035835212 -2.4079601e-11 
  328000          298 0.00090491397 -2.2187446e-11 
  329000          298 0.00052774901 -2.0860229e-11 
  330000          298 0.0001446105 -2.4866727e-11 
  331000          298 0.0010276565 -2.3253224e-11 
  332000          298 0.00066351762 -1.9270803e-11 
  333000          298 0.00044401479 -2.1242378e-11 
  334000          298 0.00051984679 -1.8071592e-11 
  335000          298 0.00031037051 -2.1153861e-11 
  336000          298 0.0012768433 -1.5319026e-11 
  337000          298 9.3281689e-05 -1.770633e-11 
  338000          298 0.0011626065 -1.6237322e-11 
  339000          298 0.00039674461 -1.6377677e-11 
  340000          298 0.00053549705 -1.7490193e-11 
  341000          298 0.0010948603 -1.201517e-11 
  342000          298 0.00010669839 -1.4589759e-11 
  343000          298 0.00052346056 -1.6468443e-11 
  344000          298 0.00013145325 -1.901224e-11 
  345000          298 0.00016035556 -2.2225297e-11 
  346000          298 0.00045329125 -2.2823319e-11 
  347000          298 0.00048991132 -2.3677877e-11 
  348000          298 0.0012231555 -2.0023693e-11 
  349000          298 0.00061604045 -1.7993132e-11 
  350000          298 0.00030956913 -1.8402189e-11 
  351000          298 0.00038814872 -2.0217563e-11 
  352000          298 0.0002733374 -2.242036e-11 
  353000          298 0.0011434204 -1.9939508e-11 
  354000          298 0.00063072228 -1.6738078e-11 
  355000          298 9.4001963e-05 -2.0227323e-11 
  356000          298 0.00088576747 -1.8520208e-11 
  357000          298 0.00038265912 -1.9871017e-11 
  358000          298 0.00045614098 -2.0592107e-11 
  359000          298 0.0014393303 -1.5963437e-11 
  360000          298 0.00055410476 -1.37204e-11 
  361000          298 0.00064401998 -1.3986017e-11 
  362000          298 3.576495e-05 -1.6964769e-11 
  363000          298 0.00016354583 -1.9919178e-11 
  364000          298 0.00058884245 -1.9687846e-11 
  365000          298 0.00023999443 -2.1729571e-11 
  366000          298 0.00062513277 -2.2216846e-11 
  367000          298 0.00091437987 -1.8338023e-11 
  368000          298 0.00088210924 -1.5846032e-11 
  369000          298 0.00099672871 -1.1998061e-11 
  370000          298 0.00025442705 -1.3842348e-11 
  371000          298 0.00045244061 -1.5626253e-11 
  372000          298 0.00047244418 -1.4877177e-11 
  373000          298 0.0005739185 -1.5187805e-11 
  374000          298  0.001368101 -1.1219961e-11 
  375000          298 0.00049200108 -1.0968072e-11 
  376000          298 0.00042094164 -1.2268738e-11 
  377000          298 0.00041792903 -1.1749718e-11 
  378000          298 0.00027957811 -1.3943197e-11 
  379000          298 0.0011486431 -1.2313445e-11 
  380000          298 0.00077625502 -1.0064533e-11 
  381000          298 0.00077629052 -8.7559551e-12 
  382000          298 0.00057304679 -6.6486646e-12 
  383000          298 0.00046552366 -7.1423415e-12 
  384000          298 0.00092764528 -5.7568095e-12 
  385000          298 0.00065003903 -5.6435734e-12 
  386000          298  0.001039009 -3.1370674e-12 
  387000          298 0.00042370509 -1.7585572e-12 
  388000          298 2.0103046e-05 -5.3569304e-12 
  389000          298 0.0005370157 -6.2353315e-12 
  390000          298 0.00037889889 -7.9278209e-12 
  391000          298 0.00087397883 -6.8085605e-12 
  392000          298 0.00070204412 -4.4036286e-12 
  393000          298 4.1346738e-05 -7.4683802e-12 
  394000          298 0.00057254597 -8.4223962e-12 
  395000          298 0.00065597056 -8.0739944e-12 
  396000          298 0.00099652756 -6.1903853e-12 
  397000          298 0.00058222266 -5.2282963e-12 
  398000          298 0.00032641884 -6.4729948e-12 
  399000          298 0.00096133069 -5.0977735e-12 
  400000          298 0.00030601176 -4.5337317e-12 
  401000          298 0.00060262729 -5.6789697e-12 
  402000          298 0.0011198338 -2.0317468e-12 
  403000          298 0.00027286818 -2.7729913e-12 
  404000          298 0.0003692044 -4.136291e-12 
  405000          298 0.00031224162 -6.0207323e-12 
  406000          298 0.00087321168 -4.2979641e-12 
  407000          298 0.00062335278 -3.153558e-12 
  408000          298 0.00050765493 -3.5991345e-12 
  409000          298 0.00022175993 -5.0639812e-12 
  410000          298 0.00071596387 -5.3439734e-12 
  411000          298 0.00034321666 -6.0708616e-12 
  412000          298 0.00045562101 -5.8469226e-12 
  413000          298 0.00064279395 -5.9057152e-12 
  414000          298 0.00043328782 -6.1490049e-12 
  415000          298 0.00062585778 -6.0553537e-12 
  416000          298 0.0003023796 -7.7664822e-12 
  417000          298 0.00028449251 -8.8105526e-12 
  418000          298 0.00044024551 -9.3172665e-12 
  419000          298 0.0010045412 -7.5648749e-12 
  420000          298 0.00039073471 -6.6973123e-12 
  421000          298 0.00044452554 -8.274854e-12 
  422000          298 0.0008518093 -6.2954972e-12 
  423000          298 0.00066046222 -5.0031922e-12 
  424000          298 0.00051028667 -4.5918071e-12 
  425000          298 0.00052467052 -5.5893723e-12 
  426000          298 0.00091476453 -3.4201733e-12 
  427000          298 0.00029065361 -4.3534866e-12 
  428000          298 0.00057750474 -4.2592833e-12 
  429000          298 0.00059446997 -4.2537041e-12 
  430000          298 0.00025545604 -6.0286211e-12 
  431000          298 0.00080953624 -6.0825143e-12 
  432000          298 0.0011470506 -2.3802488e-12 
  433000          298 0.00022969135 -4.0110966e-12 
  434000          298   0.00109138 -3.1051416e-12 
  435000          298 0.00076556561 -8.0270663e-13 
  436000          298 0.00018716201 -2.5922845e-12 
  437000          298 0.00022920457 -3.8293061e-12 
  438000          298 0.00044652775 -5.3404451e-12 
  439000          298 0.0013287923 -2.1783326e-12 
  440000          298 0.00020988167 -2.9123134e-12 
  441000          298 0.00062039366 -3.7445969e-12 
  442000          298 0.0010047495 -4.8274202e-13 
  443000          298 0.00024343041 -1.4530792e-12 
  444000          298 0.00030263481 -3.0986501e-12 
  445000          298 0.00038783202 -3.4892753e-12 
  446000          298 0.00060712965 -3.6095896e-12 
  447000          298 0.0014438372 -8.1075358e-13 
  448000          298 0.00064435207 4.9916294e-13 
  449000          298 0.00028916122 -2.1798144e-13 
  450000          298 0.00046538929 -8.1707165e-13 
  451000          298 0.00017348023 -2.9636113e-12 
  452000          298 0.0011485619 -1.6085496e-12 
  453000          298 0.00093065394 1.1357448e-12 
  454000          298 0.00036551049 2.0376327e-13 
  455000          298 0.00038115871 -5.8492695e-13 
  456000          298 0.00022444988 -2.4419739e-12 
  457000          298 0.0010806003 -1.2716949e-12 
  458000          298 0.00070071346 4.8106486e-13 
  459000          298 0.00035598225 -2.2287439e-13 
  460000          298 0.0010192722 3.052396e-13 
  461000          298 0.00023276062 -5.7087992e-13 
  462000          298 0.00047978253 -1.3532818e-12 
  463000          298 0.00098453193 -5.8202537e-13 
  464000          298 0.00088619559 1.1168056e-12 
  465000          298 0.00011864898 -4.2314743e-13 
  466000          298  0.001067643 4.6039934e-13 
  467000          298 0.00041756493 4.1107954e-14 
  468000          298 0.00044373489 -1.0058975e-12 
  469000          298 0.0011178816 1.7697513e-12 
  470000          298 7.6132975e-05 4.2758626e-13 
  471000          298 0.00066005501 -5.0001029e-13 
  472000          298 0.00053015068 9.8850549e-14 
  473000          298 0.00044416596 7.6583346e-14 
  474000          298 0.00041645172 -1.0991368e-12 
  475000          298 0.00016421309 -2.2465821e-12 
  476000          298 0.00064874756 -2.7624694e-12 
  477000          298 0.00080137091 -2.1805188e-12 
  478000          298 0.00019025985 -2.4623481e-12 
  479000          298 0.00038731067 -3.9284515e-12 
  480000          298 0.0012550599 -1.8798632e-12 
  481000          298 0.00032863305 -1.8163962e-12 
  482000          298 0.00049385958 -2.7613033e-12 
  483000          298 0.00070205317 -1.5019786e-12 
  484000          298 0.00050752019 -2.2400514e-12 
  485000          298 0.00083958049 -1.7914781e-12 
  486000          298 0.0014839579 1.9004267e-12 
  487000          298 0.00051778041 2.5685705e-12 
  488000          298 0.00048986576 2.581827e-12 
  489000          298 0.0011216408 3.8645323e-12 
  490000          298 7.3335091e-05 2.3297948e-12 
  491000          298 0.00091262102 2.320235e-12 
  492000          298 0.00066135577 4.5954421e-12 
  493000          298 5.7943153e-05 2.672046e-12 
  494000          298 0.0010047463 3.1856187e-12 
  495000          298 0.00057419912 3.4141474e-12 
  496000          298 0.00036451271 2.8802933e-12 
  497000          298  0.001470401 5.1200657e-12 
  498000          298 0.00061635781 6.9656627e-12 
  499000          298 0.00027883309 5.5954815e-12 
  500000          298 0.0011548086 6.7816779e-12 
  501000          298 0.00018678339 6.2027305e-12 
  502000          298 0.0012395459 7.1072061e-12 
  503000          298 0.00039827696 8.166727e-12 
  504000          298 0.00021409351 6.3669633e-12 
  505000          298 0.0007084543 7.561337e-12 
  506000          298 0.00061085778 7.0287593e-12 
  507000          298 0.0011583167 8.6295362e-12 
  508000          298 0.00090920355 1.0440254e-11 
  509000          298 0.00089765344 1.1086802e-11 
  510000          298 0.00011458987 1.0104362e-11 
  511000          298 0.00026304565 8.4792304e-12 
  512000          298 0.0013480315 1.0501826e-11 
  513000          298 0.00034106681 1.0252774e-11 
  514000          298 0.00019148893 8.6330313e-12 
  515000          298 0.00029064901 8.0570934e-12 
  516000          298 0.0009381572 8.5173685e-12 
  517000          298 0.00026432818 7.8126598e-12 
  518000          298 0.00064984379 7.9437035e-12 
  519000          298 0.00043566163 7.0994618e-12 
  520000          298 9.5197854e-05 5.7077854e-12 
  521000          298 0.00063187608 5.0896149e-12 
  522000          298 0.00025745768 4.1821041e-12 
  523000          298 0.00076026556 4.5737173e-12 
  524000          298 0.00025452223 3.3410243e-12 
  525000          298 0.00038391005 3.2503207e-12 
  526000          298 0.00050036641 2.5132727e-12 
  527000          298 0.00036511179 1.9454932e-12 
  528000          298 0.00051217366 2.1748082e-12 
  529000          298 0.00020649129 6.6452348e-13 
  530000          298 0.00041958295 4.7544234e-13 
  531000          298 0.0007293008 4.945831e-13 
  532000          298 0.0004683275 5.0797058e-13 
  533000          298 0.00040665332 6.6159668e-13 
  534000          298 0.00015105015 -9.8822548e-13 
  535000          298 0.00023003907 -1.7987716e-12 
  536000          298 0.00052789321 -2.3509254e-12 
  537000          298 0.00018110497 -3.212125e-12 
  538000          298 0.00092575877 -3.0160804e-12 
  539000          298 0.00017524492 -4.0249126e-12 
  540000          298 0.00040840212 -4.5345714e-12 
  541000          298 0.00027619754 -5.6383339e-12 
  542000          298 0.00052283967 -5.8408776e-12 
  543000          298 0.00077893849 -5.7465549e-12 
  544000          298 0.0001515135 -6.6172524e-12 
  545000          298 0.00084372002 -6.4923308e-12 
  546000          298 0.00033363635 -6.9548298e-12 
  547000          298 0.00021383256 -7.328002e-12 
  548000          298 0.00020043421 -8.5954173e-12 
  549000          298 0.00016962076 -9.1854443e-12 
  550000          298 0.00023091649 -1.0574009e-11 
  551000          298 0.0015534018 -8.5504648e-12 
  552000          298 0.00024070699 -8.6464932e-12 
  553000          298 0.00069177921 -9.0519028e-12 
  554000          298 0.00021238114 -8.8464855e-12 
  555000          298 0.00068684245 -9.2914902e-12 
  556000          298 0.00083634571 -7.2346294e-12 
  557000          298 3.5690469e-05 -8.6497607e-12 
  558000          298 0.00081608509 -8.8168223e-12 
  559000          298 0.00060240052 -8.616864e-12 
  560000          298 0.00017794885 -8.8859663e-12 
  561000          298 0.00020144735 -1.0259715e-11 
  562000          298 0.0014349978 -8.4834713e-12 
  563000          298 0.00013973747 -8.8152773e-12 
  564000          298 0.00056216205 -9.547947e-12 
  565000          298 0.00034898199 -9.219088e-12 
  566000          298 0.00071470882 -9.284255e-12 
  567000          298 0.0010194855 -8.4417264e-12 
  568000          298 0.0012467764 -6.0646798e-12 
  569000          298 0.00074758372 -5.3998529e-12 
  570000          298 5.641459e-05 -6.3447418e-12 
  571000          298 0.00039042508 -7.4103962e-12 
  572000          298 0.00016428188 -7.7240109e-12 
  573000          298 0.00021080701 -9.0429762e-12 
  574000          298 0.00059408679 -8.6156671e-12 
  575000          298 0.0010053224 -7.8283451e-12 
  576000          298 0.00097367912 -6.5637277e-12 
  577000          298 0.00045302913 -6.2082695e-12 
  578000          298 0.00018039707 -7.3218356e-12 
  579000          298 0.00078612206 -7.2390971e-12 
  580000          298 0.00085815235 -6.0371707e-12 
  581000          298 0.00045767049 -5.929342e-12 
  582000          298 0.00030616136 -6.9344194e-12 
  583000          298 0.0008603492 -5.942698e-12 
  584000          298 0.00037672061 -5.9596362e-12 
  585000          298 7.6111802e-05 -7.2436906e-12 
  586000          298 0.00038536835 -7.7705521e-12 
  587000          298 0.00048921512 -8.4065951e-12 
  588000          298 0.00092066237 -7.4714347e-12 
  589000          298 0.00041666256 -6.9178801e-12 
  590000          298 0.00040831629 -7.4309049e-12 
  591000          298 0.0001627451 -8.1563061e-12 
  592000          298 0.00041256619 -8.8363017e-12 
  593000          298 0.0004777111 -9.3239648e-12 
  594000          298 0.00097743329 -8.4420845e-12 
  595000          298 0.00046195794 -8.3887662e-12 
  596000          298 0.00037748345 -8.9030213e-12 
  597000          298 0.00054148347 -8.6006884e-12 
  598000          298 0.00014806176 -9.7619869e-12 
  599000          298 0.00037528478 -1.0642521e-11 
  600000          298 0.00049173717 -1.026906e-11 
  601000          298 0.0004918882 -1.0607035e-11 
  602000          298 0.00071377589 -1.0215413e-11 
  603000          298 0.00064394551 -9.6859411e-12 
  604000          298 0.00021353149 -1.0643615e-11 
  605000          298 0.00023367929 -1.1257437e-11 
  606000          298 0.00077693447 -1.1310211e-11 
  607000          298 0.0010654837 -9.5982822e-12 
  608000          298 0.00041889488 -9.7176146e-12 
  609000          298 0.0011957624 -8.770364e-12 
  610000          298 0.00031991385 -8.6162044e-12 
  611000          298 0.00073155992 -8.7576381e-12 
  612000          298 0.0011819129 -7.2404853e-12 
  613000          298 0.00045182701 -7.2380528e-12 
  614000          298 0.00051005609 -7.605619e-12 
  615000          298 3.9112037e-05 -8.6805403e-12 
  616000          298 0.00076045342 -8.9241341e-12 
  617000          298 0.00092968102 -7.3730957e-12 
  618000          298 0.00016264398 -8.2090352e-12 
  619000          298 0.00094721605 -7.4627307e-12 
  620000          298 0.00030387899 -7.9711451e-12 
  621000          298 0.00065810264 -8.0410102e-12 
  622000          298 0.00087325423 -6.8114294e-12 
  623000          298 0.00036632064 -7.0922443e-12 
  624000          298 0.00049431265 -7.4378923e-12 
  625000          298 0.00038249733 -6.9347921e-12 
  626000          298 0.00051378278 -7.3829065e-12 
  627000          298 0.00096459639 -6.6256698e-12 
  628000          298 0.00052566004 -6.1599712e-12 
  629000          298 0.00029771954 -6.4796825e-12 
  630000          298 0.00051462422 -7.091788e-12 
  631000          298 0.00088188698 -6.2257212e-12 
  632000          298 0.00058255531 -5.7420826e-12 
  633000          298 0.00050895786 -5.8393304e-12 
  634000          298 0.00042334302 -5.8063634e-12 
  635000          298 0.00060050916 -5.4882948e-12 
  636000          298 0.00040850619 -5.7361857e-12 
  637000          298 0.00060527752 -5.8923754e-12 
  638000          298 0.00032492945 -6.4264102e-12 
  639000          298 0.00023237145 -7.1480028e-12 
  640000          298 0.00085661194 -6.9635151e-12 
  641000          298 0.00091971212 -5.6219133e-12 
  642000          298 0.00039791583 -5.8902858e-12 
  643000          298 0.0010191762 -5.3530684e-12 
  644000          298 0.00026121162 -5.5478224e-12 
  645000          298 0.00035902421 -6.3239453e-12 
  646000          298 0.0010013388 -5.7025557e-12 
  647000          298 0.0009893261 -4.4931338e-12 
  648000          298 9.5830138e-05 -5.1810151e-12 
  649000          298 0.00061447092 -5.6528699e-12 
  650000          298 0.00034329001 -5.6518936e-12 
  651000          298 0.00051089272 -5.785371e-12 
  652000          298 0.00011265535 -6.6543228e-12 
  653000          298 0.00042894487 -6.918436e-12 
  654000          298 0.00024852249 -7.8141211e-12 
  655000          298 0.00040526429 -8.0297878e-12 
  656000          298 0.00027635392 -8.8389872e-12 
  657000          298 0.00030149183 -8.7891085e-12 
  658000          298 0.00013106958 -9.8517148e-12 
  659000          298 0.00075105658 -9.4919158e-12 
  660000          298 0.0011650517 -8.4765574e-12 
  661000          298 0.00077113846 -7.6905361e-12 
  662000          298 0.0007018964 -7.0852858e-12 
  663000          298 2.3344083e-05 -8.1425146e-12 
  664000          298 0.00062476204 -8.5033378e-12 
  665000          298 0.00096347417 -7.481621e-12 
  666000          298 0.0012311871 -6.037266e-12 
  667000          298 0.00080197642 -5.1265853e-12 
  668000          298 3.1482588e-05 -6.1125558e-12 
  669000          298 0.00053312509 -6.6705444e-12 
  670000          298 0.0010161955 -5.4657882e-12 
  671000          298 0.00056507033 -5.1073165e-12 
  672000          298 0.00082815542 -4.796619e-12 
  673000          298 4.7814197e-05 -5.6221156e-12 
  674000          298 0.00045855434 -6.1839971e-12 
  675000          298 0.00048045612 -6.4632995e-12 
  676000          298 0.00043962334 -6.5874373e-12 
  677000          298 0.0014372134 -5.0880096e-12 
  678000          298 0.00054940051 -4.6836911e-12 
  679000          298 0.00035500737 -5.1955523e-12 
  680000          298 0.00056442255 -4.9907894e-12 
  681000          298 0.00050250463 -4.900383e-12 
  682000          298 0.00034191888 -5.4239516e-12 
  683000          298 0.00028844305 -6.0164572e-12 
  684000          298 0.0011061209 -5.4980278e-12 
  685000          298 0.00078656936 -4.6262213e-12 
  686000          298 0.00024662199 -5.0613529e-12 
  687000          298 0.00095306732 -4.4971655e-12 
  688000          298 0.00024685687 -4.8821409e-12 
  689000          298 0.00051366677 -5.2907512e-12 
  690000          298 0.0012130572 -4.1271499e-12 
  691000          298 0.00024511454 -4.3563126e-12 
  692000          298 0.00047076456 -4.8819276e-12 
  693000          298 0.00075006003 -4.114865e-12 
  694000          298 0.00054689349 -4.4135472e-12 
  695000          298 0.0013320085 -2.9200034e-12 
  696000          298 0.00020334057 -3.2217908e-12 
  697000          298 0.00038457464 -3.9041696e-12 
  698000          298 0.00028977777 -4.2955618e-12 
  699000          298 0.00098311391 -3.7667826e-12 
  700000          298 0.00098799202 -2.7520934e-12 
  701000          298 0.00023324376 -2.9489469e-12 
  702000          298 0.0005047505 -3.3320593e-12 
  703000          298 0.00059158762 -3.5013808e-12 
  704000          298 0.0013444479 -1.9365254e-12 
  705000          298 0.00031715131 -2.026646e-12 
  706000          298 0.00065419396 -2.1479142e-12 
  707000          298 0.00084109559 -1.5349327e-12 
  708000          298 0.00022004965 -2.0560345e-12 
  709000          298 0.0013580888 -1.2290871e-12 
  710000          298 0.00071712584 -5.9212094e-14 
  711000          298 0.00013687333 -8.5855798e-13 
  712000          298 0.00097305562 -5.4441244e-13 
  713000          298 0.00032936554 -3.6376139e-13 
  714000          298 0.0010240107 -1.0760445e-13 
  715000          298 0.00063268823 8.628556e-13 
  716000          298 1.7571308e-05 -1.1256163e-13 
  717000          298 0.00072319621 -1.9431533e-13 
  718000          298 0.00066035465 8.9223845e-14 
  719000          298 0.0001011571 -4.2771071e-13 
  720000          298 0.00045496022 -9.8909395e-13 
  721000          298 0.0012443708 -1.4291828e-13 
  722000          298 0.00069942186 2.4914048e-13 
  723000          298 9.6902168e-05 -3.6712496e-13 
  724000          298 0.00058699573 -8.1239653e-13 
  725000          298 0.00018486143 -1.105278e-12 
  726000          298 0.00078672245 -1.211286e-12 
  727000          298 0.00013083691 -1.7287643e-12 
  728000          298 0.00053232262 -2.0136008e-12 
  729000          298 0.00014259644 -2.8070457e-12 
  730000          298 0.00043084853 -3.3553354e-12 
  731000          298 0.0006077345 -3.2021304e-12 
  732000          298 0.00015495162 -3.7262296e-12 
  733000          298 0.00044966029 -4.2078352e-12 
  734000          298 0.00017772871 -4.8900273e-12 
  735000          298 0.0011169417 -4.3483465e-12 
  736000          298 0.00076805794 -3.4383375e-12 
  737000          298 0.00044980364 -3.6726623e-12 
  738000          298  0.001016414 -2.6333714e-12 
  739000          298 0.00027286572 -3.0889357e-12 
  740000          298 0.0012132315 -2.3588334e-12 
  741000          298 0.00042901754 -2.0255372e-12 
  742000          298 0.00044736416 -2.3922421e-12 
  743000          298 0.0014107415 -1.0921075e-12 
  744000          298 0.00021395593 -1.2388144e-12 
  745000          298 0.0004526969 -1.5504478e-12 
  746000          298 0.00076985211 -1.1403112e-12 
  747000          298 0.00057665379 -1.1673672e-12 
  748000          298 0.0008412796 -8.0483217e-13 
  749000          298 6.9258714e-05 -1.4979123e-12 
  750000          298 0.00061255773 -1.7786136e-12 
  751000          298 0.0010495171 -8.5864069e-13 
  752000          298 0.00021579986 -1.1518727e-12 
  753000          298 0.00031954384 -1.8241796e-12 
  754000          298 0.00013989688 -2.3352259e-12 
  755000          298 0.00088677611 -2.2395817e-12 
  756000          298 0.0011133259 -1.3805856e-12 
  757000          298 0.00044831661 -1.535899e-12 
  758000          298 0.00050059471 -1.6993762e-12 
  759000          298 0.00016342737 -2.3029339e-12 
  760000          298 0.0008791229 -2.103576e-12 
  761000          298 0.0010165975 -1.4976393e-12 
  762000          298 0.00064089122 -1.3168786e-12 
  763000          298 0.00046868348 -1.3460043e-12 
  764000          298 0.00020289409 -1.8813253e-12 
  765000          298 0.00068778584 -2.0037224e-12 
  766000          298 0.0005586742 -1.3269895e-12 
  767000          298 0.00015874406 -2.0384069e-12 
  768000          298 0.00042530862 -2.3019649e-12 
  769000          298 0.00049478144 -2.410441e-12 
  770000          298 0.00033589176 -2.8876409e-12 
  771000          298 0.00066012571 -2.7795799e-12 
  772000          298 0.00036268542 -2.6894815e-12 
  773000          298 0.00029396268 -2.9696316e-12 
  774000          298 0.00060913966 -3.2336004e-12 
  775000          298 0.0014156491 -1.9225624e-12 
  776000          298 0.00023459013 -2.1029941e-12 
  777000          298 0.00062266819 -2.2724071e-12 
  778000          298 0.00095921194 -1.5267189e-12 
  779000          298 0.00015731506 -2.1731332e-12 
  780000          298 0.0014178388 -1.4124302e-12 
  781000          298 0.00047953518 -9.3794402e-13 
  782000          298 0.00025498985 -1.5205394e-12 
  783000          298 0.00028276001 -1.910776e-12 
  784000          298 0.00056890531 -1.8855839e-12 
  785000          298 0.0013437452 -9.7666323e-13 
  786000          298 0.00049401905 -7.1981413e-13 
  787000          298 0.00055023657 -9.5216558e-13 
  788000          298 0.00061925639 -6.9998111e-13 
  789000          298 0.00075878172 -3.277901e-13 
  790000          298 0.00034367782 -3.4139649e-13 
  791000          298 0.00036223466 -9.0470723e-13 
  792000          298 0.0010649051 -1.4256973e-13 
  793000          298 0.00049487577 5.380731e-14 
  794000          298 0.00039057871 -1.42102e-13 
  795000          298 0.00063505146 5.2212591e-14 
  796000          298 0.0004058029 2.0914147e-13 
  797000          298 0.00032035403 -1.4769955e-13 
  798000          298 0.00059113778 -3.9118117e-13 
  799000          298 0.0013959607 9.0850265e-13 
  800000          298 0.00025262995 7.3475223e-13 
  801000          298 0.0007907346 6.8690914e-13 
  802000          298 0.00069656424 1.1861255e-12 
  803000          298 0.0004333218 9.2048762e-13 
  804000          298 0.0016031165 2.0880232e-12 
  805000          298 0.00052450598 2.4418238e-12 
  806000          298 0.00059049304 2.3317782e-12 
  807000          298 7.1557579e-05 1.6567464e-12 
  808000          298 0.00074567961 1.6269738e-12 
  809000          298 0.00065002373 1.643986e-12 
  810000          298 0.00016882001 1.5435165e-12 
  811000          298 0.00027956633 9.0043608e-13 
  812000          298 0.00057341047 8.6897168e-13 
  813000          298 0.00057838427 1.1549991e-12 
  814000          298 0.00040065172 9.6320817e-13 
  815000          298 0.00018878104 3.0805073e-13 
  816000          298 0.00065336833 6.4518357e-13 
  817000          298 0.00050579088 4.7380172e-13 
  818000          298 0.00035628262 6.5632888e-14 
  819000          298 0.0013383523 7.7041872e-13 
  820000          298 0.00052088092 1.162176e-12 
  821000          298 0.00043497674 9.2564769e-13 
  822000          298 0.00035777317 5.3309744e-13 
  823000          298 0.00041757702 6.8446836e-13 
  824000          298 0.00052542892 4.8502326e-13 
  825000          298 0.0002673945 5.6414275e-14 
  826000          298 0.00028465799 -5.0128316e-13 
  827000          298 0.00015046317 -8.5504054e-13 
  828000          298 0.00058136828 -1.1417632e-12 
  829000          298 0.0013157567 -3.0266022e-13 
  830000          298 0.00055297926 9.0855257e-14 
  831000          298 0.00042004786 -8.993269e-14 
  832000          298 0.00029581924 -4.3805126e-13 
  833000          298 0.00031817081 -8.0155006e-13 
  834000          298 0.0011990167 -3.6634111e-13 
  835000          298 0.0004327962 -2.4426014e-13 
  836000          298 0.0001477578 -8.2605588e-13 
  837000          298 0.00086485771 -7.3906409e-13 
  838000          298 0.0011544611 -1.234927e-13 
  839000          298 0.0010490362 7.5280786e-13 
  840000          298 0.00074977041 1.0496334e-12 
  841000          298 2.7673115e-05 3.8964465e-13 
  842000          298 0.00081293039 2.9268693e-13 
  843000          298 0.00013430292 -1.5828649e-13 
  844000          298 0.00070843982 -2.0983369e-13 
  845000          298 0.00011177052 -7.5560801e-13 
  846000          298 0.00040821963 -9.6113321e-13 
  847000          298 0.00010057561 -1.6056481e-12 
  848000          298 0.00057165481 -1.8288287e-12 
  849000          298 0.00016983709 -2.3475209e-12 
  850000          298 0.00054971112 -2.472743e-12 
  851000          298 0.00097600135 -1.8280571e-12 
  852000          298 8.2287125e-05 -2.3722894e-12 
  853000          298 0.00047896015 -2.6591579e-12 
  854000          298 0.00064564468 -2.633275e-12 
  855000          298 0.00061798278 -2.5597557e-12 
  856000          298 0.00046614591 -2.4507135e-12 
  857000          298 0.00044696195 -2.6193634e-12 
  858000          298 0.0016889565 -1.5665147e-12 
  859000          298 0.00055771282 -1.1355939e-12 
  860000          298 0.00023297725 -1.4618389e-12 
  861000          298 0.00061932411 -1.4855845e-12 
  862000          298 0.0003567986 -1.8332575e-12 
  863000          298 0.00045892427 -2.0532419e-12 
  864000          298 0.00012712057 -2.5175581e-12 
  865000          298 0.00078268034 -2.6042668e-12 
  866000          298 0.00088199634 -2.0472962e-12 
  867000          298 0.00023328133 -2.2817103e-12 
  868000          298 0.00029365131 -2.7682834e-12 
  869000          298 0.0011640985 -2.1904584e-12 
  870000          298 0.00025093003 -2.2299556e-12 
  871000          298 0.00076255443 -2.3085809e-12 
  872000          298  0.001216365 -1.397357e-12 
  873000          298 0.00033734979 -1.5163549e-12 
  874000          298 0.0004418595 -1.731849e-12 
  875000          298 0.00079720571 -1.4172951e-12 
  876000          298 0.00034265373 -1.7711518e-12 
  877000          298 0.00064499652 -1.6590737e-12 
  878000          298 0.00080932798 -1.195147e-12 
  879000          298 0.00043776786 -1.199065e-12 
  880000          298 0.00033258225 -1.6214127e-12 
  881000          298 0.00054574239 -1.2953802e-12 
  882000          298 0.00032874035 -1.5310439e-12 
  883000          298 0.0010445674 -1.3447728e-12 
  884000          298 0.00075390281 -7.3814084e-13 
  885000          298 7.7109212e-05 -1.2772506e-12 
  886000          298 0.0011056979 -9.6280283e-13 
  887000          298 0.00053754451 -9.5841853e-13 
  888000          298 0.0006629965 -9.5451587e-13 
  889000          298 0.0012156693 -7.790346e-14 
  890000          298 0.00029235253 -2.2355102e-13 
  891000          298 0.00037201571 -4.2921317e-13 
  892000          298 0.00033255967 -8.6934119e-13 
  893000          298  0.001113365 -5.4741354e-13 
  894000          298 0.00091987505 2.2920657e-13 
  895000          298 0.00027830471 -7.9585497e-14 
  896000          298 0.00073802229 -3.8543999e-14 
  897000          298 0.00035768912 -2.2829997e-13 
  898000          298 0.00052900922 -3.6176711e-13 
  899000          298 0.00033329967 -3.9282598e-13 
  900000          298 0.00014608876 -9.6889442e-13 
  901000          298  0.000558761 -1.2215433e-12 
  902000          298 0.00020287777 -1.5553668e-12 
  903000          298 0.00038334158 -1.8192977e-12 
  904000          298  0.001254686 -1.3825471e-12 
  905000          298 0.00021196516 -1.5682618e-12 
  906000          298 0.00037984628 -1.8694241e-12 
  907000          298 0.00037851593 -2.1712778e-12 
  908000          298 0.00055982481 -2.1858641e-12 
  909000          298 0.0011495143 -1.6384521e-12 
  910000          298 0.00071341793 -1.4941347e-12 
  911000          298 0.00022230889 -1.7548519e-12 
  912000          298 0.00029531462 -2.0189451e-12 
  913000          298 0.00020868571 -2.5234089e-12 
  914000          298 0.00091403947 -2.1429749e-12 
  915000          298 0.00065957893 -2.0209129e-12 
  916000          298 0.00024424072 -2.3286645e-12 
  917000          298 0.00040476351 -2.4845509e-12 
  918000          298 0.00067539684 -2.6110763e-12 
  919000          298 0.00028464751 -2.6202546e-12 
  920000          298 0.00061498221 -2.7909575e-12 
  921000          298 0.00069342452 -2.6418826e-12 
  922000          298 0.0008767932 -2.1788189e-12 
  923000          298 0.00058877125 -2.0623772e-12 
  924000          298 0.00030093561 -2.3143533e-12 
  925000          298 0.00034521314 -2.6150583e-12 
  926000          298 0.0012864129 -2.1376198e-12 
  927000          298 0.00024744898 -2.3245881e-12 
  928000          298 0.00040685905 -2.5593123e-12 
  929000          298 0.00040326906 -2.8223491e-12 
  930000          298 0.0008170849 -2.4345798e-12 
  931000          298 0.00040919055 -2.4079774e-12 
  932000          298 0.00024737119 -2.8053719e-12 
  933000          298 0.0014350221 -2.2119634e-12 
  934000          298 0.00044580783 -1.8787682e-12 
  935000          298 0.00027029966 -2.2562528e-12 
  936000          298 0.0010334958 -1.9946657e-12 
  937000          298 0.00065274664 -1.8989906e-12 
  938000          298 0.0008897149 -1.72802e-12 
  939000          298 0.00016770552 -1.9325608e-12 
  940000          298 0.00046409972 -2.1825492e-12 
  941000          298 0.0012451362 -1.3908464e-12 
  942000          298 0.00028355762 -1.4224646e-12 
  943000          298 0.00016312699 -1.888019e-12 
  944000          298 0.00051464812 -1.9045535e-12 
  945000          298 0.00093093266 -1.7526184e-12 
  946000          298 0.00097656568 -1.2235768e-12 
  947000          298 0.00034970582 -1.3899738e-12 
  948000          298 0.0013597281 -9.8596843e-13 
  949000          298 0.0006917561 -5.4520443e-13 
  950000          298 0.00033717109 -7.8008475e-13 
  951000          298 0.00063657791 -9.0626836e-13 
  952000          298 0.00022584637 -1.1538216e-12 
  953000          298 0.0003602951 -1.3716777e-12 
  954000          298 0.00043355933 -1.4889456e-12 
  955000          298 0.00083289258 -1.2999469e-12 
  956000          298 0.0003292428 -1.5992345e-12 
  957000          298 0.00033938139 -1.7720811e-12 
  958000          298 0.0014232335 -1.239275e-12 
  959000          298 0.0007818918 -6.7588098e-13 
  960000          298 0.0006506087 -6.860872e-13 
  961000          298 7.7277525e-06 -1.1687489e-12 
  962000          298 0.00055210733 -1.4387275e-12 
  963000          298 0.00055323361 -1.3258914e-12 
  964000          298 0.0011713049 -8.090898e-13 
  965000          298 0.00076279568 -3.7897299e-13 
  966000          298 0.00019543367 -6.6289828e-13 
  967000          298 0.00035616212 -9.7874874e-13 
  968000          298 0.0012846868 -4.5858574e-13 
  969000          298 0.00066577285 -1.7431141e-13 
  970000          298 0.00032399146 -4.4022218e-13 
  971000          298 0.00024836254 -6.3861363e-13 
  972000          298 0.00093681437 -4.2891633e-13 
  973000          298 0.00038113675 -5.2185789e-13 
  974000          298 0.0005225463 -6.3095332e-13 
  975000          298  0.001097187 -3.1903791e-13 
  976000          298 0.00080399625 6.4323982e-14 
  977000          298 0.00030284358 -1.6116464e-13 
  978000          298 0.00034324355 -3.700685e-13 
  979000          298 0.00064570831 -2.9233359e-13 
  980000          298 0.00076069227 -2.4165779e-13 
  981000          298 0.00069577254 -1.727409e-13 
  982000          298 0.00084394502 -3.4389076e-14 
  983000          298 0.00073102131 2.1371416e-14 
  984000          298 0.00034683957 -8.4059228e-14 
  985000          298 0.00024009317 -3.763508e-13 
  986000          298 0.0013170479 -2.1361202e-14 
  987000          298 0.00036759418 1.9536324e-14 
  988000          298 0.00012337542 -4.481236e-13 
  989000          298 0.00055841603 -4.9261919e-13 
  990000          298 0.00091975539 -3.805082e-13 
  991000          298   0.00128549 4.8481203e-13 
  992000          298 0.00026787958 2.8854388e-13 
  993000          298 0.0011887337 5.9577533e-13 
  994000          298 0.00028699827 5.8503076e-13 
  995000          298 0.00085031338 5.7550046e-13 
  996000          298 0.0013638981 1.5454774e-12 
  997000          298 0.00051043834 1.5647214e-12 
  998000          298 0.0001780923 1.401802e-12 
  999000          298 0.00014116125 9.1033013e-13 
 1000000          298 0.0015001188 1.4369766e-12 
Loop time of 814.725 on 1 procs for 1000000 steps with 2233 atoms

Performance: 106.048 ns/day, 0.226 hours/ns, 1227.407 timesteps/s
99.9% CPU use with 1 MPI tasks x no OpenMP threads

MPI task timing breakdown:
Section |  min time  |  avg time  |  max time  |%varavg| %total
---------------------------------------------------------------
Pair    | 19.262     | 19.262     | 19.262     |   0.0 |  2.36
Bond    | 669.5      | 669.5      | 669.5      |   0.0 | 82.17
Neigh   | 38.739     | 38.739     | 38.739     |   0.0 |  4.75
Comm    | 57.837     | 57.837     | 57.837     |   0.0 |  7.10
Output  | 2.5972     | 2.5972     | 2.5972     |   0.0 |  0.32
Modify  | 8.983      | 8.983      | 8.983      |   0.0 |  1.10
Other   |            | 17.81      |            |       |  2.19

Nlocal:    2233 ave 2233 max 2233 min
Histogram: 1 0 0 0 0 0 0 0 0 0
Nghost:    15409 ave 15409 max 15409 min
Histogram: 1 0 0 0 0 0 0 0 0 0
Neighs:    1204 ave 1204 max 1204 min
Histogram: 1 0 0 0 0 0 0 0 0 0

Total # of neighbors = 1204
Ave neighs/atom = 0.539185
Ave special neighs/atom = 6.38424
Neighbor list builds = 691
Dangerous builds = 0
unfix           1
unfix           2
undump          Pn_Ni-PyC-NH2_with_Xe_xyzmov


Total wall time: 0:13:34
