
# --------------------------------- Initialization -------------------------------------- #
units           real
atom_style      full
boundary        p p p

pair_style      lj/cut 14.000
bond_style      harmonic
angle_style     cosine/periodic
dihedral_style  harmonic
improper_style  fourier

special_bonds   lj/coul 0.0 0.0 1.0
pair_modify     tail no mix arithmetic
#dielectric      1.0
box tilt        large
read_data       data.NiPyC2_experiment_with_Xe
  triclinic box = (0 0 0) to (31.264 37.5702 30.8228) with tilt (0 -0.682783 0)
  1 by 1 by 1 MPI processor grid
  reading atoms ...
  2431 atoms
  scanning bonds ...
  6 = max bonds/atom
  scanning angles ...
  15 = max angles/atom
  scanning dihedrals ...
  8 = max dihedrals/atom
  scanning impropers ...
  3 = max impropers/atom
  reading bonds ...
  2880 bonds
  reading angles ...
  5490 angles
  reading dihedrals ...
  5760 dihedrals
  reading impropers ...
  3780 impropers
  6 = max # of 1-2 neighbors
  9 = max # of 1-3 neighbors
  12 = max # of special neighbors
  special bonds CPU = 0.000694442 secs
  read_data CPU = 0.033585 secs

#### Atom Groupings ####
group           xe       id   2431   # 55
1 atoms in group xe
group           fram     id   1:2430 # 1:54 56:2431
2430 atoms in group fram
#### END Atom Groupings ####

###
# Fixes are overkill if you simply want to hold a collection of atoms stationary.
# A simpler way to hold atoms stationary is to not include those atoms in your time integration.
#
# Speed up Calculations by exluding framework-framework interactions
# since we are keeping the framework rigid and stationary.
#
# neigh_modify keyword values ...
# keyword = exclude
# values  = group group1-ID group2-ID
#
# group1-ID, group2-ID = exclude if one atom is in 1st group, other in 2nd
###
neigh_modify exclude group fram fram

# ----------------------------- Variables ---------------------- #
dump            NiPyC2_experiment_with_Xe_xyzmov all xyz 1000 NiPyC2_experiment_with_Xe_mov.xyz
dump_modify     NiPyC2_experiment_with_Xe_xyzmov element Ni O N C H Xe
variable        dt         equal 1.00
variable        tdamp      equal 100*${dt}
variable        tdamp      equal 100*1
variable        eqtemp     equal 298.00

# ------------------------------ Equilibriation -------------------------------------------- #
# we do not need to perform equilibriation since we are using a rigid framework
# and the (single) adsorbate has already been inserted into the material via GCMC
# which already included an equilibriation phase.
#fix             1 xe langevin ${eqtemp} ${eqtemp} ${tdamp} 8646
#fix             2 xe nve
#fix             3 fram langevin 298.00 298.00 ${tdamp} 965287
#fix             4 fram nve
#thermo          0
#run             50000
#unfix           1
#unfix           2
#unfix           3
#unfix           4

# --------------------- Production (data gathering) --------------------------------------- #
# A simple way to hold atoms stationary is to not include those atoms in your time integration.
#reset_timestep  0

fix             3 xe nvt temp ${eqtemp} ${eqtemp} ${tdamp}
fix             3 xe nvt temp 298 ${eqtemp} ${tdamp}
fix             3 xe nvt temp 298 298 ${tdamp}
fix             3 xe nvt temp 298 298 100
#fix             6 fram nvt temp 298.00 298.00 ${tdamp}

###
#  mean-squared disp of grp 1
#
# A vector of four quantities is calculated by this compute:
# The first 3 elements of the vector are the squared dx,dy,dz displacements, summed and averaged over atoms in the group.
# The fourth element is the total squared displacement, i.e. (dx*dx + dy*dy + dz*dz),
#  summed and averaged over atoms in the group.
#
# The displacement of an atom is from its reference position.
# This is normally the original position at the time the compute command was issued, unless the average keyword is set to yes.
# The value of the displacement will be 0.0 for atoms not in the specified compute group.
# The slope of the MSD versus time is proportional to the diffusion coefficient.
#
# MSD values can be accumulated in a vector via the fix vector command,
#   and a line fit to the vector to compute its slope via the variable slope function,
#   and thus extract D.
#
# fix ID group-ID vector Nevery value1 value2 ...
#
# c_ID[I] = Ith component of global vector calculated by a compute with ID
# f_ID = global scalar calculated by a fix with ID
# v_name = value calculated by an equal-style variable with name
#
# variable name style args...
#
# The slope() function uses linear regression to fit a line to the set of points,
#   equally spaced by 1 in their x coordinate: (1,V1), (2,V2), …, (N,VN),
#   where the Vi are the values in the global vector of length N.
#   The returned value is the slope of the line.
#   If the line has a single point or is vertical, it returns 1.0e20.
###
compute         msd all msd com yes
fix             5 xe vector 500 c_msd[4]
variable        fitslope equal slope(f_5)/6/(500*dt) # why dividing slope?

thermo_style    custom step v_eqtemp c_msd[4] v_fitslope # prints this info to log file

thermo          1000
run             200000
Neighbor list info ...
  update every 1 steps, delay 10 steps, check yes
  max neighbors/atom: 2000, page size: 100000
  master list distance cutoff = 16
  ghost atom cutoff = 16
  binsize = 8, bins = 4 5 4
  1 neighbor lists, perpetual/occasional/extra = 1 0 0
  (1) pair lj/cut, perpetual
      attributes: half, newton on
      pair build: half/bin/newton/tri
      stencil: half/bin/3d/newton/tri
      bin: standard
WARNING: Inconsistent image flags (src/domain.cpp:785)
Per MPI rank memory allocation (min/avg/max) = 31.83 | 31.83 | 31.83 Mbytes
Step v_eqtemp c_msd[4] v_fitslope 
       0          298 7.7461533e-30 3.3333333e+16 
    1000          298 0.00042584711 7.0974519e-08 
    2000          298 0.0013454554 1.2099698e-07 
    3000          298 0.0010080041 7.8292538e-08 
    4000          298 0.00035225219 2.7474087e-08 
    5000          298 2.8051305e-05 -2.8566017e-09 
    6000          298 0.00051199742 -7.1398096e-09 
    7000          298 0.0010630891 4.0428851e-09 
    8000          298 0.00047428969 1.5582869e-09 
    9000          298 0.00023185699 -2.5149177e-09 
   10000          298 0.00012640708 -5.3182815e-09 
   11000          298 0.00043375988 -5.3222429e-09 
   12000          298 0.0011314854 -1.3900023e-09 
   13000          298 0.0004544605 -4.1446073e-10 
   14000          298 0.00035699575 -1.3441137e-09 
   15000          298 0.00039547616 -1.449672e-09 
   16000          298 0.00073641338 -9.3263617e-10 
   17000          298 0.0007658719 5.3889796e-10 
   18000          298 0.0003487785 9.2059713e-12 
   19000          298 0.00032410463 -4.5353528e-10 
   20000          298 0.00041951592 -8.8577381e-10 
   21000          298 0.0011754764 2.4434587e-10 
   22000          298 0.00035729129 1.9096007e-10 
   23000          298 0.00010552516 -6.0170231e-10 
   24000          298 0.00018219201 -1.1463365e-09 
   25000          298 0.00089655365 -8.0189186e-10 
   26000          298 0.00080298002 -1.6375268e-10 
   27000          298 0.00028310298 -2.6713188e-10 
   28000          298 0.00012164326 -7.6476164e-10 
   29000          298 0.00039027417 -9.9411599e-10 
   30000          298 0.00070847665 -7.8475058e-10 
   31000          298 0.00094968505 -3.2721599e-10 
   32000          298 0.0003100455 -4.0343249e-10 
   33000          298 0.0001547055 -6.977894e-10 
   34000          298 0.00015561856 -9.4251862e-10 
   35000          298 0.00062212697 -8.8860188e-10 
   36000          298 0.00079794483 -4.9179786e-10 
   37000          298 0.00037466062 -4.9931355e-10 
   38000          298 0.00018792044 -6.5087146e-10 
   39000          298 0.00015392514 -7.9539168e-10 
   40000          298 0.00038515048 -8.4376128e-10 
   41000          298 0.0012515989 -4.9694702e-10 
   42000          298 0.00027389452 -4.4372929e-10 
   43000          298 0.00017043144 -6.0198993e-10 
   44000          298 0.00012946681 -7.4086131e-10 
   45000          298 0.00075759335 -6.5968422e-10 
   46000          298 0.00062652509 -4.2382841e-10 
   47000          298 0.00012226355 -5.2938035e-10 
   48000          298 0.00017916602 -6.2638523e-10 
   49000          298 0.00033225797 -6.9364923e-10 
   50000          298 0.0011751652 -4.1941574e-10 
   51000          298 0.00034439041 -3.907917e-10 
   52000          298 0.00013172909 -4.854413e-10 
   53000          298 0.00023213096 -5.4825193e-10 
   54000          298 0.00050776851 -5.3038168e-10 
   55000          298 0.0011229222 -3.6018277e-10 
   56000          298 0.0002756923 -3.0401339e-10 
   57000          298 4.4784862e-05 -4.2188144e-10 
   58000          298 0.00060974612 -4.2237623e-10 
   59000          298  0.001139807 -2.5677435e-10 
   60000          298 0.0013089188 -2.3088358e-11 
   61000          298 0.00037597298 6.1988624e-12 
   62000          298 1.0587131e-05 -1.1261021e-10 
   63000          298 0.00057299802 -1.4389026e-10 
   64000          298 0.0012196068 1.9870802e-11 
   65000          298 0.00089591319 1.233448e-10 
   66000          298 0.00036014703 1.2672533e-10 
   67000          298 0.0002111677 4.3135275e-11 
   68000          298 0.00089056749 6.9313315e-11 
   69000          298 0.00063021761 1.0210536e-10 
   70000          298 0.0005853183 1.0192845e-10 
   71000          298 0.00019531652 3.924519e-11 
   72000          298 0.00026445332 -2.6313207e-11 
   73000          298 0.0008642044 1.5624462e-11 
   74000          298 0.0013233668 1.5127253e-10 
   75000          298 0.00073660635 2.2564142e-10 
   76000          298 0.00012233397 1.6870934e-10 
   77000          298 0.00010503518 8.7192595e-11 
   78000          298 0.0010085741 1.2003335e-10 
   79000          298 0.00093040783 2.0500815e-10 
   80000          298 0.00050151326 1.9283536e-10 
   81000          298 0.00056111037 1.9327269e-10 
   82000          298 0.00025659141 1.4663809e-10 
   83000          298 0.0015197976 2.2778778e-10 
   84000          298 0.0006236665 2.7885447e-10 
   85000          298 0.00022688052 2.3018893e-10 
   86000          298 0.00090886267 2.4461611e-10 
   87000          298 0.0014678291 3.5582094e-10 
   88000          298 0.00062707312 3.7900105e-10 
   89000          298 0.00020692614 3.3176222e-10 
   90000          298 0.00037443836 2.8903927e-10 
   91000          298 0.00082131601 2.9511235e-10 
   92000          298 0.00064284425 3.0188874e-10 
   93000          298 0.00044394098 2.9895206e-10 
   94000          298 0.0001546216 2.5701907e-10 
   95000          298 0.00053714997 2.3409294e-10 
   96000          298 0.0013813013 2.8944955e-10 
   97000          298 0.0011232331 3.6350914e-10 
   98000          298 0.00016196743 3.3216371e-10 
   99000          298 0.00010454039 2.7371965e-10 
  100000          298 0.0010725739  2.86915e-10 
  101000          298 0.0015215258 3.7643477e-10 
  102000          298 0.00067682352 3.9424293e-10 
  103000          298 0.00021298824 3.5943598e-10 
  104000          298 8.3808183e-05 3.0572332e-10 
  105000          298 0.0012834638 3.2367776e-10 
  106000          298 0.0005539745 3.401325e-10 
  107000          298 0.00037609246 3.1490542e-10 
  108000          298 0.00076763515  3.15422e-10 
  109000          298 0.0010375771 3.4633103e-10 
  110000          298 0.00016153566 3.1736035e-10 
  111000          298 0.00021218057 2.7610749e-10 
  112000          298 0.00095506444 2.8623819e-10 
  113000          298 0.00072059389 2.9287466e-10 
  114000          298 0.00043239464 2.8124523e-10 
  115000          298 0.00049993575 2.6738616e-10 
  116000          298 0.0013810647 3.0672905e-10 
  117000          298 0.0001825466 2.8942462e-10 
  118000          298 0.00018178279 2.5039206e-10 
  119000          298 0.00068626356 2.4401782e-10 
  120000          298 0.00081950816 2.5096076e-10 
  121000          298 0.0010395314 2.709794e-10 
  122000          298 0.00025200119 2.6041323e-10 
  123000          298 6.3926993e-05 2.1986404e-10 
  124000          298 0.00073025251 2.1108279e-10 
  125000          298 0.00056713846 2.1279599e-10 
  126000          298 0.00093790932 2.2071776e-10 
  127000          298 0.00033033768 2.1298093e-10 
  128000          298 0.00023840206 1.8591708e-10 
  129000          298 0.0010579886 1.9881022e-10 
  130000          298 0.0006687871 2.0483925e-10 
  131000          298 0.00068669151 2.0290682e-10 
  132000          298 0.0010264614 2.2026846e-10 
  133000          298 0.00062940446 2.2772141e-10 
  134000          298 0.00044642847 2.1289439e-10 
  135000          298 0.00093918171 2.2148937e-10 
  136000          298 0.00056917857 2.2460607e-10 
  137000          298 0.00021907795 2.017343e-10 
  138000          298 0.0013892327 2.1907531e-10 
  139000          298 0.0009011248 2.4663188e-10 
  140000          298 0.00034366206 2.3211886e-10 
  141000          298 0.00092387197 2.3535184e-10 
  142000          298 0.0013418694 2.6171305e-10 
  143000          298 0.00076082123  2.74625e-10 
  144000          298 0.00018917675 2.5444932e-10 
  145000          298 0.0003696627 2.347387e-10 
  146000          298 0.00062691995 2.2700907e-10 
  147000          298 0.00098072441 2.3399535e-10 
  148000          298 0.00036897815 2.3409858e-10 
  149000          298 8.4266341e-05 2.0874816e-10 
  150000          298 0.00028966816 1.8834913e-10 
  151000          298 0.0010957261 1.9521022e-10 
  152000          298 0.0016747487 2.4010443e-10 
  153000          298 0.00041365986 2.3929376e-10 
  154000          298 3.0030574e-05 2.1309689e-10 
  155000          298 0.00030067284 1.9262532e-10 
  156000          298 0.00068884334 1.8965491e-10 
  157000          298 0.00048890473 1.8031618e-10 
  158000          298 0.00082047524 1.8307935e-10 
  159000          298 0.00039896931 1.7295559e-10 
  160000          298 0.00052798363 1.6453281e-10 
  161000          298 0.00018321679 1.4777715e-10 
  162000          298 0.00014014594 1.2735352e-10 
  163000          298 0.0007838111 1.274771e-10 
  164000          298 0.0013715715 1.492417e-10 
  165000          298 0.00085206705 1.6292915e-10 
  166000          298 5.5606545e-05 1.4604411e-10 
  167000          298 0.00023171517 1.275235e-10 
  168000          298 0.0012655703 1.3905956e-10 
  169000          298 0.0011037259 1.5731826e-10 
  170000          298 0.00073865505 1.6184068e-10 
  171000          298 0.00016476648 1.4963876e-10 
  172000          298 0.00012992957 1.3022521e-10 
  173000          298 0.0013794506 1.4162832e-10 
  174000          298 0.00041867123 1.4327069e-10 
  175000          298 0.00044511392 1.3477714e-10 
  176000          298 0.00092387473 1.4003616e-10 
  177000          298 0.0013458235 1.5883139e-10 
  178000          298 0.00069249752 1.6427919e-10 
  179000          298 0.00033347785 1.5631796e-10 
  180000          298 0.00033196164 1.4421504e-10 
  181000          298 0.0012076224 1.5319799e-10 
  182000          298 0.00029970514 1.489298e-10 
  183000          298 5.977814e-05 1.3050195e-10 
  184000          298 0.00053446909 1.2348934e-10 
  185000          298 0.00081486319 1.2817796e-10 
  186000          298 0.00047255757 1.2571795e-10 
  187000          298 0.00085070346 1.2862021e-10 
  188000          298 0.0009824961 1.386218e-10 
  189000          298 0.00046336501 1.3553699e-10 
  190000          298 0.00081615911 1.3680206e-10 
  191000          298 0.00065734305 1.4204133e-10 
  192000          298 0.00021624874 1.3044436e-10 
  193000          298 0.0010861227 1.3350931e-10 
  194000          298 0.00083512603 1.4276561e-10 
  195000          298 0.00066746167 1.4134424e-10 
  196000          298 0.00056166408 1.3820791e-10 
  197000          298 0.00025711722 1.2898197e-10 
  198000          298 0.0011158844 1.3279377e-10 
  199000          298 0.0010870951 1.4686944e-10 
  200000          298 0.00023433091 1.3911926e-10 
Loop time of 177.833 on 1 procs for 200000 steps with 2431 atoms

Performance: 97.170 ns/day, 0.247 hours/ns, 1124.652 timesteps/s
99.9% CPU use with 1 MPI tasks x no OpenMP threads

MPI task timing breakdown:
Section |  min time  |  avg time  |  max time  |%varavg| %total
---------------------------------------------------------------
Pair    | 3.8535     | 3.8535     | 3.8535     |   0.0 |  2.17
Bond    | 149.42     | 149.42     | 149.42     |   0.0 | 84.02
Neigh   | 6.1117     | 6.1117     | 6.1117     |   0.0 |  3.44
Comm    | 12.121     | 12.121     | 12.121     |   0.0 |  6.82
Output  | 0.55715    | 0.55715    | 0.55715    |   0.0 |  0.31
Modify  | 1.944      | 1.944      | 1.944      |   0.0 |  1.09
Other   |            | 3.827      |            |       |  2.15

Nlocal:    2431 ave 2431 max 2431 min
Histogram: 1 0 0 0 0 0 0 0 0 0
Nghost:    16166 ave 16166 max 16166 min
Histogram: 1 0 0 0 0 0 0 0 0 0
Neighs:    1168 ave 1168 max 1168 min
Histogram: 1 0 0 0 0 0 0 0 0 0

Total # of neighbors = 1168
Ave neighs/atom = 0.480461
Ave special neighs/atom = 6.58988
Neighbor list builds = 87
Dangerous builds = 0
unfix           3
unfix           5
undump          NiPyC2_experiment_with_Xe_xyzmov


Total wall time: 0:02:57

# --------------------------------- Initialization -------------------------------------- #
units           real
atom_style      full
boundary        p p p

pair_style      lj/cut 14.000
bond_style      harmonic
angle_style     cosine/periodic
dihedral_style  harmonic
improper_style  fourier

special_bonds   lj/coul 0.0 0.0 1.0
pair_modify     tail no mix arithmetic
#dielectric      1.0
box tilt        large
read_data       data.NiPyC2_experiment_with_Xe
  triclinic box = (0 0 0) to (31.264 37.5702 30.8228) with tilt (0 -0.682783 0)
  1 by 1 by 1 MPI processor grid
  reading atoms ...
  2431 atoms
  scanning bonds ...
  6 = max bonds/atom
  scanning angles ...
  15 = max angles/atom
  scanning dihedrals ...
  8 = max dihedrals/atom
  scanning impropers ...
  3 = max impropers/atom
  reading bonds ...
  2880 bonds
  reading angles ...
  5490 angles
  reading dihedrals ...
  5760 dihedrals
  reading impropers ...
  3780 impropers
  6 = max # of 1-2 neighbors
  9 = max # of 1-3 neighbors
  12 = max # of special neighbors
  special bonds CPU = 0.000627111 secs
  read_data CPU = 0.027671 secs

#### Atom Groupings ####
group           xe       id   2431   # 55
1 atoms in group xe
group           fram     id   1:2430 # 1:54 56:2431
2430 atoms in group fram
#### END Atom Groupings ####

###
# Fixes are overkill if you simply want to hold a collection of atoms stationary.
# A simpler way to hold atoms stationary is to not include those atoms in your time integration.
#
# Speed up Calculations by exluding framework-framework interactions
# since we are keeping the framework rigid and stationary.
#
# neigh_modify keyword values ...
# keyword = exclude
# values  = group group1-ID group2-ID
#
# group1-ID, group2-ID = exclude if one atom is in 1st group, other in 2nd
###
neigh_modify exclude group fram fram

# ----------------------------- Variables ---------------------- #
dump            NiPyC2_experiment_with_Xe_xyzmov all xyz 1000 NiPyC2_experiment_with_Xe_mov.xyz
dump_modify     NiPyC2_experiment_with_Xe_xyzmov element Ni O N C H Xe
variable        dt         equal 1.00
variable        tdamp      equal 100*${dt}
variable        tdamp      equal 100*1
variable        eqtemp     equal 298.00

# ------------------------------ Equilibriation -------------------------------------------- #
# we do not need to perform equilibriation since we are using a rigid framework
# and the (single) adsorbate has already been inserted into the material via GCMC
# which already included an equilibriation phase.
#fix             1 xe langevin ${eqtemp} ${eqtemp} ${tdamp} 8646
#fix             2 xe nve
#fix             3 fram langevin 298.00 298.00 ${tdamp} 965287
#fix             4 fram nve
#thermo          0
#run             50000
#unfix           1
#unfix           2
#unfix           3
#unfix           4

# --------------------- Production (data gathering) --------------------------------------- #
# A simple way to hold atoms stationary is to not include those atoms in your time integration.
#reset_timestep  0

fix             3 xe nvt temp ${eqtemp} ${eqtemp} ${tdamp}
fix             3 xe nvt temp 298 ${eqtemp} ${tdamp}
fix             3 xe nvt temp 298 298 ${tdamp}
fix             3 xe nvt temp 298 298 100
#fix             6 fram nvt temp 298.00 298.00 ${tdamp}

###
#  mean-squared disp of grp 1
#
# A vector of four quantities is calculated by this compute:
# The first 3 elements of the vector are the squared dx,dy,dz displacements, summed and averaged over atoms in the group.
# The fourth element is the total squared displacement, i.e. (dx*dx + dy*dy + dz*dz),
#  summed and averaged over atoms in the group.
#
# The displacement of an atom is from its reference position.
# This is normally the original position at the time the compute command was issued, unless the average keyword is set to yes.
# The value of the displacement will be 0.0 for atoms not in the specified compute group.
# The slope of the MSD versus time is proportional to the diffusion coefficient.
#
# MSD values can be accumulated in a vector via the fix vector command,
#   and a line fit to the vector to compute its slope via the variable slope function,
#   and thus extract D.
#
# fix ID group-ID vector Nevery value1 value2 ...
#
# c_ID[I] = Ith component of global vector calculated by a compute with ID
# f_ID = global scalar calculated by a fix with ID
# v_name = value calculated by an equal-style variable with name
#
# variable name style args...
#
# The slope() function uses linear regression to fit a line to the set of points,
#   equally spaced by 1 in their x coordinate: (1,V1), (2,V2), …, (N,VN),
#   where the Vi are the values in the global vector of length N.
#   The returned value is the slope of the line.
#   If the line has a single point or is vertical, it returns 1.0e20.
###
compute         msd all msd com yes
fix             5 xe vector 500 c_msd[4]
variable        fitslope equal slope(f_5)/6/(500*dt) # why dividing slope?

thermo_style    custom step v_eqtemp c_msd[4] v_fitslope # prints this info to log file

thermo          1000
run             500000
Neighbor list info ...
  update every 1 steps, delay 10 steps, check yes
  max neighbors/atom: 2000, page size: 100000
  master list distance cutoff = 16
  ghost atom cutoff = 16
  binsize = 8, bins = 4 5 4
  1 neighbor lists, perpetual/occasional/extra = 1 0 0
  (1) pair lj/cut, perpetual
      attributes: half, newton on
      pair build: half/bin/newton/tri
      stencil: half/bin/3d/newton/tri
      bin: standard
WARNING: Inconsistent image flags (src/domain.cpp:785)
Per MPI rank memory allocation (min/avg/max) = 31.83 | 31.83 | 31.83 Mbytes
Step v_eqtemp c_msd[4] v_fitslope 
       0          298 7.7461533e-30 3.3333333e+16 
    1000          298 0.00042584711 7.0974519e-08 
    2000          298 0.0013454554 1.2099698e-07 
    3000          298 0.0010080041 7.8292538e-08 
    4000          298 0.00035225219 2.7474087e-08 
    5000          298 2.8051305e-05 -2.8566017e-09 
    6000          298 0.00051199742 -7.1398096e-09 
    7000          298 0.0010630891 4.0428851e-09 
    8000          298 0.00047428969 1.5582869e-09 
    9000          298 0.00023185699 -2.5149177e-09 
   10000          298 0.00012640708 -5.3182815e-09 
   11000          298 0.00043375988 -5.3222429e-09 
   12000          298 0.0011314854 -1.3900023e-09 
   13000          298 0.0004544605 -4.1446073e-10 
   14000          298 0.00035699575 -1.3441137e-09 
   15000          298 0.00039547616 -1.449672e-09 
   16000          298 0.00073641338 -9.3263617e-10 
   17000          298 0.0007658719 5.3889796e-10 
   18000          298 0.0003487785 9.2059713e-12 
   19000          298 0.00032410463 -4.5353528e-10 
   20000          298 0.00041951592 -8.8577381e-10 
   21000          298 0.0011754764 2.4434587e-10 
   22000          298 0.00035729129 1.9096007e-10 
   23000          298 0.00010552516 -6.0170231e-10 
   24000          298 0.00018219201 -1.1463365e-09 
   25000          298 0.00089655365 -8.0189186e-10 
   26000          298 0.00080298002 -1.6375268e-10 
   27000          298 0.00028310298 -2.6713188e-10 
   28000          298 0.00012164326 -7.6476164e-10 
   29000          298 0.00039027417 -9.9411599e-10 
   30000          298 0.00070847665 -7.8475058e-10 
   31000          298 0.00094968505 -3.2721599e-10 
   32000          298 0.0003100455 -4.0343249e-10 
   33000          298 0.0001547055 -6.977894e-10 
   34000          298 0.00015561856 -9.4251862e-10 
   35000          298 0.00062212697 -8.8860188e-10 
   36000          298 0.00079794483 -4.9179786e-10 
   37000          298 0.00037466062 -4.9931355e-10 
   38000          298 0.00018792044 -6.5087146e-10 
   39000          298 0.00015392514 -7.9539168e-10 
   40000          298 0.00038515048 -8.4376128e-10 
   41000          298 0.0012515989 -4.9694702e-10 
   42000          298 0.00027389452 -4.4372929e-10 
   43000          298 0.00017043144 -6.0198993e-10 
   44000          298 0.00012946681 -7.4086131e-10 
   45000          298 0.00075759335 -6.5968422e-10 
   46000          298 0.00062652509 -4.2382841e-10 
   47000          298 0.00012226355 -5.2938035e-10 
   48000          298 0.00017916602 -6.2638523e-10 
   49000          298 0.00033225797 -6.9364923e-10 
   50000          298 0.0011751652 -4.1941574e-10 
   51000          298 0.00034439041 -3.907917e-10 
   52000          298 0.00013172909 -4.854413e-10 
   53000          298 0.00023213096 -5.4825193e-10 
   54000          298 0.00050776851 -5.3038168e-10 
   55000          298 0.0011229222 -3.6018277e-10 
   56000          298 0.0002756923 -3.0401339e-10 
   57000          298 4.4784862e-05 -4.2188144e-10 
   58000          298 0.00060974612 -4.2237623e-10 
   59000          298  0.001139807 -2.5677435e-10 
   60000          298 0.0013089188 -2.3088358e-11 
   61000          298 0.00037597298 6.1988624e-12 
   62000          298 1.0587131e-05 -1.1261021e-10 
   63000          298 0.00057299802 -1.4389026e-10 
   64000          298 0.0012196068 1.9870802e-11 
   65000          298 0.00089591319 1.233448e-10 
   66000          298 0.00036014703 1.2672533e-10 
   67000          298 0.0002111677 4.3135275e-11 
   68000          298 0.00089056749 6.9313315e-11 
   69000          298 0.00063021761 1.0210536e-10 
   70000          298 0.0005853183 1.0192845e-10 
   71000          298 0.00019531652 3.924519e-11 
   72000          298 0.00026445332 -2.6313207e-11 
   73000          298 0.0008642044 1.5624462e-11 
   74000          298 0.0013233668 1.5127253e-10 
   75000          298 0.00073660635 2.2564142e-10 
   76000          298 0.00012233397 1.6870934e-10 
   77000          298 0.00010503518 8.7192595e-11 
   78000          298 0.0010085741 1.2003335e-10 
   79000          298 0.00093040783 2.0500815e-10 
   80000          298 0.00050151326 1.9283536e-10 
   81000          298 0.00056111037 1.9327269e-10 
   82000          298 0.00025659141 1.4663809e-10 
   83000          298 0.0015197976 2.2778778e-10 
   84000          298 0.0006236665 2.7885447e-10 
   85000          298 0.00022688052 2.3018893e-10 
   86000          298 0.00090886267 2.4461611e-10 
   87000          298 0.0014678291 3.5582094e-10 
   88000          298 0.00062707312 3.7900105e-10 
   89000          298 0.00020692614 3.3176222e-10 
   90000          298 0.00037443836 2.8903927e-10 
   91000          298 0.00082131601 2.9511235e-10 
   92000          298 0.00064284425 3.0188874e-10 
   93000          298 0.00044394098 2.9895206e-10 
   94000          298 0.0001546216 2.5701907e-10 
   95000          298 0.00053714997 2.3409294e-10 
   96000          298 0.0013813013 2.8944955e-10 
   97000          298 0.0011232331 3.6350914e-10 
   98000          298 0.00016196743 3.3216371e-10 
   99000          298 0.00010454039 2.7371965e-10 
  100000          298 0.0010725739  2.86915e-10 
  101000          298 0.0015215258 3.7643477e-10 
  102000          298 0.00067682352 3.9424293e-10 
  103000          298 0.00021298824 3.5943598e-10 
  104000          298 8.3808183e-05 3.0572332e-10 
  105000          298 0.0012834638 3.2367776e-10 
  106000          298 0.0005539745 3.401325e-10 
  107000          298 0.00037609246 3.1490542e-10 
  108000          298 0.00076763515  3.15422e-10 
  109000          298 0.0010375771 3.4633103e-10 
  110000          298 0.00016153566 3.1736035e-10 
  111000          298 0.00021218057 2.7610749e-10 
  112000          298 0.00095506444 2.8623819e-10 
  113000          298 0.00072059389 2.9287466e-10 
  114000          298 0.00043239464 2.8124523e-10 
  115000          298 0.00049993575 2.6738616e-10 
  116000          298 0.0013810647 3.0672905e-10 
  117000          298 0.0001825466 2.8942462e-10 
  118000          298 0.00018178279 2.5039206e-10 
  119000          298 0.00068626356 2.4401782e-10 
  120000          298 0.00081950816 2.5096076e-10 
  121000          298 0.0010395314 2.709794e-10 
  122000          298 0.00025200119 2.6041323e-10 
  123000          298 6.3926993e-05 2.1986404e-10 
  124000          298 0.00073025251 2.1108279e-10 
  125000          298 0.00056713846 2.1279599e-10 
  126000          298 0.00093790932 2.2071776e-10 
  127000          298 0.00033033768 2.1298093e-10 
  128000          298 0.00023840206 1.8591708e-10 
  129000          298 0.0010579886 1.9881022e-10 
  130000          298 0.0006687871 2.0483925e-10 
  131000          298 0.00068669151 2.0290682e-10 
  132000          298 0.0010264614 2.2026846e-10 
  133000          298 0.00062940446 2.2772141e-10 
  134000          298 0.00044642847 2.1289439e-10 
  135000          298 0.00093918171 2.2148937e-10 
  136000          298 0.00056917857 2.2460607e-10 
  137000          298 0.00021907795 2.017343e-10 
  138000          298 0.0013892327 2.1907531e-10 
  139000          298 0.0009011248 2.4663188e-10 
  140000          298 0.00034366206 2.3211886e-10 
  141000          298 0.00092387197 2.3535184e-10 
  142000          298 0.0013418694 2.6171305e-10 
  143000          298 0.00076082123  2.74625e-10 
  144000          298 0.00018917675 2.5444932e-10 
  145000          298 0.0003696627 2.347387e-10 
  146000          298 0.00062691995 2.2700907e-10 
  147000          298 0.00098072441 2.3399535e-10 
  148000          298 0.00036897815 2.3409858e-10 
  149000          298 8.4266341e-05 2.0874816e-10 
  150000          298 0.00028966816 1.8834913e-10 
  151000          298 0.0010957261 1.9521022e-10 
  152000          298 0.0016747487 2.4010443e-10 
  153000          298 0.00041365986 2.3929376e-10 
  154000          298 3.0030574e-05 2.1309689e-10 
  155000          298 0.00030067284 1.9262532e-10 
  156000          298 0.00068884334 1.8965491e-10 
  157000          298 0.00048890473 1.8031618e-10 
  158000          298 0.00082047524 1.8307935e-10 
  159000          298 0.00039896931 1.7295559e-10 
  160000          298 0.00052798363 1.6453281e-10 
  161000          298 0.00018321679 1.4777715e-10 
  162000          298 0.00014014594 1.2735352e-10 
  163000          298 0.0007838111 1.274771e-10 
  164000          298 0.0013715715 1.492417e-10 
  165000          298 0.00085206705 1.6292915e-10 
  166000          298 5.5606545e-05 1.4604411e-10 
  167000          298 0.00023171517 1.275235e-10 
  168000          298 0.0012655703 1.3905956e-10 
  169000          298 0.0011037259 1.5731826e-10 
  170000          298 0.00073865505 1.6184068e-10 
  171000          298 0.00016476648 1.4963876e-10 
  172000          298 0.00012992957 1.3022521e-10 
  173000          298 0.0013794506 1.4162832e-10 
  174000          298 0.00041867123 1.4327069e-10 
  175000          298 0.00044511392 1.3477714e-10 
  176000          298 0.00092387473 1.4003616e-10 
  177000          298 0.0013458235 1.5883139e-10 
  178000          298 0.00069249752 1.6427919e-10 
  179000          298 0.00033347785 1.5631796e-10 
  180000          298 0.00033196164 1.4421504e-10 
  181000          298 0.0012076224 1.5319799e-10 
  182000          298 0.00029970514 1.489298e-10 
  183000          298 5.977814e-05 1.3050195e-10 
  184000          298 0.00053446909 1.2348934e-10 
  185000          298 0.00081486319 1.2817796e-10 
  186000          298 0.00047255757 1.2571795e-10 
  187000          298 0.00085070346 1.2862021e-10 
  188000          298 0.0009824961 1.386218e-10 
  189000          298 0.00046336501 1.3553699e-10 
  190000          298 0.00081615911 1.3680206e-10 
  191000          298 0.00065734305 1.4204133e-10 
  192000          298 0.00021624874 1.3044436e-10 
  193000          298 0.0010861227 1.3350931e-10 
  194000          298 0.00083512603 1.4276561e-10 
  195000          298 0.00066746167 1.4134424e-10 
  196000          298 0.00056166408 1.3820791e-10 
  197000          298 0.00025711722 1.2898197e-10 
  198000          298 0.0011158844 1.3279377e-10 
  199000          298 0.0010870951 1.4686944e-10 
  200000          298 0.00023433091 1.3911926e-10 
  201000          298 0.00064405918 1.3479606e-10 
  202000          298 0.0011082185 1.4401056e-10 
  203000          298 0.00054887213 1.441317e-10 
  204000          298 0.00015924473 1.3242537e-10 
  205000          298 0.00045569403 1.239134e-10 
  206000          298 0.00077852527 1.2415667e-10 
  207000          298 0.00082741066 1.2585139e-10 
  208000          298 0.0005408822 1.2686031e-10 
  209000          298 0.00042482474 1.2022478e-10 
  210000          298 0.00056405333 1.1703455e-10 
  211000          298 0.00026488544 1.0929813e-10 
  212000          298 0.00021554126 9.838441e-11 
  213000          298  0.001422172 1.0835197e-10 
  214000          298 0.00064559154 1.1304729e-10 
  215000          298 0.00037680417 1.0686851e-10 
  216000          298 0.00061971975 1.0480849e-10 
  217000          298 0.00060410192 1.0561261e-10 
  218000          298 8.8564503e-05 9.4925513e-11 
  219000          298 0.00031548616 8.5658808e-11 
  220000          298 0.00062451484 8.6965611e-11 
  221000          298 0.00065582352 8.6185857e-11 
  222000          298 0.00059342687 8.8590789e-11 
  223000          298 0.00018096545 8.0117133e-11 
  224000          298 0.00085050633 8.0184678e-11 
  225000          298 0.0012800388 9.1818641e-11 
  226000          298 0.0009765328 1.0061969e-10 
  227000          298 6.964073e-05 9.2628348e-11 
  228000          298 8.3167618e-05 8.0905786e-11 
  229000          298 0.00097172261 8.1743267e-11 
  230000          298 0.0013499018 9.4318093e-11 
  231000          298 0.00086762757 1.0022637e-10 
  232000          298 0.00014290494 9.375376e-11 
  233000          298 5.426628e-05 8.240855e-11 
  234000          298 0.0011767695 8.510663e-11 
  235000          298 0.00054678818 8.8455144e-11 
  236000          298 0.00035142962 8.335947e-11 
  237000          298 0.00065713144 8.1495654e-11 
  238000          298 0.0010030828 8.5552186e-11 
  239000          298 0.00057330369 8.6974516e-11 
  240000          298 0.00018199452 8.0585472e-11 
  241000          298 0.00033838762 7.3720715e-11 
  242000          298 0.0015329322 8.405652e-11 
  243000          298 0.00016112875 8.0200921e-11 
  244000          298 0.00015882196 7.1059528e-11 
  245000          298 0.00045201458 6.5916067e-11 
  246000          298 0.00077152276 6.6996003e-11 
  247000          298 0.00098373827 7.3288998e-11 
  248000          298 0.0003144303 7.0401824e-11 
  249000          298 0.00014734818 6.2693347e-11 
  250000          298 0.00014239849 5.4254474e-11 
  251000          298 0.0007205403 5.2830625e-11 
  252000          298 0.00071325413 5.6712673e-11 
  253000          298  0.000334692 5.2641766e-11 
  254000          298 0.0004353478 4.8377528e-11 
  255000          298 0.00074729328 4.8055827e-11 
  256000          298 0.00081424412 5.0358836e-11 
  257000          298 0.00066755911 5.1502918e-11 
  258000          298 0.00043306982 4.8845903e-11 
  259000          298 0.00039095442 4.4964626e-11 
  260000          298 0.00088201854 4.6261994e-11 
  261000          298 0.00045269126 4.8344331e-11 
  262000          298 4.7269948e-05 4.083402e-11 
  263000          298 0.00019803464 3.3971992e-11 
  264000          298 0.00099765051 3.5677613e-11 
  265000          298 0.0017492902 5.1415506e-11 
  266000          298 0.00046464873 5.3027303e-11 
  267000          298 4.6727499e-05 4.5689762e-11 
  268000          298 0.00022268177 3.9136899e-11 
  269000          298 0.00078982934 3.8839265e-11 
  270000          298 0.00095227958 4.2842009e-11 
  271000          298 0.00031479179 4.2299772e-11 
  272000          298 0.00011762229 3.6085654e-11 
  273000          298 0.00028834457 3.0830104e-11 
  274000          298 0.00089115607 3.1802744e-11 
  275000          298 0.0017493081 4.4894546e-11 
  276000          298 0.00065091391 4.9079778e-11 
  277000          298 0.00011611057 4.3241944e-11 
  278000          298 0.00035895981 3.8142505e-11 
  279000          298 0.00086946315 3.9017031e-11 
  280000          298 0.00072852819 4.0285131e-11 
  281000          298 0.00049857266 3.9963775e-11 
  282000          298 0.00044953375 3.778453e-11 
  283000          298 0.0005195646 3.677839e-11 
  284000          298 0.00087732351 3.8998346e-11 
  285000          298 0.00034385587 3.8497573e-11 
  286000          298 4.2608527e-05 3.2293326e-11 
  287000          298 0.00028870631 2.746963e-11 
  288000          298 0.00093679141 2.8918655e-11 
  289000          298 0.0015176563 3.9322472e-11 
  290000          298 0.00082765546 4.4233668e-11 
  291000          298 0.00019947697 4.0677868e-11 
  292000          298 0.00047879393 3.7405088e-11 
  293000          298 0.00078750951 3.9542877e-11 
  294000          298 0.00033685574 3.7452545e-11 
  295000          298 0.00037199364 3.4880202e-11 
  296000          298 0.00039492958 3.2681406e-11 
  297000          298 0.00076286149 3.3699569e-11 
  298000          298 0.00082973842 3.6204747e-11 
  299000          298 0.0004042439 3.5397297e-11 
  300000          298 8.4817342e-05 3.0465993e-11 
  301000          298 0.00018476771 2.5357703e-11 
  302000          298 0.00070191527 2.4806899e-11 
  303000          298 0.0011853619 3.0773156e-11 
  304000          298 0.00071447711 3.3363495e-11 
  305000          298 0.00043085741 3.1515727e-11 
  306000          298 0.00022195583 2.7330741e-11 
  307000          298 0.00031851024 2.3515606e-11 
  308000          298 0.00067228788 2.4400563e-11 
  309000          298 0.00078680351 2.5403115e-11 
  310000          298 0.0005110597 2.5666777e-11 
  311000          298 0.00015822075 2.1201692e-11 
  312000          298 0.0008073154 2.0938026e-11 
  313000          298 0.0017067105 3.091669e-11 
  314000          298 0.00059738429 3.3682778e-11 
  315000          298 6.5753121e-05 2.8613886e-11 
  316000          298 0.00049902048 2.5767319e-11 
  317000          298 0.0014822433 3.1841903e-11 
  318000          298 0.00098510335 3.6908588e-11 
  319000          298 0.00057299843 3.6869547e-11 
  320000          298 0.00022002464 3.3686815e-11 
  321000          298 0.0001938816 2.9419306e-11 
  322000          298 0.0011400101 3.1904626e-11 
  323000          298 0.00076386901 3.4728939e-11 
  324000          298 0.00029223266 3.2755969e-11 
  325000          298 0.00014633608 2.8723705e-11 
  326000          298 0.00022566103 2.4793927e-11 
  327000          298 0.00078278334 2.4776097e-11 
  328000          298 0.00098845316 2.8604992e-11 
  329000          298 0.00054285343 2.8963895e-11 
  330000          298 0.00025106547 2.5734068e-11 
  331000          298 0.0012409994 2.854469e-11 
  332000          298 0.00087965274 3.3700234e-11 
  333000          298 0.00014888137 3.0015837e-11 
  334000          298 0.00052745201 2.8334433e-11 
  335000          298 0.00073448694 2.9006789e-11 
  336000          298 0.00044157602 2.7353758e-11 
  337000          298 0.0010885832 2.9544035e-11 
  338000          298 0.00048671545 2.9506299e-11 
  339000          298 0.00079969494 2.9759143e-11 
  340000          298 0.00054508498 2.9555369e-11 
  341000          298 0.00036211279 2.783453e-11 
  342000          298 0.00036841122 2.5656904e-11 
  343000          298 0.0012070668 2.867469e-11 
  344000          298 0.00037946434 2.8757816e-11 
  345000          298 4.6670266e-05 2.4113626e-11 
  346000          298 0.00021743876 2.0350643e-11 
  347000          298 0.0010677469 2.1884304e-11 
  348000          298 0.0014927938 2.8913193e-11 
  349000          298 0.00075308143 3.2034273e-11 
  350000          298 7.1761038e-05 2.8350923e-11 
  351000          298 0.00032857743 2.5259303e-11 
  352000          298 0.00054458609 2.4657944e-11 
  353000          298 0.0006413947 2.4203299e-11 
  354000          298 0.00053154453 2.4982005e-11 
  355000          298 0.00022548222 2.2537029e-11 
  356000          298 0.00038152333 2.0491947e-11 
  357000          298 0.00069754036 2.0525794e-11 
  358000          298 0.00098904371 2.2977585e-11 
  359000          298 0.00010387772 2.0433473e-11 
  360000          298 0.00015584174 1.6497098e-11 
  361000          298 0.00088490079 1.7224161e-11 
  362000          298 0.00054660202 1.6900361e-11 
  363000          298 0.00095547714 1.8515764e-11 
  364000          298 0.00023443704 1.6931986e-11 
  365000          298 0.00038590886 1.4365103e-11 
  366000          298 0.0012329856 1.7708873e-11 
  367000          298 0.0012080636 2.2188271e-11 
  368000          298 0.0004465303 2.2955523e-11 
  369000          298 2.8700842e-05 1.8857074e-11 
  370000          298 0.00056380483 1.7191337e-11 
  371000          298 0.0012949858 2.145842e-11 
  372000          298 0.00090769983 2.4420034e-11 
  373000          298 0.00059404144 2.4826576e-11 
  374000          298 0.00010360248 2.161853e-11 
  375000          298 0.00027208712 1.8516217e-11 
  376000          298 0.0010854953 2.1258703e-11 
  377000          298 0.00067534871 2.2405239e-11 
  378000          298 0.00015683788 2.0042035e-11 
  379000          298 5.443923e-05 1.6346943e-11 
  380000          298 0.00067406256 1.5347248e-11 
  381000          298 0.0011629455 1.9614794e-11 
  382000          298 0.0001942116 1.761554e-11 
  383000          298 0.0002460715 1.4988858e-11 
  384000          298 0.00045402497 1.3097301e-11 
  385000          298 0.0012553952 1.6668088e-11 
  386000          298 0.00045057457 1.7162195e-11 
  387000          298 0.00015479794 1.4014826e-11 
  388000          298 0.00032521187 1.176729e-11 
  389000          298 0.00065657522 1.1955887e-11 
  390000          298 0.0010569392 1.4207341e-11 
  391000          298 0.0010613278 1.7804952e-11 
  392000          298 0.00023250959 1.6404767e-11 
  393000          298 8.7574628e-05 1.2869005e-11 
  394000          298 0.00097793513 1.3482168e-11 
  395000          298 0.0012797148 1.772682e-11 
  396000          298 0.00092273443 2.0642631e-11 
  397000          298 0.00018809525 1.865041e-11 
  398000          298 0.00090291762 1.866876e-11 
  399000          298 0.0010724335 2.2880176e-11 
  400000          298 0.00040134881 2.1849744e-11 
  401000          298 0.0007880804 2.2276501e-11 
  402000          298 0.00050083765 2.1745858e-11 
  403000          298 0.0011740923 2.3905858e-11 
  404000          298 0.00098925316 2.6929882e-11 
  405000          298 0.00028671848 2.563576e-11 
  406000          298 0.00010111547 2.2862308e-11 
  407000          298 0.00028201397 2.0085837e-11 
  408000          298 0.0012498464 2.3113061e-11 
  409000          298 0.00015238065 2.1552422e-11 
  410000          298 0.00019271546 1.8726841e-11 
  411000          298 0.00066615586 1.8276864e-11 
  412000          298 0.0011458654 2.1261809e-11 
  413000          298 0.0008951141 2.3187394e-11 
  414000          298 0.00045746008 2.2859499e-11 
  415000          298  0.000316195 2.0718498e-11 
  416000          298 0.00091072401 2.1223884e-11 
  417000          298 0.00053773018 2.0972187e-11 
  418000          298 0.00054603714 2.0227237e-11 
  419000          298 0.00032695949 1.8469381e-11 
  420000          298 0.00058513709 1.7370874e-11 
  421000          298 0.00045788124 1.669307e-11 
  422000          298 0.00057593937 1.5789674e-11 
  423000          298 0.00066080061 1.6229338e-11 
  424000          298 0.00068907967 1.6067302e-11 
  425000          298 0.00077080786 1.6803958e-11 
  426000          298 0.00070824376 1.7230691e-11 
  427000          298 0.00065939622 1.7359194e-11 
  428000          298 0.00046417741 1.691717e-11 
  429000          298 0.00072585653 1.6936502e-11 
  430000          298 0.00055972512 1.7597017e-11 
  431000          298 0.00039157431 1.6665116e-11 
  432000          298 0.00024590943 1.5211498e-11 
  433000          298 0.00011835325 1.2850593e-11 
  434000          298 0.00039123721 1.0993965e-11 
  435000          298 0.0010917802 1.2693825e-11 
  436000          298 0.0010358938 1.5411647e-11 
  437000          298 0.00045427109 1.5412764e-11 
  438000          298 0.00022081282 1.3241561e-11 
  439000          298 0.0015449899 1.5822399e-11 
  440000          298 0.00061130148 1.7988066e-11 
  441000          298 0.00025932909 1.6108647e-11 
  442000          298  0.000917051 1.6811877e-11 
  443000          298  0.001439566 2.0451905e-11 
  444000          298 0.00085215292 2.257894e-11 
  445000          298 0.00038639823 2.176087e-11 
  446000          298 4.5865675e-05 1.9104723e-11 
  447000          298 0.00069457446 1.8253354e-11 
  448000          298 0.00081108019 2.0460828e-11 
  449000          298 0.00030551615 1.8938593e-11 
  450000          298 0.00081891169 1.9082858e-11 
  451000          298 0.0013997498 2.2178227e-11 
  452000          298 0.0010342441 2.5189585e-11 
  453000          298 0.00047322848 2.4981413e-11 
  454000          298 0.00018825379 2.3085661e-11 
  455000          298 0.00085848401 2.3115672e-11 
  456000          298 0.00057021921 2.4311096e-11 
  457000          298 1.846598e-05 2.1736796e-11 
  458000          298 0.00045574206 2.0218381e-11 
  459000          298 0.00079261732 2.0682066e-11 
  460000          298 0.00061921094 2.0929522e-11 
  461000          298 0.00084298463 2.1861753e-11 
  462000          298 0.00059504225 2.2204368e-11 
  463000          298 0.00022930286 2.0827859e-11 
  464000          298 0.00040411105 1.9688531e-11 
  465000          298 0.00064373827 1.995493e-11 
  466000          298 0.00075619168 2.0524163e-11 
  467000          298 0.00037602259 2.0027858e-11 
  468000          298 0.00013372797 1.7971293e-11 
  469000          298 0.00062593142 1.7241247e-11 
  470000          298 0.0017300983 2.110349e-11 
  471000          298 0.00078994823 2.3268742e-11 
  472000          298 4.4144421e-05 2.1207847e-11 
  473000          298 0.00011679327 1.8715072e-11 
  474000          298 0.00093135343 1.8925736e-11 
  475000          298 0.0014896947 2.2543961e-11 
  476000          298 0.00067920392 2.363872e-11 
  477000          298 0.00010553542 2.1972227e-11 
  478000          298 0.00013786688 1.9731919e-11 
  479000          298 0.00070853776 1.931902e-11 
  480000          298 0.00087104802 2.0052318e-11 
  481000          298 0.00041123738 2.0308007e-11 
  482000          298 3.9083532e-05 1.7997369e-11 
  483000          298 0.00051972431 1.6746112e-11 
  484000          298 0.0010769902 1.8307815e-11 
  485000          298 0.0014108163 2.1494351e-11 
  486000          298 0.00064478918 2.2562063e-11 
  487000          298 6.2576462e-05 2.0534509e-11 
  488000          298 0.00060238681 1.9497979e-11 
  489000          298 0.0012774256 2.2046786e-11 
  490000          298 0.00070656309 2.2965106e-11 
  491000          298 0.00063069578 2.2800657e-11 
  492000          298 0.00084274007 2.3740577e-11 
  493000          298 0.00082966985 2.4692062e-11 
  494000          298 0.00096032682 2.5911746e-11 
  495000          298 0.00088547909 2.7307347e-11 
  496000          298 0.00064191138 2.7459452e-11 
  497000          298 0.00033449711 2.6339535e-11 
  498000          298 0.0012727246 2.7448357e-11 
  499000          298 0.00050552696 2.8518294e-11 
  500000          298 2.8582827e-05 2.6165626e-11 
Loop time of 434.784 on 1 procs for 500000 steps with 2431 atoms

Performance: 99.360 ns/day, 0.242 hours/ns, 1149.997 timesteps/s
100.0% CPU use with 1 MPI tasks x no OpenMP threads

MPI task timing breakdown:
Section |  min time  |  avg time  |  max time  |%varavg| %total
---------------------------------------------------------------
Pair    | 9.3474     | 9.3474     | 9.3474     |   0.0 |  2.15
Bond    | 367.16     | 367.16     | 367.16     |   0.0 | 84.45
Neigh   | 13.217     | 13.217     | 13.217     |   0.0 |  3.04
Comm    | 29.557     | 29.557     | 29.557     |   0.0 |  6.80
Output  | 1.3777     | 1.3777     | 1.3777     |   0.0 |  0.32
Modify  | 4.6712     | 4.6712     | 4.6712     |   0.0 |  1.07
Other   |            | 9.451      |            |       |  2.17

Nlocal:    2431 ave 2431 max 2431 min
Histogram: 1 0 0 0 0 0 0 0 0 0
Nghost:    16166 ave 16166 max 16166 min
Histogram: 1 0 0 0 0 0 0 0 0 0
Neighs:    1179 ave 1179 max 1179 min
Histogram: 1 0 0 0 0 0 0 0 0 0

Total # of neighbors = 1179
Ave neighs/atom = 0.484986
Ave special neighs/atom = 6.58988
Neighbor list builds = 192
Dangerous builds = 0
unfix           3
unfix           5
undump          NiPyC2_experiment_with_Xe_xyzmov


Total wall time: 0:07:14

# --------------------------------- Initialization -------------------------------------- #
units           real
atom_style      full
boundary        p p p

pair_style      lj/cut 14.000
bond_style      harmonic
angle_style     cosine/periodic
dihedral_style  harmonic
improper_style  fourier

special_bonds   lj/coul 0.0 0.0 1.0
pair_modify     tail no mix arithmetic
#dielectric      1.0
box tilt        large
read_data       data.NiPyC2_experiment_with_Xe
  triclinic box = (0 0 0) to (31.264 37.5702 30.8228) with tilt (0 -0.682783 0)
  1 by 1 by 1 MPI processor grid
  reading atoms ...
  2431 atoms
  scanning bonds ...
  6 = max bonds/atom
  scanning angles ...
  15 = max angles/atom
  scanning dihedrals ...
  8 = max dihedrals/atom
  scanning impropers ...
  3 = max impropers/atom
  reading bonds ...
  2880 bonds
  reading angles ...
  5490 angles
  reading dihedrals ...
  5760 dihedrals
  reading impropers ...
  3780 impropers
  6 = max # of 1-2 neighbors
  9 = max # of 1-3 neighbors
  12 = max # of special neighbors
  special bonds CPU = 0.000691653 secs
  read_data CPU = 0.0379405 secs

#### Atom Groupings ####
group           xe       id   2431   # 55
1 atoms in group xe
group           fram     id   1:2430 # 1:54 56:2431
2430 atoms in group fram
#### END Atom Groupings ####

###
# Fixes are overkill if you simply want to hold a collection of atoms stationary.
# A simpler way to hold atoms stationary is to not include those atoms in your time integration.
#
# Speed up Calculations by exluding framework-framework interactions
# since we are keeping the framework rigid and stationary.
#
# neigh_modify keyword values ...
# keyword = exclude
# values  = group group1-ID group2-ID
#
# group1-ID, group2-ID = exclude if one atom is in 1st group, other in 2nd
###
neigh_modify exclude group fram fram

# ----------------------------- Variables ---------------------- #
dump            NiPyC2_experiment_with_Xe_xyzmov all xyz 1000 NiPyC2_experiment_with_Xe_mov.xyz
dump_modify     NiPyC2_experiment_with_Xe_xyzmov element Ni O N C H Xe
variable        dt         equal 1.00
variable        tdamp      equal 100*${dt}
variable        tdamp      equal 100*1
variable        eqtemp     equal 298.00

# ------------------------------ Equilibriation -------------------------------------------- #
# we do not need to perform equilibriation since we are using a rigid framework
# and the (single) adsorbate has already been inserted into the material via GCMC
# which already included an equilibriation phase.
#fix             1 xe langevin ${eqtemp} ${eqtemp} ${tdamp} 8646
#fix             2 xe nve
#fix             3 fram langevin 298.00 298.00 ${tdamp} 965287
#fix             4 fram nve
#thermo          0
#run             50000
#unfix           1
#unfix           2
#unfix           3
#unfix           4

# --------------------- Production (data gathering) --------------------------------------- #
# A simple way to hold atoms stationary is to not include those atoms in your time integration.
#reset_timestep  0

fix             3 xe nvt temp ${eqtemp} ${eqtemp} ${tdamp}
fix             3 xe nvt temp 298 ${eqtemp} ${tdamp}
fix             3 xe nvt temp 298 298 ${tdamp}
fix             3 xe nvt temp 298 298 100
#fix             6 fram nvt temp 298.00 298.00 ${tdamp}

###
#  mean-squared disp of grp 1
#
# A vector of four quantities is calculated by this compute:
# The first 3 elements of the vector are the squared dx,dy,dz displacements, summed and averaged over atoms in the group.
# The fourth element is the total squared displacement, i.e. (dx*dx + dy*dy + dz*dz),
#  summed and averaged over atoms in the group.
#
# The displacement of an atom is from its reference position.
# This is normally the original position at the time the compute command was issued, unless the average keyword is set to yes.
# The value of the displacement will be 0.0 for atoms not in the specified compute group.
# The slope of the MSD versus time is proportional to the diffusion coefficient.
#
# MSD values can be accumulated in a vector via the fix vector command,
#   and a line fit to the vector to compute its slope via the variable slope function,
#   and thus extract D.
#
# fix ID group-ID vector Nevery value1 value2 ...
#
# c_ID[I] = Ith component of global vector calculated by a compute with ID
# f_ID = global scalar calculated by a fix with ID
# v_name = value calculated by an equal-style variable with name
#
# variable name style args...
#
# The slope() function uses linear regression to fit a line to the set of points,
#   equally spaced by 1 in their x coordinate: (1,V1), (2,V2), …, (N,VN),
#   where the Vi are the values in the global vector of length N.
#   The returned value is the slope of the line.
#   If the line has a single point or is vertical, it returns 1.0e20.
###
compute         msd all msd com yes
fix             5 xe vector 500 c_msd[4]
variable        fitslope equal slope(f_5)/6/(500*dt) # why dividing slope?

thermo_style    custom step v_eqtemp c_msd[4] v_fitslope # prints this info to log file

thermo          1000
run             1000000
Neighbor list info ...
  update every 1 steps, delay 10 steps, check yes
  max neighbors/atom: 2000, page size: 100000
  master list distance cutoff = 16
  ghost atom cutoff = 16
  binsize = 8, bins = 4 5 4
  1 neighbor lists, perpetual/occasional/extra = 1 0 0
  (1) pair lj/cut, perpetual
      attributes: half, newton on
      pair build: half/bin/newton/tri
      stencil: half/bin/3d/newton/tri
      bin: standard
WARNING: Inconsistent image flags (src/domain.cpp:785)
Per MPI rank memory allocation (min/avg/max) = 31.83 | 31.83 | 31.83 Mbytes
Step v_eqtemp c_msd[4] v_fitslope 
       0          298 7.7461533e-30 3.3333333e+16 
    1000          298 0.00042584711 7.0974519e-08 
    2000          298 0.0013454554 1.2099698e-07 
    3000          298 0.0010080041 7.8292538e-08 
    4000          298 0.00035225219 2.7474087e-08 
    5000          298 2.8051305e-05 -2.8566017e-09 
    6000          298 0.00051199742 -7.1398096e-09 
    7000          298 0.0010630891 4.0428851e-09 
    8000          298 0.00047428969 1.5582869e-09 
    9000          298 0.00023185699 -2.5149177e-09 
   10000          298 0.00012640708 -5.3182815e-09 
   11000          298 0.00043375988 -5.3222429e-09 
   12000          298 0.0011314854 -1.3900023e-09 
   13000          298 0.0004544605 -4.1446073e-10 
   14000          298 0.00035699575 -1.3441137e-09 
   15000          298 0.00039547616 -1.449672e-09 
   16000          298 0.00073641338 -9.3263617e-10 
   17000          298 0.0007658719 5.3889796e-10 
   18000          298 0.0003487785 9.2059713e-12 
   19000          298 0.00032410463 -4.5353528e-10 
   20000          298 0.00041951592 -8.8577381e-10 
   21000          298 0.0011754764 2.4434587e-10 
   22000          298 0.00035729129 1.9096007e-10 
   23000          298 0.00010552516 -6.0170231e-10 
   24000          298 0.00018219201 -1.1463365e-09 
   25000          298 0.00089655365 -8.0189186e-10 
   26000          298 0.00080298002 -1.6375268e-10 
   27000          298 0.00028310298 -2.6713188e-10 
   28000          298 0.00012164326 -7.6476164e-10 
   29000          298 0.00039027417 -9.9411599e-10 
   30000          298 0.00070847665 -7.8475058e-10 
   31000          298 0.00094968505 -3.2721599e-10 
   32000          298 0.0003100455 -4.0343249e-10 
   33000          298 0.0001547055 -6.977894e-10 
   34000          298 0.00015561856 -9.4251862e-10 
   35000          298 0.00062212697 -8.8860188e-10 
   36000          298 0.00079794483 -4.9179786e-10 
   37000          298 0.00037466062 -4.9931355e-10 
   38000          298 0.00018792044 -6.5087146e-10 
   39000          298 0.00015392514 -7.9539168e-10 
   40000          298 0.00038515048 -8.4376128e-10 
   41000          298 0.0012515989 -4.9694702e-10 
   42000          298 0.00027389452 -4.4372929e-10 
   43000          298 0.00017043144 -6.0198993e-10 
   44000          298 0.00012946681 -7.4086131e-10 
   45000          298 0.00075759335 -6.5968422e-10 
   46000          298 0.00062652509 -4.2382841e-10 
   47000          298 0.00012226355 -5.2938035e-10 
   48000          298 0.00017916602 -6.2638523e-10 
   49000          298 0.00033225797 -6.9364923e-10 
   50000          298 0.0011751652 -4.1941574e-10 
   51000          298 0.00034439041 -3.907917e-10 
   52000          298 0.00013172909 -4.854413e-10 
   53000          298 0.00023213096 -5.4825193e-10 
   54000          298 0.00050776851 -5.3038168e-10 
   55000          298 0.0011229222 -3.6018277e-10 
   56000          298 0.0002756923 -3.0401339e-10 
   57000          298 4.4784862e-05 -4.2188144e-10 
   58000          298 0.00060974612 -4.2237623e-10 
   59000          298  0.001139807 -2.5677435e-10 
   60000          298 0.0013089188 -2.3088358e-11 
   61000          298 0.00037597298 6.1988624e-12 
   62000          298 1.0587131e-05 -1.1261021e-10 
   63000          298 0.00057299802 -1.4389026e-10 
   64000          298 0.0012196068 1.9870802e-11 
   65000          298 0.00089591319 1.233448e-10 
   66000          298 0.00036014703 1.2672533e-10 
   67000          298 0.0002111677 4.3135275e-11 
   68000          298 0.00089056749 6.9313315e-11 
   69000          298 0.00063021761 1.0210536e-10 
   70000          298 0.0005853183 1.0192845e-10 
   71000          298 0.00019531652 3.924519e-11 
   72000          298 0.00026445332 -2.6313207e-11 
   73000          298 0.0008642044 1.5624462e-11 
   74000          298 0.0013233668 1.5127253e-10 
   75000          298 0.00073660635 2.2564142e-10 
   76000          298 0.00012233397 1.6870934e-10 
   77000          298 0.00010503518 8.7192595e-11 
   78000          298 0.0010085741 1.2003335e-10 
   79000          298 0.00093040783 2.0500815e-10 
   80000          298 0.00050151326 1.9283536e-10 
   81000          298 0.00056111037 1.9327269e-10 
   82000          298 0.00025659141 1.4663809e-10 
   83000          298 0.0015197976 2.2778778e-10 
   84000          298 0.0006236665 2.7885447e-10 
   85000          298 0.00022688052 2.3018893e-10 
   86000          298 0.00090886267 2.4461611e-10 
   87000          298 0.0014678291 3.5582094e-10 
   88000          298 0.00062707312 3.7900105e-10 
   89000          298 0.00020692614 3.3176222e-10 
   90000          298 0.00037443836 2.8903927e-10 
   91000          298 0.00082131601 2.9511235e-10 
   92000          298 0.00064284425 3.0188874e-10 
   93000          298 0.00044394098 2.9895206e-10 
   94000          298 0.0001546216 2.5701907e-10 
   95000          298 0.00053714997 2.3409294e-10 
   96000          298 0.0013813013 2.8944955e-10 
   97000          298 0.0011232331 3.6350914e-10 
   98000          298 0.00016196743 3.3216371e-10 
   99000          298 0.00010454039 2.7371965e-10 
  100000          298 0.0010725739  2.86915e-10 
  101000          298 0.0015215258 3.7643477e-10 
  102000          298 0.00067682352 3.9424293e-10 
  103000          298 0.00021298824 3.5943598e-10 
  104000          298 8.3808183e-05 3.0572332e-10 
  105000          298 0.0012834638 3.2367776e-10 
  106000          298 0.0005539745 3.401325e-10 
  107000          298 0.00037609246 3.1490542e-10 
  108000          298 0.00076763515  3.15422e-10 
  109000          298 0.0010375771 3.4633103e-10 
  110000          298 0.00016153566 3.1736035e-10 
  111000          298 0.00021218057 2.7610749e-10 
  112000          298 0.00095506444 2.8623819e-10 
  113000          298 0.00072059389 2.9287466e-10 
  114000          298 0.00043239464 2.8124523e-10 
  115000          298 0.00049993575 2.6738616e-10 
  116000          298 0.0013810647 3.0672905e-10 
  117000          298 0.0001825466 2.8942462e-10 
  118000          298 0.00018178279 2.5039206e-10 
  119000          298 0.00068626356 2.4401782e-10 
  120000          298 0.00081950816 2.5096076e-10 
  121000          298 0.0010395314 2.709794e-10 
  122000          298 0.00025200119 2.6041323e-10 
  123000          298 6.3926993e-05 2.1986404e-10 
  124000          298 0.00073025251 2.1108279e-10 
  125000          298 0.00056713846 2.1279599e-10 
  126000          298 0.00093790932 2.2071776e-10 
  127000          298 0.00033033768 2.1298093e-10 
  128000          298 0.00023840206 1.8591708e-10 
  129000          298 0.0010579886 1.9881022e-10 
  130000          298 0.0006687871 2.0483925e-10 
  131000          298 0.00068669151 2.0290682e-10 
  132000          298 0.0010264614 2.2026846e-10 
  133000          298 0.00062940446 2.2772141e-10 
  134000          298 0.00044642847 2.1289439e-10 
  135000          298 0.00093918171 2.2148937e-10 
  136000          298 0.00056917857 2.2460607e-10 
  137000          298 0.00021907795 2.017343e-10 
  138000          298 0.0013892327 2.1907531e-10 
  139000          298 0.0009011248 2.4663188e-10 
  140000          298 0.00034366206 2.3211886e-10 
  141000          298 0.00092387197 2.3535184e-10 
  142000          298 0.0013418694 2.6171305e-10 
  143000          298 0.00076082123  2.74625e-10 
  144000          298 0.00018917675 2.5444932e-10 
  145000          298 0.0003696627 2.347387e-10 
  146000          298 0.00062691995 2.2700907e-10 
  147000          298 0.00098072441 2.3399535e-10 
  148000          298 0.00036897815 2.3409858e-10 
  149000          298 8.4266341e-05 2.0874816e-10 
  150000          298 0.00028966816 1.8834913e-10 
  151000          298 0.0010957261 1.9521022e-10 
  152000          298 0.0016747487 2.4010443e-10 
  153000          298 0.00041365986 2.3929376e-10 
  154000          298 3.0030574e-05 2.1309689e-10 
  155000          298 0.00030067284 1.9262532e-10 
  156000          298 0.00068884334 1.8965491e-10 
  157000          298 0.00048890473 1.8031618e-10 
  158000          298 0.00082047524 1.8307935e-10 
  159000          298 0.00039896931 1.7295559e-10 
  160000          298 0.00052798363 1.6453281e-10 
  161000          298 0.00018321679 1.4777715e-10 
  162000          298 0.00014014594 1.2735352e-10 
  163000          298 0.0007838111 1.274771e-10 
  164000          298 0.0013715715 1.492417e-10 
  165000          298 0.00085206705 1.6292915e-10 
  166000          298 5.5606545e-05 1.4604411e-10 
  167000          298 0.00023171517 1.275235e-10 
  168000          298 0.0012655703 1.3905956e-10 
  169000          298 0.0011037259 1.5731826e-10 
  170000          298 0.00073865505 1.6184068e-10 
  171000          298 0.00016476648 1.4963876e-10 
  172000          298 0.00012992957 1.3022521e-10 
  173000          298 0.0013794506 1.4162832e-10 
  174000          298 0.00041867123 1.4327069e-10 
  175000          298 0.00044511392 1.3477714e-10 
  176000          298 0.00092387473 1.4003616e-10 
  177000          298 0.0013458235 1.5883139e-10 
  178000          298 0.00069249752 1.6427919e-10 
  179000          298 0.00033347785 1.5631796e-10 
  180000          298 0.00033196164 1.4421504e-10 
  181000          298 0.0012076224 1.5319799e-10 
  182000          298 0.00029970514 1.489298e-10 
  183000          298 5.977814e-05 1.3050195e-10 
  184000          298 0.00053446909 1.2348934e-10 
  185000          298 0.00081486319 1.2817796e-10 
  186000          298 0.00047255757 1.2571795e-10 
  187000          298 0.00085070346 1.2862021e-10 
  188000          298 0.0009824961 1.386218e-10 
  189000          298 0.00046336501 1.3553699e-10 
  190000          298 0.00081615911 1.3680206e-10 
  191000          298 0.00065734305 1.4204133e-10 
  192000          298 0.00021624874 1.3044436e-10 
  193000          298 0.0010861227 1.3350931e-10 
  194000          298 0.00083512603 1.4276561e-10 
  195000          298 0.00066746167 1.4134424e-10 
  196000          298 0.00056166408 1.3820791e-10 
  197000          298 0.00025711722 1.2898197e-10 
  198000          298 0.0011158844 1.3279377e-10 
  199000          298 0.0010870951 1.4686944e-10 
  200000          298 0.00023433091 1.3911926e-10 
  201000          298 0.00064405918 1.3479606e-10 
  202000          298 0.0011082185 1.4401056e-10 
  203000          298 0.00054887213 1.441317e-10 
  204000          298 0.00015924473 1.3242537e-10 
  205000          298 0.00045569403 1.239134e-10 
  206000          298 0.00077852527 1.2415667e-10 
  207000          298 0.00082741066 1.2585139e-10 
  208000          298 0.0005408822 1.2686031e-10 
  209000          298 0.00042482474 1.2022478e-10 
  210000          298 0.00056405333 1.1703455e-10 
  211000          298 0.00026488544 1.0929813e-10 
  212000          298 0.00021554126 9.838441e-11 
  213000          298  0.001422172 1.0835197e-10 
  214000          298 0.00064559154 1.1304729e-10 
  215000          298 0.00037680417 1.0686851e-10 
  216000          298 0.00061971975 1.0480849e-10 
  217000          298 0.00060410192 1.0561261e-10 
  218000          298 8.8564503e-05 9.4925513e-11 
  219000          298 0.00031548616 8.5658808e-11 
  220000          298 0.00062451484 8.6965611e-11 
  221000          298 0.00065582352 8.6185857e-11 
  222000          298 0.00059342687 8.8590789e-11 
  223000          298 0.00018096545 8.0117133e-11 
  224000          298 0.00085050633 8.0184678e-11 
  225000          298 0.0012800388 9.1818641e-11 
  226000          298 0.0009765328 1.0061969e-10 
  227000          298 6.964073e-05 9.2628348e-11 
  228000          298 8.3167618e-05 8.0905786e-11 
  229000          298 0.00097172261 8.1743267e-11 
  230000          298 0.0013499018 9.4318093e-11 
  231000          298 0.00086762757 1.0022637e-10 
  232000          298 0.00014290494 9.375376e-11 
  233000          298 5.426628e-05 8.240855e-11 
  234000          298 0.0011767695 8.510663e-11 
  235000          298 0.00054678818 8.8455144e-11 
  236000          298 0.00035142962 8.335947e-11 
  237000          298 0.00065713144 8.1495654e-11 
  238000          298 0.0010030828 8.5552186e-11 
  239000          298 0.00057330369 8.6974516e-11 
  240000          298 0.00018199452 8.0585472e-11 
  241000          298 0.00033838762 7.3720715e-11 
  242000          298 0.0015329322 8.405652e-11 
  243000          298 0.00016112875 8.0200921e-11 
  244000          298 0.00015882196 7.1059528e-11 
  245000          298 0.00045201458 6.5916067e-11 
  246000          298 0.00077152276 6.6996003e-11 
  247000          298 0.00098373827 7.3288998e-11 
  248000          298 0.0003144303 7.0401824e-11 
  249000          298 0.00014734818 6.2693347e-11 
  250000          298 0.00014239849 5.4254474e-11 
  251000          298 0.0007205403 5.2830625e-11 
  252000          298 0.00071325413 5.6712673e-11 
  253000          298  0.000334692 5.2641766e-11 
  254000          298 0.0004353478 4.8377528e-11 
  255000          298 0.00074729328 4.8055827e-11 
  256000          298 0.00081424412 5.0358836e-11 
  257000          298 0.00066755911 5.1502918e-11 
  258000          298 0.00043306982 4.8845903e-11 
  259000          298 0.00039095442 4.4964626e-11 
  260000          298 0.00088201854 4.6261994e-11 
  261000          298 0.00045269126 4.8344331e-11 
  262000          298 4.7269948e-05 4.083402e-11 
  263000          298 0.00019803464 3.3971992e-11 
  264000          298 0.00099765051 3.5677613e-11 
  265000          298 0.0017492902 5.1415506e-11 
  266000          298 0.00046464873 5.3027303e-11 
  267000          298 4.6727499e-05 4.5689762e-11 
  268000          298 0.00022268177 3.9136899e-11 
  269000          298 0.00078982934 3.8839265e-11 
  270000          298 0.00095227958 4.2842009e-11 
  271000          298 0.00031479179 4.2299772e-11 
  272000          298 0.00011762229 3.6085654e-11 
  273000          298 0.00028834457 3.0830104e-11 
  274000          298 0.00089115607 3.1802744e-11 
  275000          298 0.0017493081 4.4894546e-11 
  276000          298 0.00065091391 4.9079778e-11 
  277000          298 0.00011611057 4.3241944e-11 
  278000          298 0.00035895981 3.8142505e-11 
  279000          298 0.00086946315 3.9017031e-11 
  280000          298 0.00072852819 4.0285131e-11 
  281000          298 0.00049857266 3.9963775e-11 
  282000          298 0.00044953375 3.778453e-11 
  283000          298 0.0005195646 3.677839e-11 
  284000          298 0.00087732351 3.8998346e-11 
  285000          298 0.00034385587 3.8497573e-11 
  286000          298 4.2608527e-05 3.2293326e-11 
  287000          298 0.00028870631 2.746963e-11 
  288000          298 0.00093679141 2.8918655e-11 
  289000          298 0.0015176563 3.9322472e-11 
  290000          298 0.00082765546 4.4233668e-11 
  291000          298 0.00019947697 4.0677868e-11 
  292000          298 0.00047879393 3.7405088e-11 
  293000          298 0.00078750951 3.9542877e-11 
  294000          298 0.00033685574 3.7452545e-11 
  295000          298 0.00037199364 3.4880202e-11 
  296000          298 0.00039492958 3.2681406e-11 
  297000          298 0.00076286149 3.3699569e-11 
  298000          298 0.00082973842 3.6204747e-11 
  299000          298 0.0004042439 3.5397297e-11 
  300000          298 8.4817342e-05 3.0465993e-11 
  301000          298 0.00018476771 2.5357703e-11 
  302000          298 0.00070191527 2.4806899e-11 
  303000          298 0.0011853619 3.0773156e-11 
  304000          298 0.00071447711 3.3363495e-11 
  305000          298 0.00043085741 3.1515727e-11 
  306000          298 0.00022195583 2.7330741e-11 
  307000          298 0.00031851024 2.3515606e-11 
  308000          298 0.00067228788 2.4400563e-11 
  309000          298 0.00078680351 2.5403115e-11 
  310000          298 0.0005110597 2.5666777e-11 
  311000          298 0.00015822075 2.1201692e-11 
  312000          298 0.0008073154 2.0938026e-11 
  313000          298 0.0017067105 3.091669e-11 
  314000          298 0.00059738429 3.3682778e-11 
  315000          298 6.5753121e-05 2.8613886e-11 
  316000          298 0.00049902048 2.5767319e-11 
  317000          298 0.0014822433 3.1841903e-11 
  318000          298 0.00098510335 3.6908588e-11 
  319000          298 0.00057299843 3.6869547e-11 
  320000          298 0.00022002464 3.3686815e-11 
  321000          298 0.0001938816 2.9419306e-11 
  322000          298 0.0011400101 3.1904626e-11 
  323000          298 0.00076386901 3.4728939e-11 
  324000          298 0.00029223266 3.2755969e-11 
  325000          298 0.00014633608 2.8723705e-11 
  326000          298 0.00022566103 2.4793927e-11 
  327000          298 0.00078278334 2.4776097e-11 
  328000          298 0.00098845316 2.8604992e-11 
  329000          298 0.00054285343 2.8963895e-11 
  330000          298 0.00025106547 2.5734068e-11 
  331000          298 0.0012409994 2.854469e-11 
  332000          298 0.00087965274 3.3700234e-11 
  333000          298 0.00014888137 3.0015837e-11 
  334000          298 0.00052745201 2.8334433e-11 
  335000          298 0.00073448694 2.9006789e-11 
  336000          298 0.00044157602 2.7353758e-11 
  337000          298 0.0010885832 2.9544035e-11 
  338000          298 0.00048671545 2.9506299e-11 
  339000          298 0.00079969494 2.9759143e-11 
  340000          298 0.00054508498 2.9555369e-11 
  341000          298 0.00036211279 2.783453e-11 
  342000          298 0.00036841122 2.5656904e-11 
  343000          298 0.0012070668 2.867469e-11 
  344000          298 0.00037946434 2.8757816e-11 
  345000          298 4.6670266e-05 2.4113626e-11 
  346000          298 0.00021743876 2.0350643e-11 
  347000          298 0.0010677469 2.1884304e-11 
  348000          298 0.0014927938 2.8913193e-11 
  349000          298 0.00075308143 3.2034273e-11 
  350000          298 7.1761038e-05 2.8350923e-11 
  351000          298 0.00032857743 2.5259303e-11 
  352000          298 0.00054458609 2.4657944e-11 
  353000          298 0.0006413947 2.4203299e-11 
  354000          298 0.00053154453 2.4982005e-11 
  355000          298 0.00022548222 2.2537029e-11 
  356000          298 0.00038152333 2.0491947e-11 
  357000          298 0.00069754036 2.0525794e-11 
  358000          298 0.00098904371 2.2977585e-11 
  359000          298 0.00010387772 2.0433473e-11 
  360000          298 0.00015584174 1.6497098e-11 
  361000          298 0.00088490079 1.7224161e-11 
  362000          298 0.00054660202 1.6900361e-11 
  363000          298 0.00095547714 1.8515764e-11 
  364000          298 0.00023443704 1.6931986e-11 
  365000          298 0.00038590886 1.4365103e-11 
  366000          298 0.0012329856 1.7708873e-11 
  367000          298 0.0012080636 2.2188271e-11 
  368000          298 0.0004465303 2.2955523e-11 
  369000          298 2.8700842e-05 1.8857074e-11 
  370000          298 0.00056380483 1.7191337e-11 
  371000          298 0.0012949858 2.145842e-11 
  372000          298 0.00090769983 2.4420034e-11 
  373000          298 0.00059404144 2.4826576e-11 
  374000          298 0.00010360248 2.161853e-11 
  375000          298 0.00027208712 1.8516217e-11 
  376000          298 0.0010854953 2.1258703e-11 
  377000          298 0.00067534871 2.2405239e-11 
  378000          298 0.00015683788 2.0042035e-11 
  379000          298 5.443923e-05 1.6346943e-11 
  380000          298 0.00067406256 1.5347248e-11 
  381000          298 0.0011629455 1.9614794e-11 
  382000          298 0.0001942116 1.761554e-11 
  383000          298 0.0002460715 1.4988858e-11 
  384000          298 0.00045402497 1.3097301e-11 
  385000          298 0.0012553952 1.6668088e-11 
  386000          298 0.00045057457 1.7162195e-11 
  387000          298 0.00015479794 1.4014826e-11 
  388000          298 0.00032521187 1.176729e-11 
  389000          298 0.00065657522 1.1955887e-11 
  390000          298 0.0010569392 1.4207341e-11 
  391000          298 0.0010613278 1.7804952e-11 
  392000          298 0.00023250959 1.6404767e-11 
  393000          298 8.7574628e-05 1.2869005e-11 
  394000          298 0.00097793513 1.3482168e-11 
  395000          298 0.0012797148 1.772682e-11 
  396000          298 0.00092273443 2.0642631e-11 
  397000          298 0.00018809525 1.865041e-11 
  398000          298 0.00090291762 1.866876e-11 
  399000          298 0.0010724335 2.2880176e-11 
  400000          298 0.00040134881 2.1849744e-11 
  401000          298 0.0007880804 2.2276501e-11 
  402000          298 0.00050083765 2.1745858e-11 
  403000          298 0.0011740923 2.3905858e-11 
  404000          298 0.00098925316 2.6929882e-11 
  405000          298 0.00028671848 2.563576e-11 
  406000          298 0.00010111547 2.2862308e-11 
  407000          298 0.00028201397 2.0085837e-11 
  408000          298 0.0012498464 2.3113061e-11 
  409000          298 0.00015238065 2.1552422e-11 
  410000          298 0.00019271546 1.8726841e-11 
  411000          298 0.00066615586 1.8276864e-11 
  412000          298 0.0011458654 2.1261809e-11 
  413000          298 0.0008951141 2.3187394e-11 
  414000          298 0.00045746008 2.2859499e-11 
  415000          298  0.000316195 2.0718498e-11 
  416000          298 0.00091072401 2.1223884e-11 
  417000          298 0.00053773018 2.0972187e-11 
  418000          298 0.00054603714 2.0227237e-11 
  419000          298 0.00032695949 1.8469381e-11 
  420000          298 0.00058513709 1.7370874e-11 
  421000          298 0.00045788124 1.669307e-11 
  422000          298 0.00057593937 1.5789674e-11 
  423000          298 0.00066080061 1.6229338e-11 
  424000          298 0.00068907967 1.6067302e-11 
  425000          298 0.00077080786 1.6803958e-11 
  426000          298 0.00070824376 1.7230691e-11 
  427000          298 0.00065939622 1.7359194e-11 
  428000          298 0.00046417741 1.691717e-11 
  429000          298 0.00072585653 1.6936502e-11 
  430000          298 0.00055972512 1.7597017e-11 
  431000          298 0.00039157431 1.6665116e-11 
  432000          298 0.00024590943 1.5211498e-11 
  433000          298 0.00011835325 1.2850593e-11 
  434000          298 0.00039123721 1.0993965e-11 
  435000          298 0.0010917802 1.2693825e-11 
  436000          298 0.0010358938 1.5411647e-11 
  437000          298 0.00045427109 1.5412764e-11 
  438000          298 0.00022081282 1.3241561e-11 
  439000          298 0.0015449899 1.5822399e-11 
  440000          298 0.00061130148 1.7988066e-11 
  441000          298 0.00025932909 1.6108647e-11 
  442000          298  0.000917051 1.6811877e-11 
  443000          298  0.001439566 2.0451905e-11 
  444000          298 0.00085215292 2.257894e-11 
  445000          298 0.00038639823 2.176087e-11 
  446000          298 4.5865675e-05 1.9104723e-11 
  447000          298 0.00069457446 1.8253354e-11 
  448000          298 0.00081108019 2.0460828e-11 
  449000          298 0.00030551615 1.8938593e-11 
  450000          298 0.00081891169 1.9082858e-11 
  451000          298 0.0013997498 2.2178227e-11 
  452000          298 0.0010342441 2.5189585e-11 
  453000          298 0.00047322848 2.4981413e-11 
  454000          298 0.00018825379 2.3085661e-11 
  455000          298 0.00085848401 2.3115672e-11 
  456000          298 0.00057021921 2.4311096e-11 
  457000          298 1.846598e-05 2.1736796e-11 
  458000          298 0.00045574206 2.0218381e-11 
  459000          298 0.00079261732 2.0682066e-11 
  460000          298 0.00061921094 2.0929522e-11 
  461000          298 0.00084298463 2.1861753e-11 
  462000          298 0.00059504225 2.2204368e-11 
  463000          298 0.00022930286 2.0827859e-11 
  464000          298 0.00040411105 1.9688531e-11 
  465000          298 0.00064373827 1.995493e-11 
  466000          298 0.00075619168 2.0524163e-11 
  467000          298 0.00037602259 2.0027858e-11 
  468000          298 0.00013372797 1.7971293e-11 
  469000          298 0.00062593142 1.7241247e-11 
  470000          298 0.0017300983 2.110349e-11 
  471000          298 0.00078994823 2.3268742e-11 
  472000          298 4.4144421e-05 2.1207847e-11 
  473000          298 0.00011679327 1.8715072e-11 
  474000          298 0.00093135343 1.8925736e-11 
  475000          298 0.0014896947 2.2543961e-11 
  476000          298 0.00067920392 2.363872e-11 
  477000          298 0.00010553542 2.1972227e-11 
  478000          298 0.00013786688 1.9731919e-11 
  479000          298 0.00070853776 1.931902e-11 
  480000          298 0.00087104802 2.0052318e-11 
  481000          298 0.00041123738 2.0308007e-11 
  482000          298 3.9083532e-05 1.7997369e-11 
  483000          298 0.00051972431 1.6746112e-11 
  484000          298 0.0010769902 1.8307815e-11 
  485000          298 0.0014108163 2.1494351e-11 
  486000          298 0.00064478918 2.2562063e-11 
  487000          298 6.2576462e-05 2.0534509e-11 
[...]
  633000          298 0.0011332764 1.806523e-11 
  634000          298 0.00072928479 1.8582873e-11 
  635000          298 0.00036600299 1.8063252e-11 
  636000          298 0.00020037435 1.6969395e-11 
  637000          298 0.00031601306 1.6007742e-11 
  638000          298 0.0011190209 1.6848535e-11 
  639000          298 0.00075296958 1.7486993e-11 
  640000          298 0.00022897391 1.6557114e-11 
  641000          298 0.00022659748 1.5548603e-11 
  642000          298 0.00050614639 1.5096561e-11 
  643000          298 0.0014207749 1.6332028e-11 
  644000          298 0.0012713437 1.8430549e-11 
  645000          298 0.00023525611 1.7962327e-11 
  646000          298 6.9974502e-05 1.6585592e-11 
  647000          298 0.00066681625 1.6252495e-11 
  648000          298 0.00079894842 1.6854241e-11 
  649000          298 0.00039841522 1.6518224e-11 
  650000          298 0.00024879848 1.551919e-11 
  651000          298 0.0014318238 1.6541942e-11 
  652000          298 0.00064802156 1.7436707e-11 
  653000          298 0.00016467486 1.6371112e-11 
  654000          298 0.00057574034 1.6010438e-11 
  655000          298 0.00089759769 1.6512881e-11 
  656000          298 0.0002323567 1.5951212e-11 
  657000          298 9.8362472e-05 1.465703e-11 
  658000          298 0.0010351391 1.4879658e-11 
  659000          298 0.0016436537 1.7215678e-11 
  660000          298 0.00062026456 1.7747208e-11 
  661000          298 0.00012749321 1.6762209e-11 
  662000          298 8.5870738e-05 1.5484299e-11 
  663000          298 0.0012204549 1.5919475e-11 
  664000          298 0.00051306513 1.6233584e-11 
  665000          298 0.00030852396 1.5574553e-11 
  666000          298 0.00042284481 1.5137553e-11 
  667000          298 0.00032611822 1.4544508e-11 
  668000          298 0.00062587686 1.4290376e-11 
  669000          298 0.00059469137 1.4667425e-11 
  670000          298 0.00011545127 1.376757e-11 
  671000          298 0.00055965039 1.3251293e-11 
  672000          298 0.0013649293 1.4466699e-11 
  673000          298 0.0014170159 1.6455129e-11 
  674000          298 0.00056092446 1.6639642e-11 
  675000          298 0.00010731274 1.5654311e-11 
  676000          298 0.00038199915 1.4810291e-11 
  677000          298 0.00096429101 1.5296824e-11 
  678000          298 0.00029267352 1.4890986e-11 
  679000          298 0.0004408424 1.4354868e-11 
  680000          298 0.00090879868 1.4641659e-11 
  681000          298 0.0012048333 1.5866095e-11 
  682000          298 0.00040792502 1.5750356e-11 
  683000          298 4.5096607e-05 1.4534747e-11 
  684000          298 0.00048970614 1.3840038e-11 
  685000          298 0.0017032423 1.5424735e-11 
  686000          298 0.0010127098 1.6822692e-11 
  687000          298 0.00036939478 1.6438805e-11 
  688000          298 0.00018249042 1.5520908e-11 
  689000          298 0.00025290951 1.4670891e-11 
  690000          298 0.0010179547 1.5147586e-11 
  691000          298 0.00086617926 1.5841384e-11 
  692000          298 0.00023752889 1.5198019e-11 
  693000          298 0.0001423058 1.4236453e-11 
  694000          298 0.00031769356 1.3509192e-11 
  695000          298 0.0010687236 1.3933379e-11 
  696000          298 0.0015075943 1.5809538e-11 
  697000          298 0.00047387459 1.5956692e-11 
  698000          298 0.00013482114 1.4992341e-11 
  699000          298 0.00042658156 1.4336715e-11 
  700000          298 0.00085397214 1.4604474e-11 
  701000          298 0.00051214789 1.4547405e-11 
  702000          298 0.00048876191 1.4366633e-11 
  703000          298 0.00070915492 1.4450462e-11 
  704000          298 0.00052269283 1.4474506e-11 
  705000          298 0.00029579903 1.3844023e-11 
  706000          298 0.00070228083 1.3713221e-11 
  707000          298 0.0010768913 1.448172e-11 
  708000          298 0.00040575546 1.4190348e-11 
  709000          298 0.00051246655 1.3804808e-11 
  710000          298 0.00042526529 1.3516057e-11 
  711000          298 0.00058638563 1.3317101e-11 
  712000          298 0.00088001493 1.3890132e-11 
  713000          298 0.00032427385 1.3592386e-11 
  714000          298 0.00015029342 1.2717617e-11 
  715000          298 0.00026204828 1.2024776e-11 
  716000          298 0.00040597262 1.1474059e-11 
  717000          298 0.0012208832 1.2142015e-11 
  718000          298 0.00025439781 1.2012188e-11 
  719000          298 8.7846189e-05 1.0938258e-11 
  720000          298 0.00028590343 1.0145155e-11 
  721000          298 0.0012109181 1.0762623e-11 
  722000          298 0.0012596689 1.2185695e-11 
  723000          298 0.00069978072 1.2503365e-11 
  724000          298 0.00017909423 1.1838766e-11 
  725000          298 0.00064522143 1.1497794e-11 
  726000          298 0.00075383994 1.2153871e-11 
  727000          298 7.0593934e-05 1.1323455e-11 
  728000          298 0.00050213455 1.0777703e-11 
  729000          298 0.00078284977 1.093387e-11 
  730000          298 0.00093548103 1.144934e-11 
  731000          298 0.00064638699 1.1804943e-11 
  732000          298 0.00066939566 1.1781665e-11 
  733000          298 0.00055947457 1.1768957e-11 
  734000          298 0.00052521117 1.1419036e-11 
  735000          298  0.001318569 1.2417818e-11 
  736000          298 0.00025312738 1.2063445e-11 
  737000          298 0.00047394725 1.1506389e-11 
  738000          298 0.00062574791 1.1659849e-11 
  739000          298 0.00047112497 1.1370146e-11 
  740000          298 0.0011553762 1.1977263e-11 
  741000          298 0.00059813752 1.2265441e-11 
  742000          298 0.00054000329 1.2080718e-11 
  743000          298 0.0010273656 1.2650031e-11 
  744000          298 0.00053679724 1.2695399e-11 
  745000          298 0.0008131289 1.2849538e-11 
  746000          298 0.00053230814 1.2831541e-11 
  747000          298 5.8003442e-05 1.1955289e-11 
  748000          298 0.00070588933 1.1615733e-11 
  749000          298 0.0010410825 1.2710476e-11 
  750000          298 0.00015177665 1.2035618e-11 
  751000          298 0.00058710798  1.17358e-11 
  752000          298 0.00062327276 1.1660699e-11 
  753000          298 0.0011386483 1.2312504e-11 
  754000          298 0.0006907542 1.2643558e-11 
  755000          298 0.00037660071 1.2257324e-11 
  756000          298 6.518848e-05 1.1355598e-11 
  757000          298 0.00071158853 1.1126356e-11 
  758000          298 0.00061449331 1.1633184e-11 
  759000          298 4.737128e-05 1.0760869e-11 
  760000          298 0.00044072545 1.0219691e-11 
  761000          298 0.0008005255 1.0299012e-11 
  762000          298 0.0010592037 1.0897788e-11 
  763000          298 0.00072063785 1.1192155e-11 
  764000          298 0.00070768417 1.1259077e-11 
  765000          298 0.00036902198 1.0896906e-11 
  766000          298 0.0012019713 1.1317799e-11 
  767000          298 0.0008744918 1.2282043e-11 
  768000          298 8.101592e-05 1.1494506e-11 
  769000          298 0.00058698902 1.1109573e-11 
  770000          298 0.00095797586 1.1568869e-11 
  771000          298 0.00047471721 1.1534102e-11 
  772000          298 0.00021395018 1.0846862e-11 
  773000          298 0.00074709757 1.0731048e-11 
  774000          298 0.00067294847 1.1173196e-11 
  775000          298 0.00017086283 1.0562199e-11 
  776000          298 0.00026094988 9.8855748e-12 
  777000          298 0.00029608551 9.2722104e-12 
  778000          298 0.0011317096 9.6127671e-12 
  779000          298 0.00057713432 9.7861553e-12 
  780000          298 0.00029492838 9.2676106e-12 
  781000          298 0.00034167434 8.7350323e-12 
  782000          298 0.00053712192 8.4885788e-12 
  783000          298 0.00061641931 8.5065314e-12 
  784000          298 0.0012036579 9.2115244e-12 
  785000          298 0.00037298396 9.0642072e-12 
  786000          298 0.00042119535 8.6147715e-12 
  787000          298 0.00064153196 8.7266124e-12 
  788000          298 0.00035461753 8.3127813e-12 
  789000          298 0.0012084897 8.7861957e-12 
  790000          298 0.00078229872 9.3796617e-12 
  791000          298 0.0004533596 9.1596896e-12 
  792000          298 0.00092490808 9.4551003e-12 
  793000          298 0.00034924845 9.4262354e-12 
  794000          298 0.00025398962 8.774378e-12 
  795000          298 0.0008549119 8.8251768e-12 
  796000          298 0.00041469641 8.862448e-12 
  797000          298 0.00020920427 8.1704399e-12 
  798000          298 0.0010869092 8.4193827e-12 
  799000          298 0.00081520794 8.8822354e-12 
  800000          298 0.00071493213 9.0154711e-12 
  801000          298 0.00041533941 8.7374872e-12 
  802000          298 0.00021314742 8.1631139e-12 
  803000          298 0.00082018723 8.0953651e-12 
  804000          298 0.00091487121 8.9756369e-12 
  805000          298 5.2285267e-05 8.2823391e-12 
  806000          298 0.00013204186 7.4802589e-12 
  807000          298 0.00064474898 7.3052553e-12 
  808000          298 0.00081442704 7.4334582e-12 
  809000          298 0.00087435604 7.9540795e-12 
  810000          298 9.1150582e-05 7.3993708e-12 
  811000          298 0.00024306504 6.6743676e-12 
  812000          298 0.0010625295 7.0297428e-12 
  813000          298 0.0014206903 8.2070271e-12 
  814000          298 0.00093788456  8.88671e-12 
  815000          298 8.6311809e-05 8.3180782e-12 
  816000          298 0.0002221911 7.5852055e-12 
  817000          298 0.00074070617 7.5213281e-12 
  818000          298 0.00077267587 7.6255716e-12 
  819000          298 0.00053449582 7.777225e-12 
  820000          298 0.00018672347 7.2086859e-12 
  821000          298 0.00033932496 6.669317e-12 
  822000          298 0.00099114768 6.9087709e-12 
  823000          298 0.0016986395 8.3539891e-12 
  824000          298 0.00070139747 8.8234738e-12 
  825000          298 0.00011819581 8.2079824e-12 
  826000          298 0.00038259377 7.6496472e-12 
  827000          298 0.0011475712 8.1279144e-12 
  828000          298 0.00030805384 7.8715264e-12 
  829000          298 0.00019409177 7.1923941e-12 
  830000          298 0.00029917356 6.6917307e-12 
  831000          298 0.00076085055 6.6702072e-12 
  832000          298 0.0008296741 7.1544876e-12 
  833000          298 0.00051882555 7.0740628e-12 
  834000          298 0.00017988782 6.5154298e-12 
  835000          298 0.00012388931 5.796332e-12 
  836000          298 0.0012636185 6.210755e-12 
  837000          298 0.00069223435   6.6622e-12 
  838000          298 0.0002391923 6.2233931e-12 
  839000          298 0.00018799464 5.6946264e-12 
  840000          298 0.00032030619 5.2373192e-12 
  841000          298 0.00097669447 5.460949e-12 
  842000          298 0.0014679382 6.6152978e-12 
  843000          298 0.00060519349 6.8683905e-12 
  844000          298 0.00023666167 6.3767139e-12 
  845000          298 0.00025614496 5.787276e-12 
  846000          298 0.00041674779 5.3904891e-12 
  847000          298 0.0010810232 5.8208257e-12 
  848000          298 0.0006627735 6.1972621e-12 
  849000          298 0.00013750632 5.5677109e-12 
  850000          298 0.0002199319 4.9710772e-12 
  851000          298 0.00058126313 4.8220956e-12 
  852000          298 0.0010686592 5.2654498e-12 
  853000          298 0.00042937815 5.2504421e-12 
  854000          298 0.00032223496 4.8410711e-12 
  855000          298 0.00022243969 4.3386021e-12 
  856000          298 0.00080878383 4.3080769e-12 
  857000          298 0.00066960283 4.7748348e-12 
  858000          298 0.00016402515 4.2572881e-12 
  859000          298 0.00012390929 3.6434988e-12 
  860000          298 0.00030163512 3.0803644e-12 
  861000          298 0.0012031179 3.6214207e-12 
  862000          298 0.00022885356 3.381779e-12 
  863000          298 0.00010417567 2.6970233e-12 
  864000          298 0.00033884918 2.2490668e-12 
  865000          298 0.00081419891 2.4155094e-12 
  866000          298 0.00094101707 2.7901182e-12 
  867000          298 0.00054578948 3.0412861e-12 
  868000          298 3.0116189e-05 2.3439839e-12 
  869000          298 0.00051296432 1.9706616e-12 
  870000          298 0.00077824977 2.317776e-12 
  871000          298 0.00041656344 2.1855701e-12 
  872000          298 0.00026208842 1.7189498e-12 
  873000          298 0.00041283873 1.3506964e-12 
  874000          298 0.00047203322 1.1424264e-12 
  875000          298 0.00018056305 7.2004385e-13 
  876000          298 5.6136562e-05 7.2541841e-14 
  877000          298 0.00064551186 -1.2781987e-13 
  878000          298 0.0010412422 3.644597e-13 
  879000          298 0.00055413925 6.116831e-13 
  880000          298 0.00051161497 4.4735264e-13 
  881000          298 0.0005948407 4.7852401e-13 
  882000          298 0.00033653739 1.9095829e-13 
  883000          298 0.0011213181 5.5715119e-13 
  884000          298 0.00045530327 6.3868113e-13 
  885000          298 0.00033561452 2.2043604e-13 
  886000          298 0.00074121121 3.561658e-13 
  887000          298 0.00068612927 4.2215503e-13 
  888000          298 0.00099495162 8.5422117e-13 
  889000          298 0.00063894928 9.5816287e-13 
  890000          298 0.00073102065 1.0977382e-12 
  891000          298 0.0002069738 7.2633884e-13 
  892000          298 0.00073122636 6.7044577e-13 
  893000          298 0.00072966393 1.1281144e-12 
  894000          298 0.00035437988 8.3998287e-13 
  895000          298 0.00064559656 8.5169265e-13 
  896000          298 0.0004549623 7.3500691e-13 
  897000          298 0.00094022519 8.8124206e-13 
  898000          298 0.00096133747 1.3653973e-12 
  899000          298 0.00034698351 1.2840249e-12 
  900000          298 8.4413927e-05 6.3083937e-13 
  901000          298 0.00031759465 1.8205668e-13 
  902000          298 0.00035818431 -4.0209703e-15 
  903000          298 0.0004764653 -2.0047371e-13 
  904000          298 0.00061747458 -1.0957149e-14 
  905000          298 0.00040303573 -2.2301795e-13 
  906000          298 0.00048224171 -2.2981715e-13 
  907000          298 0.00012584327 -7.0052473e-13 
  908000          298 9.9721763e-05  -1.3208e-12 
  909000          298 0.00059036463 -1.5105039e-12 
  910000          298 0.00072676357 -1.2871814e-12 
  911000          298 2.1476349e-05 -1.8435071e-12 
  912000          298 0.00020451684 -2.4267406e-12 
  913000          298 0.0010136329 -2.1092576e-12 
  914000          298 0.0010254249 -1.5631118e-12 
  915000          298 0.00077921306 -1.2743772e-12 
  916000          298 0.00011817241 -1.6951896e-12 
  917000          298 7.7702852e-05 -2.3477947e-12 
  918000          298 0.0012132802 -2.0266218e-12 
  919000          298 0.00057643564 -1.6231091e-12 
  920000          298 0.00037517651 -1.917485e-12 
  921000          298 0.00051437629 -1.9799212e-12 
  922000          298 0.00086174851 -1.8185154e-12 
  923000          298 0.00079398192 -1.3953859e-12 
  924000          298 0.00054763844 -1.3945389e-12 
  925000          298 0.00023793339 -1.6548546e-12 
  926000          298 0.00025887942 -2.1535718e-12 
  927000          298 0.0013917555 -1.5887822e-12 
  928000          298 0.0003010155 -1.6386778e-12 
  929000          298 0.00048805365 -1.9173176e-12 
  930000          298 0.00082694221 -1.6447011e-12 
  931000          298 0.00097126098 -1.2463668e-12 
  932000          298 0.00073773008 -9.0728914e-13 
  933000          298 0.00071469421 -8.1681214e-13 
  934000          298 0.00073677299 -5.339875e-13 
  935000          298 0.0003047496 -8.2216362e-13 
  936000          298 0.0012476573 -4.3767908e-13 
  937000          298 0.00065591997 -8.2581005e-14 
  938000          298 0.00060185793 -1.8570944e-13 
  939000          298 0.00069649299 -8.7657384e-14 
  940000          298 0.00046019999 -2.3325411e-13 
  941000          298  0.001113026 1.8229493e-13 
  942000          298 0.00091283603 6.5359047e-13 
  943000          298 8.5870393e-05 2.7563428e-13 
  944000          298 8.9932497e-05 -3.4165544e-13 
  945000          298 0.0007320002 -4.2521516e-13 
  946000          298 0.00032284394 -5.9102706e-13 
  947000          298 0.00038472274 -9.0404155e-13 
  948000          298 0.00070908019 -7.2896563e-13 
  949000          298 0.00062861118 -6.7461257e-13 
  950000          298 0.00050287025 -7.9866224e-13 
  951000          298 0.00072162286 -7.9592018e-13 
  952000          298 0.0011094148 -1.6996549e-13 
  953000          298 0.00013769533 -5.321804e-13 
  954000          298 0.00036690358 -9.0971945e-13 
  955000          298 0.00060926162 -9.2351478e-13 
  956000          298 0.00085694006 -7.0506374e-13 
  957000          298 0.00064293331 -5.5480275e-13 
  958000          298 0.0009965973 -3.1522595e-13 
  959000          298 0.00071464242 5.3859289e-14 
  960000          298 3.4619275e-05 -4.4430243e-13 
  961000          298 0.00029272317 -9.1004167e-13 
  962000          298 0.0012396517 -5.0875284e-13 
  963000          298 0.0013920338 4.1214969e-13 
  964000          298 0.00066378763 6.6248696e-13 
  965000          298 5.1330622e-05 1.9671515e-13 
  966000          298 0.0001959866 -3.0072287e-13 
  967000          298 0.00099664463 -2.1338589e-14 
  968000          298 0.00063244316 1.4776964e-13 
  969000          298 0.00018094399 -1.1017653e-13 
  970000          298 3.8325211e-05 -6.5637584e-13 
  971000          298 0.00055242715 -8.811648e-13 
  972000          298 0.0014319189 -2.7343293e-13 
  973000          298 0.0011135939 4.8606829e-13 
  974000          298 0.0001054995 1.7493063e-13 
  975000          298 5.264269e-05 -4.2716949e-13 
  976000          298 0.00093209311 -3.7602679e-13 
  977000          298 0.0014471706 4.9631836e-13 
  978000          298 0.00077726914 8.3779457e-13 
  979000          298 0.00018189137 5.4624215e-13 
  980000          298 5.1793102e-05 -2.0670979e-14 
  981000          298 0.0012357681 2.0416752e-13 
  982000          298 0.00054909777 4.7619993e-13 
  983000          298 0.00034670012  2.31792e-13 
  984000          298 0.00076432212 2.6589835e-13 
  985000          298 0.0011041275 7.1362869e-13 
  986000          298 0.00046322579  7.48591e-13 
  987000          298 3.2350969e-05 2.2209999e-13 
  988000          298 0.00025579258 -2.3589146e-13 
  989000          298 0.0012245073 1.0290593e-13 
  990000          298 0.0014048166 1.0708624e-12 
  991000          298 0.00045166254 1.1029979e-12 
  992000          298 0.0001313166 7.0755047e-13 
  993000          298 0.00012834223 2.5475407e-13 
  994000          298 0.00077195906 2.093217e-13 
  995000          298 0.0011231404 7.2208927e-13 
  996000          298 0.00022422672 5.5193038e-13 
  997000          298 0.00014598117 9.0843356e-14 
  998000          298 0.00035544937 -2.5238458e-13 
  999000          298 0.0014313647 2.6250733e-13 
 1000000          298 0.00032352938 2.3038841e-13 
Loop time of 871.029 on 1 procs for 1000000 steps with 2431 atoms

Performance: 99.193 ns/day, 0.242 hours/ns, 1148.068 timesteps/s
100.0% CPU use with 1 MPI tasks x no OpenMP threads

MPI task timing breakdown:
Section |  min time  |  avg time  |  max time  |%varavg| %total
---------------------------------------------------------------
Pair    | 18.788     | 18.788     | 18.788     |   0.0 |  2.16
Bond    | 735.22     | 735.22     | 735.22     |   0.0 | 84.41
Neigh   | 26.701     | 26.701     | 26.701     |   0.0 |  3.07
Comm    | 59.259     | 59.259     | 59.259     |   0.0 |  6.80
Output  | 2.7615     | 2.7615     | 2.7615     |   0.0 |  0.32
Modify  | 9.3539     | 9.3539     | 9.3539     |   0.0 |  1.07
Other   |            | 18.95      |            |       |  2.18

Nlocal:    2431 ave 2431 max 2431 min
Histogram: 1 0 0 0 0 0 0 0 0 0
Nghost:    16166 ave 16166 max 16166 min
Histogram: 1 0 0 0 0 0 0 0 0 0
Neighs:    1169 ave 1169 max 1169 min
Histogram: 1 0 0 0 0 0 0 0 0 0

Total # of neighbors = 1169
Ave neighs/atom = 0.480872
Ave special neighs/atom = 6.58988
Neighbor list builds = 389
Dangerous builds = 0
unfix           3
unfix           5
undump          NiPyC2_experiment_with_Xe_xyzmov


Total wall time: 0:14:31
