LAMMPS (3 Mar 2020)
# generate simulation log file
log             log.Pn_Ni-PyC-NH2_with_Kr append
