
# --------------------------------- Initialization -------------------------------------- #
units           real
atom_style      full
boundary        p p p

pair_style      lj/cut 14.000
bond_style      harmonic
angle_style     cosine/periodic
dihedral_style  harmonic
improper_style  fourier

special_bonds   lj/coul 0.0 0.0 1.0
#dielectric      1.0
pair_modify     tail yes mix arithmetic
box tilt        large
read_data       data.Pn_Ni-PyC-NH2_with_Ar
  triclinic box = (0 0 0) to (31.854 35.6358 28.3672) with tilt (0 0.013863 0)
  1 by 1 by 1 MPI processor grid
  reading atoms ...
  2233 atoms
  scanning bonds ...
  6 = max bonds/atom
  scanning angles ...
  15 = max angles/atom
  scanning dihedrals ...
  12 = max dihedrals/atom
  scanning impropers ...
  3 = max impropers/atom
  reading bonds ...
  2592 bonds
  reading angles ...
  4824 angles
  reading dihedrals ...
  5184 dihedrals
  reading impropers ...
  3456 impropers
  6 = max # of 1-2 neighbors
  9 = max # of 1-3 neighbors
  12 = max # of special neighbors
  special bonds CPU = 0.000729704 secs
  read_data CPU = 0.0174058 secs

#### Atom Groupings ####
group           ar       id   2233   # 63
1 atoms in group ar
group           fram     id   1:2232 # 1:62 64:2233
2232 atoms in group fram
#### END Atom Groupings ####

###
# Speed up Calculations by exluding framework-framework interactions
#   since we are keeping the framework rigid and stationary
#
# neigh_modify keyword values ...
# keyword = exclude
# values  = group group1-ID group2-ID
#
# group1-ID, group2-ID = exclude if one atom is in 1st group, other in 2nd
###
neigh_modify exclude group fram fram

# ----------------------------- Variables ---------------------- #
dump            Pn_Ni-PyC-NH2_with_Ar_xyzmov all xyz 1000 Pn_Ni-PyC-NH2_with_Ar_mov.xyz
dump_modify     Pn_Ni-PyC-NH2_with_Ar_xyzmov element Ni O C H N Ar
variable        dt         equal 1.00
variable        tdamp      equal 100*${dt}
variable        tdamp      equal 100*1
variable        eqtemp     equal 298.00

# ------------------------------ Equilibriation -------------------------------------------- #
# we do not need to perform equilibriation since we are using a rigid framework
# and the (single) adsorbate has already been inserted into the material via GCMC
# which already included an equilibriation phase.
#fix             1 1 langevin 298.00 298.00 ${tdamp} 1305871
#fix             2 1 nve
#fix             3 fram langevin 298.00 298.00 ${tdamp} 1500201
#fix             4 fram nve
#thermo          0
#run             200000
#unfix           1
#unfix           2
#unfix           3
#unfix           4

# --------------------- Production (data gathering) --------------------------------------- #
# A simple way to hold atoms stationary is to not include those atoms in your time integration.
#reset_timestep  0

fix             1 ar nvt temp ${eqtemp} ${eqtemp} ${tdamp}
fix             1 ar nvt temp 298 ${eqtemp} ${tdamp}
fix             1 ar nvt temp 298 298 ${tdamp}
fix             1 ar nvt temp 298 298 100
#fix             6 fram nvt temp 298.00 298.00 ${tdamp}


###
#  mean-squared disp of grp 1
#
# A vector of four quantities is calculated by this compute:
# The first 3 elements of the vector are the squared dx,dy,dz displacements, summed and averaged over atoms in the group.
# The fourth element is the total squared displacement, i.e. (dx*dx + dy*dy + dz*dz),
#  summed and averaged over atoms in the group.
#
# The slope of the MSD versus time is proportional to the diffusion coefficient.
# MSD values can be accumulated in a vector via the fix vector command,
#   and a line fit to the vector to compute its slope via the variable slope function,
#   and thus extract D.
#
# fix ID group-ID vector Nevery value1 value2 ...
#
# c_ID[I] = Ith component of global vector calculated by a compute with ID
# f_ID = global scalar calculated by a fix with ID
# v_name = value calculated by an equal-style variable with name
#
# variable name style args...
#
# The slope() function uses linear regression to fit a line to the set of points,
#   equally spaced by 1 in their x coordinate: (1,V1), (2,V2), …, (N,VN),
#   where the Vi are the values in the global vector of length N.
#   The returned value is the slope of the line.
#   If the line has a single point or is vertical, it returns 1.0e20.
###
compute         msd all msd com yes
#variable        twopoint equal c_msd[4]/6/(step*dt+1.0e-6) # scaled r_sqr(t)... not used? idk what this is for...
fix             2 ar vector 500 c_msd[4]
variable        fitslope equal slope(f_2)/6/(500*dt) # why dividing slope?

thermo_style    custom step v_eqtemp c_msd[4] v_fitslope # prints this info to log file



thermo          1000
run             1000000
Neighbor list info ...
  update every 1 steps, delay 10 steps, check yes
  max neighbors/atom: 2000, page size: 100000
  master list distance cutoff = 16
  ghost atom cutoff = 16
  binsize = 8, bins = 4 5 4
  1 neighbor lists, perpetual/occasional/extra = 1 0 0
  (1) pair lj/cut, perpetual
      attributes: half, newton on
      pair build: half/bin/newton/tri
      stencil: half/bin/3d/newton/tri
      bin: standard
WARNING: Inconsistent image flags (src/domain.cpp:785)
Per MPI rank memory allocation (min/avg/max) = 34.26 | 34.26 | 34.26 Mbytes
Step v_eqtemp c_msd[4] v_fitslope 
       0          298 9.2603721e-30 3.3333333e+16 
    1000          298 0.00069299945 1.1549991e-07 
    2000          298 0.00061096307 5.5404983e-08 
    3000          298 9.253795e-05 1.5712096e-08 
    4000          298 3.5434757e-05 -6.8244245e-09 
    5000          298 0.00052165689 1.9125949e-09 
    6000          298 0.00045436869 3.881173e-09 
    7000          298 0.00040537573 9.5330616e-10 
    8000          298 0.00023262478 -7.4028012e-10 
    9000          298 5.726849e-05 -1.8929986e-09 
   10000          298 0.00058592246 -5.0522446e-10 
   11000          298 0.00028065593 -1.1849056e-09 
   12000          298 9.6428395e-05 -7.9965363e-10 
   13000          298 5.0991523e-05 -1.7750954e-09 
   14000          298 0.00022175725 -1.211112e-09 
   15000          298 0.00024468066 -1.765732e-09 
   16000          298 0.0011795062 1.1095948e-09 
   17000          298 0.0013174766 3.9269754e-09 
   18000          298 0.00020696998 3.1594994e-09 
   19000          298 0.00047385839 2.7065317e-09 
   20000          298 0.0004247232 2.2203601e-09 
   21000          298 0.00034904669 1.7678456e-09 
   22000          298 0.00038289795 1.4877551e-09 
   23000          298 0.00039889361 1.4897228e-09 
   24000          298 0.00039426173 1.1239364e-09 
   25000          298 0.0014443082 2.1595778e-09 
   26000          298 0.00099459706 3.036233e-09 
   27000          298 0.00068109314 2.9930407e-09 
   28000          298 0.0011197556 3.3553427e-09 
   29000          298 0.0013331984 3.6592756e-09 
   30000          298 0.0017034494 4.6556029e-09 
   31000          298 0.0012944342 4.9815357e-09 
   32000          298 0.0034077886 6.5118083e-09 
   33000          298 0.0057337537 9.9687157e-09 
   34000          298  0.007016472 1.3954365e-08 
   35000          298  0.011323639 1.9721061e-08 
   36000          298  0.019174878 2.9935858e-08 
   37000          298  0.017252919 3.9368567e-08 
   38000          298  0.017971193 4.5748855e-08 
   39000          298  0.018420291 5.2543708e-08 
   40000          298  0.020855455 5.9078009e-08 
   41000          298  0.016668171 6.2974543e-08 
   42000          298    0.0155805 6.467179e-08 
   43000          298  0.019956852 6.8048512e-08 
   44000          298  0.019798437 7.1487696e-08 
   45000          298  0.015635617 7.2566557e-08 
   46000          298 0.0092539389 7.0499716e-08 
   47000          298   0.01018654 6.8068334e-08 
   48000          298  0.017800722 6.8222059e-08 
   49000          298  0.019467777  7.02611e-08 
   50000          298  0.020785204 7.1309358e-08 
   51000          298  0.018761251 7.2868867e-08 
   52000          298  0.015271923 7.1900768e-08 
   53000          298  0.015195061 7.0877441e-08 
   54000          298  0.021958607 7.2006503e-08 
   55000          298  0.014596828 7.0897968e-08 
   56000          298  0.014919049 6.9751375e-08 
   57000          298  0.022271672 6.9845454e-08 
   58000          298  0.015765895 6.9489038e-08 
   59000          298  0.017309659 6.8617531e-08 
   60000          298  0.014432721 6.7276889e-08 
   61000          298  0.022999066 6.753434e-08 
   62000          298  0.021010762 6.7724403e-08 
   63000          298  0.019100517 6.6977493e-08 
   64000          298  0.019493546 6.696373e-08 
   65000          298  0.015992564 6.5496147e-08 
   66000          298  0.018080772 6.464437e-08 
   67000          298  0.020202477 6.4219591e-08 
   68000          298  0.019988173 6.3614497e-08 
   69000          298  0.018317394 6.3120888e-08 
   70000          298  0.019635153 6.2326683e-08 
   71000          298  0.017504613 6.1464404e-08 
   72000          298  0.021674307 6.0682505e-08 
   73000          298  0.024294371 6.0906528e-08 
   74000          298  0.021209399 6.0764723e-08 
   75000          298  0.018769932 5.9902948e-08 
   76000          298  0.022394661 5.9466582e-08 
   77000          298  0.019418413 5.9063733e-08 
   78000          298  0.020441435 5.8146089e-08 
   79000          298  0.021157975 5.7775981e-08 
   80000          298  0.018806259 5.6914381e-08 
   81000          298  0.022904768 5.6498124e-08 
   82000          298  0.016957504 5.5609549e-08 
   83000          298  0.023240585 5.4987291e-08 
   84000          298  0.023169594 5.4698777e-08 
   85000          298  0.015515051 5.3566161e-08 
   86000          298  0.020723452 5.2833152e-08 
   87000          298   0.01394767 5.1645506e-08 
   88000          298  0.010271851 4.9831601e-08 
   89000          298  0.013410508 4.8260366e-08 
   90000          298  0.021175596 4.753379e-08 
   91000          298  0.019430323 4.7014207e-08 
   92000          298  0.019789129 4.6432388e-08 
   93000          298  0.016426149 4.561256e-08 
   94000          298 0.0096351061 4.4120692e-08 
   95000          298 0.0092759309 4.2453631e-08 
   96000          298  0.015597314 4.1361662e-08 
   97000          298  0.020568459 4.1079109e-08 
   98000          298  0.019421929 4.0545551e-08 
   99000          298  0.020243452 4.0207935e-08 
  100000          298  0.011390641 3.9099361e-08 
  101000          298 0.0090816275 3.7663867e-08 
  102000          298  0.014112016 3.658582e-08 
  103000          298  0.019923407 3.6125509e-08 
  104000          298  0.021245379 3.5921849e-08 
  105000          298   0.01348408 3.5162435e-08 
  106000          298 0.0093133497 3.3975173e-08 
  107000          298  0.011956806 3.2921128e-08 
  108000          298  0.018630986 3.2429671e-08 
  109000          298  0.016071406 3.1979914e-08 
  110000          298  0.012248453 3.1135008e-08 
  111000          298  0.014011215 3.0399615e-08 
  112000          298  0.021297186 3.018293e-08 
  113000          298  0.019172927 2.9951251e-08 
  114000          298  0.020345294 2.9708029e-08 
  115000          298  0.022541599 2.9701426e-08 
  116000          298  0.016980122 2.9369681e-08 
  117000          298  0.018338583 2.8985258e-08 
  118000          298  0.019010935 2.875319e-08 
  119000          298  0.020535496 2.8597684e-08 
  120000          298  0.019372855 2.831913e-08 
  121000          298  0.018211396 2.8031408e-08 
  122000          298  0.013166592 2.7474908e-08 
  123000          298 0.0098267952 2.6626627e-08 
  124000          298  0.014187591 2.595875e-08 
  125000          298  0.019716514 2.5682195e-08 
  126000          298  0.021913734 2.5615577e-08 
  127000          298  0.012835061 2.5119229e-08 
  128000          298 0.0089477446 2.432059e-08 
  129000          298  0.012162858 2.3633454e-08 
  130000          298  0.018316496 2.3332693e-08 
  131000          298  0.019112976 2.3173032e-08 
  132000          298  0.021215311 2.301788e-08 
  133000          298  0.018842055 2.2912317e-08 
  134000          298  0.019701526 2.2778133e-08 
  135000          298  0.021246063 2.265748e-08 
  136000          298  0.017725402 2.2408746e-08 
  137000          298  0.018083264 2.2217864e-08 
  138000          298  0.010070927 2.1670116e-08 
  139000          298 0.0062368364 2.0879783e-08 
  140000          298 0.0035629306 1.998853e-08 
  141000          298 0.0014523235 1.9000536e-08 
  142000          298 0.0018591403 1.8050405e-08 
  143000          298 0.0032040629 1.7182199e-08 
  144000          298  0.003520088 1.638493e-08 
  145000          298 0.0019934899 1.5558912e-08 
  146000          298 0.0012657511 1.470735e-08 
  147000          298 0.0026410791 1.3932512e-08 
  148000          298 0.0032662111 1.3221673e-08 
  149000          298 0.0022412801 1.2507834e-08 
  150000          298 0.0019917504 1.1796636e-08 
  151000          298 0.0030391131 1.1143457e-08 
  152000          298 0.0032761008 1.053577e-08 
  153000          298 0.0022062453 9.9111401e-09 
  154000          298 0.0014495918 9.2800669e-09 
  155000          298 0.0019529816 8.6684517e-09 
  156000          298   0.00414987 8.1610324e-09 
  157000          298 0.0041896738 7.6976688e-09 
  158000          298 0.0020082014 7.1794163e-09 
  159000          298 0.0014115581 6.630256e-09 
  160000          298 0.0032088807 6.1519323e-09 
  161000          298 0.0040116723 5.7377687e-09 
  162000          298 0.0024653538 5.2968169e-09 
  163000          298 0.0011961477 4.8197046e-09 
  164000          298 0.0015374571 4.3525515e-09 
  165000          298 0.0015128895 3.9033212e-09 
  166000          298 0.0012774744 3.4627898e-09 
  167000          298 0.00070462532 3.0178819e-09 
  168000          298 0.0016167956 2.6213927e-09 
  169000          298 0.0009273117 2.213136e-09 
  170000          298 0.0014174468 1.8407441e-09 
  171000          298 0.00089122285 1.4566027e-09 
  172000          298 0.00069326096 1.0821975e-09 
  173000          298 0.0010656229 7.3232205e-10 
  174000          298 0.0013110984 4.0413242e-10 
  175000          298 0.00056907476 6.6885342e-11 
  176000          298 0.00073137057 -2.6131812e-10 
  177000          298 0.0020101031 -5.5228222e-10 
  178000          298 0.00099787782 -8.5063218e-10 
  179000          298 0.00028214986 -1.1571702e-09 
  180000          298 0.00023162198 -1.457504e-09 
  181000          298 0.00022627951 -1.7438085e-09 
  182000          298 0.00044488005 -2.0224216e-09 
  183000          298 0.0015783184 -2.268542e-09 
  184000          298 0.0010156092 -2.5015168e-09 
  185000          298 0.00080573179 -2.7361388e-09 
  186000          298 0.0011075129 -2.9624277e-09 
  187000          298 0.0019317745 -3.1634774e-09 
  188000          298 0.0054795618 -3.2754176e-09 
  189000          298  0.010912995 -3.2521733e-09 
  190000          298  0.019228839 -3.0063816e-09 
  191000          298  0.016295513 -2.7610923e-09 
  192000          298   0.01913563 -2.5341487e-09 
  193000          298  0.016216781 -2.2900062e-09 
  194000          298  0.014221559 -2.1667633e-09 
  195000          298  0.015168824 -2.0090221e-09 
  196000          298  0.022600958 -1.7250058e-09 
  197000          298  0.018131135 -1.4606577e-09 
  198000          298   0.02050968 -1.2114797e-09 
  199000          298  0.020957883 -9.3611046e-10 
  200000          298  0.018299124 -7.2485813e-10 
  201000          298  0.016840639 -5.4957631e-10 
  202000          298  0.023511919 -2.8249278e-10 
  203000          298  0.020430926 -1.1854065e-12 
  204000          298  0.018513546 1.5724157e-10 
  205000          298  0.014376512 2.7850629e-10 
  206000          298  0.017442618 4.0301524e-10 
  207000          298   0.01396116 4.996031e-10 
  208000          298  0.018669655 6.4453293e-10 
  209000          298  0.017585808 7.817676e-10 
  210000          298  0.023449122 1.0481091e-09 
  211000          298  0.016902363 1.2009943e-09 
  212000          298  0.018898296 1.3477517e-09 
  213000          298  0.019010529 1.5043945e-09 
  214000          298  0.024532571 1.7375544e-09 
  215000          298  0.019493234 1.940935e-09 
  216000          298  0.020447884 2.0817247e-09 
  217000          298  0.018660103 2.2094898e-09 
  218000          298  0.018825283 2.3375992e-09 
  219000          298  0.017402008 2.4311478e-09 
  220000          298  0.023008145 2.6255252e-09 
  221000          298  0.017633379 2.7447281e-09 
  222000          298  0.020682237 2.8564426e-09 
  223000          298  0.028506388 3.1178313e-09 
  224000          298  0.033942725 3.4919441e-09 
  225000          298  0.029878935 3.8153439e-09 
  226000          298  0.028551417 4.1018802e-09 
  227000          298  0.031578363 4.4230148e-09 
  228000          298  0.028187988 4.6653526e-09 
  229000          298  0.027550503 4.9327978e-09 
  230000          298  0.031391252 5.1918571e-09 
  231000          298  0.030965218 5.482161e-09 
  232000          298  0.034386392 5.7887871e-09 
  233000          298  0.034531673 6.1128794e-09 
  234000          298  0.044881372 6.5678303e-09 
  235000          298  0.054943476 7.2024908e-09 
  236000          298  0.071350991 8.0667047e-09 
  237000          298  0.085667679 9.2003014e-09 
  238000          298  0.081567411 1.0302215e-08 
  239000          298  0.089391751 1.1472534e-08 
  240000          298  0.071487616 1.2382341e-08 
  241000          298  0.064183579 1.3104402e-08 
  242000          298  0.073638354 1.3906917e-08 
  243000          298  0.087419057 1.4950039e-08 
  244000          298  0.082542017 1.5884908e-08 
  245000          298  0.084382974 1.6878087e-08 
  246000          298   0.07678575 1.7664565e-08 
  247000          298   0.08611785 1.8557998e-08 
  248000          298  0.084747332 1.9429031e-08 
  249000          298  0.090286268 2.0395337e-08 
  250000          298  0.081595045 2.1172011e-08 
  251000          298  0.078329427 2.1930129e-08 
  252000          298  0.093905858 2.2784329e-08 
  253000          298  0.092898146 2.3701548e-08 
  254000          298  0.074964953 2.436985e-08 
  255000          298  0.070744086  2.49171e-08 
  256000          298  0.079518799 2.550639e-08 
  257000          298  0.077720546 2.6120113e-08 
  258000          298  0.091902859 2.6883521e-08 
  259000          298   0.08231261 2.7558754e-08 
  260000          298    0.0833059 2.8175302e-08 
  261000          298  0.075901187 2.8718081e-08 
  262000          298  0.067253716 2.9083468e-08 
  263000          298  0.075991056 2.9503509e-08 
  264000          298  0.084169812 3.0094589e-08 
  265000          298  0.069632026 3.0501714e-08 
  266000          298  0.071944091 3.0875648e-08 
  267000          298  0.087378732 3.1367919e-08 
  268000          298   0.08149708 3.1906569e-08 
  269000          298  0.089463058 3.2433759e-08 
  270000          298  0.085804962 3.2955186e-08 
  271000          298  0.083641846 3.3420893e-08 
  272000          298  0.097564353 3.4040938e-08 
  273000          298   0.10930354 3.4780733e-08 
  274000          298   0.11010336 3.557404e-08 
  275000          298   0.10731006 3.6280098e-08 
  276000          298   0.09761203 3.6922303e-08 
  277000          298  0.086810862 3.7401673e-08 
  278000          298  0.085337559 3.7762771e-08 
  279000          298  0.094164046 3.8230062e-08 
  280000          298  0.088712739 3.8667238e-08 
  281000          298  0.076699119 3.8958408e-08 
  282000          298   0.09272915 3.9329591e-08 
  283000          298  0.094272592 3.9770792e-08 
  284000          298  0.082444822 4.0110458e-08 
  285000          298  0.088082009 4.0423306e-08 
  286000          298  0.089070009 4.0772855e-08 
  287000          298  0.083514028 4.1033206e-08 
  288000          298  0.090639532 4.1373088e-08 
  289000          298  0.079843814 4.1623667e-08 
  290000          298  0.091233687 4.1928043e-08 
  291000          298  0.092944059 4.2282284e-08 
  292000          298  0.081126969 4.2533211e-08 
  293000          298  0.076195103 4.2681719e-08 
  294000          298  0.085728543 4.2913446e-08 
  295000          298  0.080790201 4.307871e-08 
  296000          298  0.081499946 4.3288131e-08 
  297000          298  0.085696492 4.3481628e-08 
  298000          298  0.087957353 4.370755e-08 
  299000          298  0.075634318 4.3822308e-08 
  300000          298  0.087837425 4.4026951e-08 
  301000          298  0.074892435 4.4117158e-08 
  302000          298  0.071099745 4.4163258e-08 
  303000          298  0.081879798 4.425704e-08 
  304000          298  0.077961665 4.4398981e-08 
  305000          298  0.085353852 4.4533057e-08 
  306000          298  0.069957496 4.4590004e-08 
  307000          298  0.056659556 4.4474683e-08 
  308000          298  0.054646793 4.4310413e-08 
  309000          298  0.060395029 4.4182098e-08 
  310000          298  0.078077169 4.4205641e-08 
  311000          298  0.078031406 4.4319325e-08 
  312000          298  0.065277237 4.4278104e-08 
  313000          298  0.068657596  4.42243e-08 
  314000          298  0.078602063 4.4271888e-08 
  315000          298  0.085261058 4.4405905e-08 
  316000          298  0.085874303 4.4522767e-08 
  317000          298  0.081464524 4.4632382e-08 
  318000          298  0.083196258 4.4728307e-08 
  319000          298  0.070390862 4.4733818e-08 
  320000          298  0.058803466 4.4603104e-08 
  321000          298  0.062352568 4.4470898e-08 
  322000          298  0.080049645 4.448167e-08 
  323000          298   0.07844799 4.4551539e-08 
  324000          298  0.060773453  4.44528e-08 
  325000          298  0.057172388 4.4283947e-08 
  326000          298  0.067289755 4.4177848e-08 
  327000          298  0.087306754 4.4238108e-08 
  328000          298  0.078813983 4.4296573e-08 
  329000          298  0.091332855 4.4401099e-08 
  330000          298  0.074874011 4.4435626e-08 
  331000          298  0.080260183 4.446047e-08 
  332000          298  0.084242797 4.4526467e-08 
  333000          298  0.090844536 4.462046e-08 
  334000          298   0.08298187 4.4705115e-08 
  335000          298  0.078556515 4.470937e-08 
  336000          298  0.065851465 4.4632786e-08 
  337000          298   0.06888217 4.4539953e-08 
  338000          298  0.088101495 4.458464e-08 
  339000          298  0.072498373 4.4558892e-08 
  340000          298   0.07112101 4.4496031e-08 
  341000          298  0.084812194 4.4494948e-08 
  342000          298  0.076403686 4.4517096e-08 
  343000          298  0.077738819 4.4486012e-08 
  344000          298  0.071367485 4.4432496e-08 
  345000          298  0.085950519 4.4449844e-08 
  346000          298  0.082014222 4.4479034e-08 
  347000          298  0.088133477 4.4492844e-08 
  348000          298  0.095836459 4.4607747e-08 
  349000          298   0.10392039 4.4773872e-08 
  350000          298   0.10746808 4.4978953e-08 
  351000          298   0.10980741 4.5186977e-08 
  352000          298   0.11774322 4.5445979e-08 
  353000          298   0.13502283 4.5818834e-08 
  354000          298   0.14615196 4.6288376e-08 
  355000          298   0.16436085 4.6862052e-08 
  356000          298   0.19136755 4.7635572e-08 
  357000          298   0.19301116 4.8463189e-08 
  358000          298    0.2003459 4.9297696e-08 
  359000          298   0.18120823 5.0061946e-08 
  360000          298   0.16907968 5.0675148e-08 
  361000          298   0.17540915 5.1269314e-08 
  362000          298   0.18556136 5.1938499e-08 
  363000          298   0.19780936 5.2711665e-08 
  364000          298   0.19511974 5.3422744e-08 
  365000          298   0.18743335 5.4135597e-08 
  366000          298   0.19197496 5.4784897e-08 
  367000          298   0.21400859 5.5573916e-08 
  368000          298   0.22761843 5.6477413e-08 
  369000          298   0.22667518 5.7375121e-08 
  370000          298   0.21758768 5.8207471e-08 
  371000          298   0.23339763 5.9094106e-08 
  372000          298   0.23057948 5.9966373e-08 
  373000          298   0.23169374 6.0814307e-08 
  374000          298   0.21351079 6.1574334e-08 
  375000          298   0.19735749 6.2205817e-08 
  376000          298   0.19538792 6.2742882e-08 
  377000          298    0.2071709 6.335237e-08 
  378000          298   0.18888432 6.3894949e-08 
  379000          298   0.19518205 6.4399708e-08 
  380000          298   0.19064248 6.4912716e-08 
  381000          298    0.1825917 6.5309232e-08 
  382000          298   0.18467183 6.574587e-08 
  383000          298   0.18404106 6.6123311e-08 
  384000          298    0.1828756  6.65326e-08 
  385000          298   0.19584013 6.6944408e-08 
  386000          298   0.19577817 6.7427972e-08 
  387000          298   0.19127458 6.7849438e-08 
  388000          298   0.20217922 6.8322846e-08 
  389000          298   0.18105897 6.8678426e-08 
  390000          298   0.19474712 6.9083932e-08 
  391000          298   0.18277288 6.9446682e-08 
  392000          298   0.18344987 6.9748191e-08 
  393000          298   0.19672075 7.0124028e-08 
  394000          298    0.1926728 7.0504492e-08 
  395000          298   0.18744449 7.0844429e-08 
  396000          298    0.2040917 7.1219659e-08 
  397000          298   0.20239341 7.1648275e-08 
  398000          298   0.18708969 7.1949479e-08 
  399000          298   0.18111616 7.2222471e-08 
  400000          298   0.20165966 7.2577656e-08 
  401000          298   0.18963726 7.2883702e-08 
  402000          298   0.19614956 7.3222691e-08 
  403000          298   0.19330657 7.3528709e-08 
  404000          298   0.20224324 7.3844738e-08 
  405000          298   0.18776326 7.4132919e-08 
  406000          298   0.19624647 7.4424084e-08 
  407000          298   0.19156755 7.4683256e-08 
  408000          298   0.19521985 7.4954018e-08 
  409000          298   0.19059295 7.519812e-08 
  410000          298   0.21202178 7.5541843e-08 
  411000          298   0.21978908 7.5923318e-08 
  412000          298   0.22647924 7.6358592e-08 
  413000          298   0.21765863 7.675091e-08 
  414000          298   0.23299351 7.719072e-08 
  415000          298   0.21175078 7.7533538e-08 
  416000          298   0.21468432 7.7855043e-08 
  417000          298    0.2319906 7.827149e-08 
  418000          298   0.21626109 7.8604709e-08 
  419000          298   0.21225627 7.890296e-08 
  420000          298   0.22260534 7.9243624e-08 
  421000          298   0.23090567 7.9637327e-08 
  422000          298   0.22656753 8.0014918e-08 
  423000          298   0.21443251 8.0307488e-08 
  424000          298   0.21701232 8.0587572e-08 
  425000          298   0.23345756 8.092708e-08 
  426000          298   0.22201016 8.1248711e-08 
  427000          298   0.23812263 8.1611289e-08 
  428000          298   0.22840892 8.1944357e-08 
  429000          298    0.2248018 8.2225791e-08 
  430000          298   0.22622271 8.2531651e-08 
  431000          298   0.22309272 8.2812266e-08 
  432000          298   0.21852289 8.3073635e-08 
  433000          298   0.20891168 8.3261421e-08 
  434000          298   0.18792542 8.3354463e-08 
  435000          298   0.20043552 8.3471245e-08 
  436000          298   0.19580138 8.3589046e-08 
  437000          298   0.19745418 8.3668237e-08 
  438000          298    0.2055715 8.381142e-08 
  439000          298   0.19341348 8.3914013e-08 
  440000          298   0.18809457 8.3946667e-08 
  441000          298   0.18856976 8.4006812e-08 
  442000          298   0.19646256 8.406488e-08 
  443000          298   0.18896087 8.4107679e-08 
  444000          298   0.18879024 8.4164888e-08 
  445000          298   0.19341643 8.4201933e-08 
  446000          298   0.17852202 8.4209321e-08 
  447000          298   0.16175364 8.4112708e-08 
  448000          298    0.1724773 8.4031627e-08 
  449000          298   0.18897362 8.4041914e-08 
  450000          298   0.19739579 8.4100592e-08 
  451000          298   0.18235371 8.4109793e-08 
  452000          298   0.15978994 8.4010172e-08 
  453000          298   0.16137381 8.3880551e-08 
  454000          298   0.18393766 8.3841739e-08 
  455000          298   0.19227471 8.3870648e-08 
  456000          298   0.17884315 8.3843637e-08 
  457000          298   0.19848794 8.3880853e-08 
  458000          298   0.19416729 8.3916806e-08 
  459000          298   0.19260732 8.3922315e-08 
  460000          298    0.1852612 8.3932388e-08 
  461000          298   0.19888912 8.3950091e-08 
  462000          298   0.18166714 8.392528e-08 
  463000          298   0.19049992 8.3909423e-08 
  464000          298   0.20596409 8.3972581e-08 
  465000          298   0.18281223 8.3959467e-08 
  466000          298   0.17540921 8.389735e-08 
  467000          298   0.17416704 8.3796576e-08 
  468000          298   0.19028237 8.3758329e-08 
  469000          298   0.20957759 8.3821669e-08 
  470000          298   0.18952142 8.3840611e-08 
  471000          298   0.19198803 8.3813201e-08 
  472000          298    0.1915433 8.3793625e-08 
  473000          298   0.19791271 8.3806356e-08 
  474000          298   0.19391975 8.3809957e-08 
  475000          298   0.19282815 8.3783557e-08 
  476000          298   0.19085109 8.3756219e-08 
  477000          298   0.19890264 8.3761727e-08 
  478000          298   0.17833788 8.3695003e-08 
  479000          298   0.16223987 8.3549372e-08 
  480000          298   0.16997476 8.3409707e-08 
  481000          298   0.19492698 8.3361594e-08 
  482000          298   0.18612552 8.3317142e-08 
  483000          298   0.19960786 8.3312832e-08 
  484000          298    0.1952157 8.3277607e-08 
  485000          298   0.18493429 8.3240479e-08 
  486000          298   0.18820503 8.3174738e-08 
  487000          298   0.21143381 8.319744e-08 
  488000          298   0.22702629 8.3291907e-08 
  489000          298   0.22727861 8.3402707e-08 
  490000          298   0.21857904 8.3479577e-08 
  491000          298   0.23114153 8.3572513e-08 
  492000          298    0.2236773 8.3650432e-08 
  493000          298   0.22670138 8.3737794e-08 
  494000          298   0.20761069 8.376645e-08 
  495000          298   0.18259447 8.3705816e-08 
  496000          298    0.1929922 8.3628806e-08 
  497000          298   0.18407045 8.3557175e-08 
  498000          298   0.19416653 8.3486626e-08 
  499000          298   0.17521491 8.3379914e-08 
  500000          298   0.15896876 8.3193888e-08 
  501000          298   0.16957426 8.3020721e-08 
  502000          298   0.19316794 8.2933927e-08 
  503000          298   0.19677324 8.2893884e-08 
  504000          298   0.18558271 8.2805892e-08 
  505000          298   0.16355775 8.2649239e-08 
  506000          298   0.16487679 8.2468159e-08 
  507000          298   0.18863031 8.2364813e-08 
  508000          298   0.19163847 8.2290794e-08 
  509000          298   0.19775461 8.2237622e-08 
  510000          298   0.19543037 8.2187894e-08 
  511000          298   0.18647753  8.20935e-08 
  512000          298   0.17462783 8.1966596e-08 
  513000          298   0.19031396 8.1872411e-08 
  514000          298   0.19729321 8.1800975e-08 
  515000          298   0.18848642 8.1735965e-08 
  516000          298   0.17391583 8.1596347e-08 
  517000          298   0.17501036 8.1448679e-08 
  518000          298   0.19647246 8.1362271e-08 
  519000          298    0.2061465 8.1328098e-08 
  520000          298   0.19985629 8.128628e-08 
  521000          298   0.19185593 8.1198967e-08 
  522000          298   0.20404643 8.1150545e-08 
  523000          298   0.19241181 8.1083732e-08 
  524000          298   0.18812763 8.0982568e-08 
  525000          298   0.20332195 8.0927536e-08 
  526000          298    0.1836914 8.0840586e-08 
  527000          298   0.16987064 8.0687626e-08 
  528000          298   0.17134138 8.0513943e-08 
  529000          298    0.1894287 8.0394021e-08 
  530000          298   0.18977381 8.031286e-08 
  531000          298   0.19768243 8.0217596e-08 
  532000          298   0.18470259 8.0121781e-08 
  533000          298   0.20031826 8.0040809e-08 
  534000          298   0.19787406 7.9970698e-08 
  535000          298   0.17905079 7.9835629e-08 
  536000          298   0.18305326 7.9714438e-08 
  537000          298   0.20154477 7.962629e-08 
  538000          298   0.18534946 7.9528892e-08 
  539000          298   0.19994415 7.9452243e-08 
  540000          298   0.19243729 7.9354164e-08 
  541000          298   0.19682642 7.927134e-08 
  542000          298   0.18953355 7.9182123e-08 
  543000          298   0.20150619 7.9104649e-08 
  544000          298   0.18943245 7.9016542e-08 
  545000          298   0.19810133 7.8917151e-08 
  546000          298   0.21902707 7.8889101e-08 
  547000          298   0.23231762 7.8915829e-08 
  548000          298   0.22106755 7.8914974e-08 
  549000          298   0.22088707 7.8897612e-08 
  550000          298   0.21541679 7.889099e-08 
  551000          298   0.21327197 7.8855035e-08 
  552000          298   0.21762623 7.8825631e-08 
  553000          298   0.22709973 7.8824303e-08 
  554000          298   0.23204632 7.8854598e-08 
  555000          298    0.2285903 7.8851084e-08 
  556000          298   0.22089826 7.8859097e-08 
  557000          298    0.2129026 7.8818817e-08 
  558000          298   0.22136425 7.8786543e-08 
  559000          298   0.23088084 7.8795849e-08 
  560000          298   0.23358045 7.8808754e-08 
  561000          298   0.21352145 7.8775695e-08 
  562000          298   0.21553058 7.8721098e-08 
  563000          298   0.23447927 7.8721882e-08 
  564000          298   0.22769306 7.8718526e-08 
  565000          298   0.23633184 7.8732432e-08 
  566000          298   0.25327643 7.8790274e-08 
  567000          298   0.26128416 7.8882736e-08 
  568000          298   0.24668836 7.8942321e-08 
  569000          298   0.23064076 7.8949103e-08 
  570000          298   0.23519131 7.8944598e-08 
  571000          298   0.24331393 7.8972366e-08 
  572000          298   0.25793903 7.9035541e-08 
  573000          298   0.25392199 7.910259e-08 
  574000          298   0.23773726 7.9124512e-08 
  575000          298   0.23682745 7.9122937e-08 
  576000          298   0.22464267 7.9091826e-08 
  577000          298   0.23000392 7.9073678e-08 
  578000          298   0.20564792 7.8994021e-08 
  579000          298   0.18383469 7.8842819e-08 
  580000          298   0.20668946 7.8739428e-08 
  581000          298   0.22120615 7.8681149e-08 
  582000          298   0.22829127 7.8646992e-08 
  583000          298   0.22454804 7.8621518e-08 
  584000          298   0.21238052 7.8550637e-08 
  585000          298   0.21939367 7.8483878e-08 
  586000          298   0.23122681 7.845904e-08 
  587000          298   0.22744477 7.8416994e-08 
  588000          298   0.23862515 7.8413214e-08 
  589000          298   0.25078936 7.8430858e-08 
  590000          298   0.26455556 7.8491214e-08 
  591000          298   0.25347471 7.8536184e-08 
  592000          298    0.2416681 7.8538183e-08 
  593000          298   0.23746262 7.8524597e-08 
  594000          298   0.22385371 7.8471451e-08 
  595000          298    0.2292771 7.8432454e-08 
  596000          298   0.22827063 7.8384256e-08 
  597000          298   0.23093467 7.8348717e-08 
  598000          298    0.2247167 7.8307437e-08 
  599000          298   0.23229022 7.8253705e-08 
  600000          298   0.23656155 7.8227258e-08 
  601000          298   0.22301545 7.8184644e-08 
  602000          298   0.22124161 7.8116421e-08 
  603000          298   0.23779649 7.8076412e-08 
  604000          298   0.24496086 7.8062694e-08 
  605000          298   0.25820031 7.8083048e-08 
  606000          298   0.25607735 7.8110274e-08 
  607000          298   0.24142499 7.8100102e-08 
  608000          298   0.22280297 7.8046729e-08 
  609000          298   0.23125923 7.7993328e-08 
  610000          298   0.22320156 7.7926482e-08 
  611000          298   0.23003087 7.7860406e-08 
  612000          298   0.22468034 7.7808728e-08 
  613000          298   0.22405465 7.773362e-08 
  614000          298   0.23229615 7.7679792e-08 
  615000          298   0.23040929 7.7624989e-08 
  616000          298   0.21962015 7.7548522e-08 
  617000          298    0.2271169 7.7472439e-08 
  618000          298   0.22484332 7.7409578e-08 
  619000          298   0.22501247 7.7334808e-08 
  620000          298   0.23195268 7.7286997e-08 
  621000          298   0.23102298 7.7224987e-08 
  622000          298   0.24577516 7.7196076e-08 
  623000          298    0.2625356 7.7209947e-08 
  624000          298   0.25755145 7.7226592e-08 
  625000          298   0.23997484 7.7198834e-08 
  626000          298   0.25083887 7.717728e-08 
  627000          298   0.26151559 7.7187469e-08 
  628000          298   0.25300837 7.7188473e-08 
  629000          298   0.24101912 7.7154204e-08 
  630000          298   0.22232578 7.7079163e-08 
  631000          298   0.22687301 7.7001414e-08 
  632000          298   0.22995623 7.6930838e-08 
  633000          298     0.225535 7.6849834e-08 
  634000          298   0.21330376 7.6748232e-08 
  635000          298   0.21764385 7.664762e-08 
  636000          298   0.23599808 7.6584897e-08 
  637000          298    0.2235833 7.6501178e-08 
  638000          298     0.221979 7.6411306e-08 
  639000          298   0.24004222 7.6358857e-08 
  640000          298   0.22902349 7.6293265e-08 
  641000          298   0.22321867 7.6201609e-08 
  642000          298   0.22804918 7.6122868e-08 
  643000          298   0.22060638 7.6036071e-08 
  644000          298   0.22997476 7.5960468e-08 
  645000          298   0.22661935 7.5879116e-08 
  646000          298   0.22005383 7.5782026e-08 
  647000          298   0.22611687 7.5690342e-08 
  648000          298   0.23733329 7.5631522e-08 
  649000          298   0.22504597 7.5556943e-08 
  650000          298   0.23285215 7.5478629e-08 
  651000          298   0.21844925 7.5386902e-08 
  652000          298   0.21804293 7.5280975e-08 
  653000          298   0.23428206 7.5197793e-08 
  654000          298   0.22553815 7.5119538e-08 
  655000          298   0.22852687 7.5036764e-08 
  656000          298     0.226901 7.4957219e-08 
  657000          298   0.22177674 7.486615e-08 
  658000          298   0.22696905 7.4783388e-08 
  659000          298    0.2236395 7.4692406e-08 
  660000          298   0.22549993 7.4601411e-08 
  661000          298   0.22434373 7.451028e-08 
  662000          298   0.22871638 7.4433605e-08 
  663000          298   0.21577276 7.4324758e-08 
  664000          298   0.22304363 7.4227665e-08 
  665000          298   0.22193407 7.4138473e-08 
  666000          298   0.21949106 7.4034511e-08 
  667000          298    0.2278841 7.394581e-08 
  668000          298   0.22028322 7.3843051e-08 
  669000          298   0.22959333 7.3765651e-08 
  670000          298   0.21329862 7.3655818e-08 
  671000          298   0.19858845 7.3517409e-08 
  672000          298      0.18573 7.3341224e-08 
  673000          298   0.20829147 7.3198617e-08 
  674000          298   0.21833903 7.3087257e-08 
  675000          298   0.23363341 7.3008496e-08 
  676000          298   0.21891818 7.2908665e-08 
  677000          298   0.22428985 7.2817313e-08 
  678000          298   0.21097199 7.2702037e-08 
  679000          298   0.19531832 7.2559552e-08 
  680000          298   0.19349344 7.2392037e-08 
  681000          298   0.20214028 7.224759e-08 
  682000          298   0.18486325 7.2087842e-08 
  683000          298    0.1909524 7.191909e-08 
  684000          298   0.18860693 7.1755254e-08 
  685000          298    0.1907537 7.1588682e-08 
  686000          298   0.18980413 7.1430592e-08 
  687000          298   0.19849676 7.1274562e-08 
  688000          298   0.20101786 7.1133717e-08 
  689000          298   0.18360682 7.0967004e-08 
  690000          298   0.20955007 7.0837094e-08 
  691000          298   0.22414263 7.0737497e-08 
  692000          298   0.22316444 7.0651516e-08 
  693000          298   0.21439935 7.0543953e-08 
  694000          298   0.23140413 7.0458949e-08 
  695000          298   0.22057105 7.0368408e-08 
  696000          298   0.21724453 7.0262486e-08 
  697000          298   0.22227286 7.0164132e-08 
  698000          298   0.23611793 7.009011e-08 
  699000          298   0.22032754 7.0000779e-08 
  700000          298   0.23360406 6.9921062e-08 
  701000          298   0.21788943 6.9824011e-08 
  702000          298   0.23166279 6.9741816e-08 
  703000          298   0.21283676 6.9637385e-08 
  704000          298   0.19247281 6.9494675e-08 
  705000          298   0.20214615 6.9345486e-08 
  706000          298   0.21309558 6.9227453e-08 
  707000          298   0.22352087  6.91275e-08 
  708000          298   0.23097093 6.9045383e-08 
  709000          298    0.2253686 6.8960736e-08 
  710000          298   0.21687202 6.8855945e-08 
  711000          298   0.21947511 6.8754147e-08 
  712000          298   0.23572566 6.8680352e-08 
  713000          298   0.22385201 6.8596211e-08 
  714000          298   0.23040917 6.8518711e-08 
  715000          298   0.22320837 6.842375e-08 
  716000          298   0.22788253 6.8338681e-08 
  717000          298    0.2270724 6.825765e-08 
  718000          298   0.20943395  6.81497e-08 
  719000          298   0.18659205 6.7996194e-08 
  720000          298   0.19870823 6.7847344e-08 
  721000          298   0.21498053 6.7733284e-08 
  722000          298   0.23107415 6.7648485e-08 
  723000          298   0.22167064 6.7563995e-08 
  724000          298   0.21999403 6.7467917e-08 
  725000          298   0.22732396 6.7376557e-08 
  726000          298   0.22213194 6.7284703e-08 
  727000          298    0.2277425 6.7195128e-08 
  728000          298   0.21539396 6.709914e-08 
  729000          298   0.21699283 6.6994689e-08 
  730000          298   0.23681772 6.6917831e-08 
  731000          298   0.22017614 6.6822207e-08 
  732000          298   0.21822463 6.6728573e-08 
  733000          298   0.23251684 6.6642301e-08 
  734000          298   0.21990242 6.6552113e-08 
  735000          298   0.22084309 6.6457706e-08 
  736000          298   0.23466452 6.6377807e-08 
  737000          298   0.21446774 6.6278238e-08 
  738000          298   0.19235738 6.6141008e-08 
  739000          298   0.19861705 6.599437e-08 
  740000          298   0.20408598 6.5865105e-08 
  741000          298   0.18670214 6.5714457e-08 
  742000          298   0.19261882 6.5567896e-08 
  743000          298   0.19876743 6.5424384e-08 
  744000          298   0.19554368 6.5289497e-08 
  745000          298   0.19063747 6.5143524e-08 
  746000          298   0.18536162 6.4988672e-08 
  747000          298    0.2020105 6.4844076e-08 
  748000          298    0.1999302 6.4721247e-08 
  749000          298   0.19142685 6.4572791e-08 
  750000          298   0.19056739 6.4430444e-08 
  751000          298   0.18734084 6.4277236e-08 
  752000          298   0.20973006 6.416168e-08 
  753000          298   0.19527149 6.4030489e-08 
  754000          298   0.19357713 6.3886982e-08 
  755000          298   0.21387132 6.3774922e-08 
  756000          298   0.23353387 6.3693793e-08 
  757000          298   0.23863679 6.3632564e-08 
  758000          298    0.2187201 6.3548992e-08 
  759000          298   0.22057144 6.345778e-08 
  760000          298   0.23671327 6.3388257e-08 
  761000          298   0.21748539 6.3297487e-08 
  762000          298   0.20358144 6.3181547e-08 
  763000          298   0.17745161 6.3029309e-08 
  764000          298   0.17099345 6.2854986e-08 
  765000          298   0.17844445 6.2686107e-08 
  766000          298   0.19256697 6.2547769e-08 
  767000          298   0.17897515 6.2389473e-08 
  768000          298   0.20218981 6.2254733e-08 
  769000          298   0.19206233 6.2124763e-08 
  770000          298    0.1855497 6.1980026e-08 
  771000          298    0.1607788 6.1801281e-08 
  772000          298   0.16317958 6.1613407e-08 
  773000          298   0.18399038 6.1457404e-08 
  774000          298   0.20042091 6.1335031e-08 
  775000          298   0.18528123 6.1198733e-08 
  776000          298   0.16793287 6.1033424e-08 
  777000          298   0.16741553 6.085756e-08 
  778000          298   0.18705501 6.0706048e-08 
  779000          298   0.20162992 6.0590255e-08 
  780000          298   0.19124936 6.0466959e-08 
  781000          298   0.17560121 6.0310048e-08 
  782000          298   0.17938625 6.0159331e-08 
  783000          298   0.20054045 6.0028822e-08 
  784000          298   0.18534761 5.9898159e-08 
  785000          298    0.2045226 5.9778184e-08 
  786000          298   0.18411806 5.9644604e-08 
  787000          298   0.19651398 5.9522952e-08 
  788000          298   0.19103049 5.9394663e-08 
  789000          298   0.20176109 5.9274932e-08 
  790000          298   0.18516616 5.9146847e-08 
  791000          298   0.20624153 5.9034578e-08 
  792000          298   0.19137062 5.8914476e-08 
  793000          298   0.19459222 5.8790444e-08 
  794000          298   0.19653586 5.8676655e-08 
  795000          298   0.19744412 5.8549397e-08 
  796000          298   0.20621723 5.8447212e-08 
  797000          298   0.19377821 5.8335047e-08 
  798000          298   0.19692922 5.8209943e-08 
  799000          298   0.20095533 5.810327e-08 
  800000          298   0.18641305 5.7978458e-08 
  801000          298   0.20129235 5.7862218e-08 
  802000          298   0.18753909 5.7740688e-08 
  803000          298   0.20485681 5.7624324e-08 
  804000          298   0.18903797 5.7506819e-08 
  805000          298   0.19855322 5.7390752e-08 
  806000          298   0.19519212 5.7271889e-08 
  807000          298   0.19582784 5.715196e-08 
  808000          298   0.18901467  5.70356e-08 
  809000          298   0.19953087 5.6920013e-08 
  810000          298   0.17998178 5.6791847e-08 
  811000          298   0.17121378 5.6645144e-08 
  812000          298   0.17825148 5.6497866e-08 
  813000          298   0.18523204 5.6367722e-08 
  814000          298   0.20693728 5.6267472e-08 
  815000          298   0.18771692 5.6153262e-08 
  816000          298   0.19330935 5.6033952e-08 
  817000          298    0.1922177 5.5918417e-08 
  818000          298    0.2001793 5.5801303e-08 
  819000          298   0.21013875 5.5711947e-08 
  820000          298   0.18441606 5.5597388e-08 
  821000          298   0.17666674 5.5462823e-08 
  822000          298   0.17575218 5.5317714e-08 
  823000          298   0.18264769 5.518843e-08 
  824000          298   0.20782112 5.5089977e-08 
  825000          298   0.19385158 5.4987864e-08 
  826000          298   0.17946045 5.4856012e-08 
  827000          298   0.17472416 5.4717592e-08 
  828000          298   0.19432401 5.460205e-08 
  829000          298   0.17706253 5.4476345e-08 
  830000          298   0.15134129 5.4311778e-08 
  831000          298   0.14000614 5.4128315e-08 
  832000          298    0.1235782 5.3925019e-08 
  833000          298   0.11227441 5.3701622e-08 
  834000          298   0.12146646 5.3486438e-08 
  835000          298   0.13008845 5.3286424e-08 
  836000          298   0.12466019 5.308542e-08 
  837000          298   0.11685124 5.2872755e-08 
  838000          298    0.1126754 5.2652997e-08 
  839000          298   0.12900344 5.2451765e-08 
  840000          298    0.1417969 5.2272239e-08 
  841000          298      0.14823 5.2103761e-08 
  842000          298   0.16789635 5.1957509e-08 
  843000          298    0.1985602 5.1854186e-08 
  844000          298   0.17185004 5.1733697e-08 
  845000          298   0.16983004 5.160052e-08 
  846000          298   0.19474613 5.1492126e-08 
  847000          298   0.17948116 5.1384351e-08 
  848000          298   0.15365933 5.1237126e-08 
  849000          298   0.14696817 5.1074941e-08 
  850000          298   0.15141815 5.0916251e-08 
  851000          298   0.17335513 5.0781573e-08 
  852000          298   0.19734476 5.068463e-08 
  853000          298   0.17270028 5.0567178e-08 
  854000          298   0.17595135 5.0446148e-08 
  855000          298   0.20342608 5.0349475e-08 
  856000          298   0.18573672 5.0251571e-08 
  857000          298   0.20414702 5.016232e-08 
  858000          298   0.18106165 5.0062827e-08 
  859000          298   0.18250929 4.9952517e-08 
  860000          298   0.17995197 4.9837395e-08 
  861000          298   0.19835734 4.974659e-08 
  862000          298   0.17036141 4.9630752e-08 
  863000          298   0.15444304 4.9487677e-08 
  864000          298   0.16430308 4.9350039e-08 
  865000          298   0.18955294 4.9244296e-08 
  866000          298   0.18890849 4.9149576e-08 
  867000          298   0.17809753 4.9035208e-08 
  868000          298   0.18038525 4.8926613e-08 
  869000          298   0.20674742 4.884029e-08 
  870000          298     0.202455 4.8763063e-08 
  871000          298    0.1757227 4.8652826e-08 
  872000          298   0.16676896 4.852749e-08 
  873000          298   0.17963889 4.8415228e-08 
  874000          298   0.20376375 4.8334544e-08 
  875000          298    0.1867539 4.8244856e-08 
  876000          298   0.17763094 4.8137133e-08 
  877000          298   0.17610786 4.8022491e-08 
  878000          298   0.18848172 4.7923492e-08 
  879000          298   0.19402571 4.7835109e-08 
  880000          298   0.19878471 4.7752633e-08 
  881000          298   0.18744849 4.7660012e-08 
  882000          298   0.16619307 4.7545742e-08 
  883000          298   0.15491756 4.7409814e-08 
  884000          298   0.17217448 4.7288514e-08 
  885000          298   0.19872827 4.7202472e-08 
  886000          298   0.18415271 4.710703e-08 
  887000          298   0.19676584 4.7024972e-08 
  888000          298   0.17224413 4.6915327e-08 
  889000          298   0.17310662 4.6802031e-08 
  890000          298    0.1964907 4.6714014e-08 
  891000          298   0.16975164 4.6608065e-08 
  892000          298   0.15099619 4.6473905e-08 
  893000          298   0.15348402 4.6336902e-08 
  894000          298   0.17661641 4.6222569e-08 
  895000          298   0.19576361 4.6138725e-08 
  896000          298    0.1708022 4.6034199e-08 
  897000          298   0.17140263 4.5923336e-08 
  898000          298   0.20045931 4.5839288e-08 
  899000          298   0.17445708 4.5743241e-08 
  900000          298   0.16852711 4.563049e-08 
  901000          298   0.18258411 4.5528349e-08 
  902000          298   0.19478562 4.5447616e-08 
  903000          298   0.19042123 4.535902e-08 
  904000          298   0.19913073 4.5287306e-08 
  905000          298   0.18833295 4.5196817e-08 
  906000          298   0.19162119 4.5114729e-08 
  907000          298   0.16985097 4.5014117e-08 
  908000          298   0.15128549 4.4886036e-08 
  909000          298   0.15599582 4.4757958e-08 
  910000          298   0.18087512 4.4655252e-08 
  911000          298   0.19582614 4.4578447e-08 
  912000          298   0.19158301 4.4496153e-08 
  913000          298   0.19958387 4.4425974e-08 
  914000          298   0.18329272 4.4334101e-08 
  915000          298   0.19940481 4.425632e-08 
  916000          298     0.189471 4.4176547e-08 
  917000          298   0.18948488 4.4095401e-08 
  918000          298   0.18282542 4.4001774e-08 
  919000          298   0.18778886 4.3918508e-08 
  920000          298   0.20205264 4.3845479e-08 
  921000          298   0.19884621 4.3774635e-08 
  922000          298   0.19109556 4.3694962e-08 
  923000          298   0.19883473 4.3622732e-08 
  924000          298    0.1764656 4.3533223e-08 
  925000          298   0.16418029 4.3424744e-08 
  926000          298   0.17456488 4.3321256e-08 
  927000          298   0.19433162 4.3239209e-08 
  928000          298   0.19640337 4.316809e-08 
  929000          298   0.19513042 4.3092986e-08 
  930000          298   0.18196955 4.3009917e-08 
  931000          298   0.15780718 4.2900668e-08 
  932000          298   0.15487438 4.278096e-08 
  933000          298   0.17668136 4.2679463e-08 
  934000          298   0.19126237 4.2604116e-08 
  935000          298   0.16674901 4.2504987e-08 
  936000          298   0.16791368 4.239971e-08 
  937000          298   0.18385769 4.2312465e-08 
  938000          298   0.19988578 4.2241735e-08 
  939000          298   0.19678066 4.2173881e-08 
  940000          298   0.19129265 4.2101792e-08 
  941000          298   0.17904028 4.2016285e-08 
  942000          298   0.16436569 4.1913204e-08 
  943000          298   0.17607603 4.1816089e-08 
  944000          298   0.19431717 4.1742169e-08 
  945000          298    0.1658607 4.1648456e-08 
  946000          298   0.14824953 4.1530288e-08 
  947000          298   0.14328084 4.140454e-08 
  948000          298   0.13702761 4.1273435e-08 
  949000          298   0.11940059 4.1126632e-08 
  950000          298   0.11593362 4.0970281e-08 
  951000          298   0.12228892 4.0820762e-08 
  952000          298    0.1274212 4.0678863e-08 
  953000          298   0.12167647 4.0534114e-08 
  954000          298   0.11801837 4.0384329e-08 
  955000          298    0.1235224 4.023837e-08 
  956000          298   0.12628249 4.0098042e-08 
  957000          298     0.119926 3.9953431e-08 
  958000          298   0.11257526 3.9801133e-08 
  959000          298   0.12511915 3.9656438e-08 
  960000          298   0.14288034 3.9532651e-08 
  961000          298   0.16248241 3.9428268e-08 
  962000          298   0.19317718 3.9355572e-08 
  963000          298   0.18603596 3.9288868e-08 
  964000          298   0.19825911 3.9222724e-08 
  965000          298   0.18048792 3.9155915e-08 
  966000          298   0.17145246 3.9070441e-08 
  967000          298   0.18599469 3.8991818e-08 
  968000          298   0.18550686 3.8923273e-08 
  969000          298    0.2090441 3.8869547e-08 
  970000          298   0.20152959 3.881971e-08 
  971000          298   0.18692462 3.8748851e-08 
  972000          298   0.17372344 3.8671058e-08 
  973000          298   0.17026161 3.8582707e-08 
  974000          298   0.19575236 3.8512478e-08 
  975000          298   0.18333265 3.8448465e-08 
  976000          298   0.18782567 3.8377678e-08 
  977000          298   0.17579643 3.8302185e-08 
  978000          298   0.19915138 3.8240393e-08 
  979000          298   0.19876103 3.8185152e-08 
  980000          298   0.19042456 3.8120051e-08 
  981000          298   0.19713457 3.8062793e-08 
  982000          298   0.17349945 3.7984832e-08 
  983000          298   0.17511742 3.7905621e-08 
  984000          298   0.20199505 3.7845484e-08 
  985000          298   0.17312845 3.7773002e-08 
  986000          298   0.17227094 3.7691472e-08 
  987000          298    0.1975592 3.7627574e-08 
  988000          298    0.1762072 3.7559434e-08 
  989000          298   0.16987495 3.7477269e-08 
  990000          298   0.18621326 3.740387e-08 
  991000          298   0.19037642 3.734239e-08 
  992000          298   0.19612252 3.7284861e-08 
  993000          298    0.1994097 3.7232346e-08 
  994000          298   0.18861067 3.716932e-08 
  995000          298   0.18332535 3.7102834e-08 
  996000          298   0.20791288 3.705191e-08 
  997000          298   0.19808425 3.7003721e-08 
  998000          298   0.18948317 3.6939186e-08 
  999000          298   0.17145341 3.686584e-08 
 1000000          298   0.16406262 3.6778606e-08 
Loop time of 806.206 on 1 procs for 1000000 steps with 2233 atoms

Performance: 107.169 ns/day, 0.224 hours/ns, 1240.378 timesteps/s
100.0% CPU use with 1 MPI tasks x no OpenMP threads

MPI task timing breakdown:
Section |  min time  |  avg time  |  max time  |%varavg| %total
---------------------------------------------------------------
Pair    | 19.107     | 19.107     | 19.107     |   0.0 |  2.37
Bond    | 670.76     | 670.76     | 670.76     |   0.0 | 83.20
Neigh   | 28.222     | 28.222     | 28.222     |   0.0 |  3.50
Comm    | 58.238     | 58.238     | 58.238     |   0.0 |  7.22
Output  | 2.5911     | 2.5911     | 2.5911     |   0.0 |  0.32
Modify  | 9.0082     | 9.0082     | 9.0082     |   0.0 |  1.12
Other   |            | 18.28      |            |       |  2.27

Nlocal:    2233 ave 2233 max 2233 min
Histogram: 1 0 0 0 0 0 0 0 0 0
Nghost:    15409 ave 15409 max 15409 min
Histogram: 1 0 0 0 0 0 0 0 0 0
Neighs:    1223 ave 1223 max 1223 min
Histogram: 1 0 0 0 0 0 0 0 0 0

Total # of neighbors = 1223
Ave neighs/atom = 0.547694
Ave special neighs/atom = 6.38424
Neighbor list builds = 503
Dangerous builds = 0
unfix           1
unfix           2
undump          Pn_Ni-PyC-NH2_with_Ar_xyzmov


Total wall time: 0:13:26
