
# --------------------------------- Initialization -------------------------------------- #
units           real
atom_style      full
boundary        p p p

pair_style      lj/cut 14.000
bond_style      harmonic
angle_style     cosine/periodic
dihedral_style  harmonic
improper_style  fourier

special_bonds   lj/coul 0.0 0.0 1.0
pair_modify     tail no mix arithmetic
#dielectric      1.0
box tilt        large
read_data       data.NiPyC2_experiment_with_Kr
  triclinic box = (0 0 0) to (31.264 37.5702 30.8228) with tilt (0 -0.682783 0)
  1 by 1 by 1 MPI processor grid
  reading atoms ...
  2431 atoms
  scanning bonds ...
  6 = max bonds/atom
  scanning angles ...
  15 = max angles/atom
  scanning dihedrals ...
  8 = max dihedrals/atom
  scanning impropers ...
  3 = max impropers/atom
  reading bonds ...
  2880 bonds
  reading angles ...
  5490 angles
  reading dihedrals ...
  5760 dihedrals
  reading impropers ...
  3780 impropers
  6 = max # of 1-2 neighbors
  9 = max # of 1-3 neighbors
  12 = max # of special neighbors
  special bonds CPU = 0.000702691 secs
  read_data CPU = 0.0341846 secs

#### Atom Groupings ####
group           kr       id   2431   # 55
1 atoms in group kr
group           fram     id   1:2430 # 1:54 56:2431
2430 atoms in group fram
#### END Atom Groupings ####

###
# Speed up Calculations by exluding framework-framework interactions
#   since we are keeping the framework rigid and stationary
#
# neigh_modify keyword values ...
# keyword = exclude
# values  = group group1-ID group2-ID
#
# group1-ID, group2-ID = exclude if one atom is in 1st group, other in 2nd
###
neigh_modify exclude group fram fram

# ----------------------------- Variables ---------------------- #
dump            NiPyC2_experiment_with_Kr_xyzmov all xyz 1000 NiPyC2_experiment_with_Kr_mov.xyz
dump_modify     NiPyC2_experiment_with_Kr_xyzmov element Ni O N C H Kr
variable        dt         equal 1.00
variable        tdamp      equal 100*${dt}
variable        tdamp      equal 100*1
variable        eqtemp     equal 298.00

# ------------------------------ Equilibriation -------------------------------------------- #
# we do not need to perform equilibriation since we are using a rigid framework
# and the (single) adsorbate has already been inserted into the material via GCMC
# which already included an equilibriation phase.


# --------------------- Production (data gathering) --------------------------------------- #
# A simple way to hold atoms stationary is to not include those atoms in your time integration.
#reset_timestep  0

fix             3 kr nvt temp ${eqtemp} ${eqtemp} ${tdamp}
fix             3 kr nvt temp 298 ${eqtemp} ${tdamp}
fix             3 kr nvt temp 298 298 ${tdamp}
fix             3 kr nvt temp 298 298 100

###
#  mean-squared disp of grp 1
#
# A vector of four quantities is calculated by this compute:
# The first 3 elements of the vector are the squared dx,dy,dz displacements, summed and averaged over atoms in the group.
# The fourth element is the total squared displacement, i.e. (dx*dx + dy*dy + dz*dz),
#  summed and averaged over atoms in the group.
#
# The slope of the MSD versus time is proportional to the diffusion coefficient.
# MSD values can be accumulated in a vector via the fix vector command,
#   and a line fit to the vector to compute its slope via the variable slope function,
#   and thus extract D.
#
# fix ID group-ID vector Nevery value1 value2 ...
#
# c_ID[I] = Ith component of global vector calculated by a compute with ID
# f_ID = global scalar calculated by a fix with ID
# v_name = value calculated by an equal-style variable with name
#
# variable name style args...
#
# The slope() function uses linear regression to fit a line to the set of points,
#   equally spaced by 1 in their x coordinate: (1,V1), (2,V2), …, (N,VN),
#   where the Vi are the values in the global vector of length N.
#   The returned value is the slope of the line.
#   If the line has a single point or is vertical, it returns 1.0e20.
###
compute         msd all msd com yes
fix             5 kr vector 500 c_msd[4]
variable        fitslope equal slope(f_5)/6/(500*dt) # why dividing slope?

thermo_style    custom step v_eqtemp c_msd[4] v_fitslope # prints this info to log file

thermo          1000
run             1000000
Neighbor list info ...
  update every 1 steps, delay 10 steps, check yes
  max neighbors/atom: 2000, page size: 100000
  master list distance cutoff = 16
  ghost atom cutoff = 16
  binsize = 8, bins = 4 5 4
  1 neighbor lists, perpetual/occasional/extra = 1 0 0
  (1) pair lj/cut, perpetual
      attributes: half, newton on
      pair build: half/bin/newton/tri
      stencil: half/bin/3d/newton/tri
      bin: standard
WARNING: Inconsistent image flags (src/domain.cpp:785)
Per MPI rank memory allocation (min/avg/max) = 31.83 | 31.83 | 31.83 Mbytes
Step v_eqtemp c_msd[4] v_fitslope 
       0          298 7.7464778e-30 3.3333333e+16 
    1000          298 0.00091983172 1.5330529e-07 
    2000          298 0.0023368518 2.2513867e-07 
    3000          298 0.0010645567 9.0673927e-08 
    4000          298 0.00049845426 2.4974622e-08 
    5000          298 0.00043731817 -5.6965368e-09 
    6000          298 0.0015924326  2.56657e-09 
    7000          298 0.00064387813 1.0066434e-09 
    8000          298 0.00031716689 -7.3820653e-09 
    9000          298 0.00077483282 -9.4236778e-09 
   10000          298 0.0018324633 -2.3621393e-09 
   11000          298 0.0014522107 3.8415533e-09 
   12000          298 0.00013050441 -8.3267625e-10 
   13000          298 0.00014692939 -4.9271577e-09 
   14000          298 0.0022215453 -1.2175145e-09 
   15000          298 0.0014085936 2.846671e-09 
   16000          298 0.00032570718  5.04909e-10 
   17000          298 0.0011484978 -3.4384452e-11 
   18000          298 0.0022140621 3.5287535e-09 
   19000          298 0.00023320613 1.773976e-09 
   20000          298 0.00029580501 -1.5009131e-10 
   21000          298 0.00075487769 -9.7249198e-10 
   22000          298 0.0023451111 1.5204959e-09 
   23000          298 0.00023626873 4.7958947e-10 
   24000          298 5.0073736e-05 -1.0401412e-09 
   25000          298 0.0016329057 -7.2381253e-10 
   26000          298 0.0021078136 9.9501146e-10 
   27000          298 0.0010723718 1.0954886e-09 
   28000          298 2.1768933e-05 -4.8039058e-11 
   29000          298 0.00065804873 -6.5365974e-10 
   30000          298 0.0011720927 -6.9659205e-10 
   31000          298 0.00057881287 -8.6724945e-10 
   32000          298 0.00027817816 -1.2124126e-09 
   33000          298 0.0006586316 -1.4632619e-09 
   34000          298 0.0022873727 -6.4576726e-10 
   35000          298 0.0013827482 7.5157077e-12 
   36000          298 0.00037713359 -2.4727698e-10 
   37000          298 0.00044621686 -6.8024168e-10 
   38000          298 0.00079244384 -8.1027831e-10 
   39000          298 0.00042360498 -1.0559305e-09 
   40000          298 0.00012474961 -1.3825941e-09 
   41000          298 0.00012641972 -1.6861592e-09 
   42000          298 0.00082996699 -1.7490659e-09 
   43000          298 0.0016053873 -1.0931631e-09 
   44000          298  0.000116737 -1.3090426e-09 
   45000          298 0.0002908996 -1.5730391e-09 
   46000          298 0.0019567766 -1.2629237e-09 
   47000          298 0.0010211314 -7.8707873e-10 
   48000          298 0.00021256691 -9.504627e-10 
   49000          298 0.00052780249 -1.0869852e-09 
   50000          298 0.0012452418 -9.7671612e-10 
   51000          298 0.00039023766 -1.0182808e-09 
   52000          298 0.00050600026 -1.1495409e-09 
   53000          298 0.0012582354 -1.0048488e-09 
   54000          298 0.0028412838 -3.8876477e-10 
   55000          298 0.00087910602 -2.8152339e-10 
   56000          298 6.3916686e-05 -5.0982952e-10 
   57000          298 0.0010231347 -5.506861e-10 
   58000          298  0.001921076 -2.3712441e-10 
   59000          298 0.00039511745 -2.5070726e-10 
   60000          298 0.00026031911 -4.4043958e-10 
   61000          298 0.0015165778 -3.5551996e-10 
   62000          298 0.0013831559 -5.358032e-11 
   63000          298 0.00028244667 -1.8593849e-10 
   64000          298 0.0001662144 -3.3726327e-10 
   65000          298 0.00054842061 -4.5110856e-10 
   66000          298 0.0012748163 -3.9198028e-10 
   67000          298 0.00054134543 -4.2598029e-10 
   68000          298 0.00067300532 -4.8520684e-10 
   69000          298 2.5875908e-05 -6.2065813e-10 
   70000          298 0.00071510922 -6.6176029e-10 
   71000          298 0.00051988925 -6.9643337e-10 
   72000          298 0.00067003518 -7.3241954e-10 
   73000          298 0.0019117468 -5.6951226e-10 
   74000          298   0.00246574 -3.1700049e-10 
   75000          298 0.0017782678 -1.0598113e-10 
   76000          298 0.00097239035 -2.0226967e-11 
   77000          298 0.0010255035 -2.1627784e-11 
   78000          298 0.0010667343 -2.0155307e-13 
   79000          298   0.00203906 1.5051302e-10 
   80000          298 0.0020721974 3.0560521e-10 
   81000          298 0.0005463833 3.0700207e-10 
   82000          298 0.00041397982 2.0635974e-10 
   83000          298 0.0016500305 2.3645854e-10 
   84000          298 0.0018259838 3.3606869e-10 
   85000          298  0.001026715 3.8772953e-10 
   86000          298 0.00047618576 3.2270602e-10 
   87000          298 0.00086989248 2.7361758e-10 
   88000          298 0.00074196291 2.3708125e-10 
   89000          298 0.00040410798 1.6175567e-10 
   90000          298 0.00019319597 8.2387856e-11 
   91000          298 0.00036717277 2.1364269e-11 
   92000          298 0.00070434974 -2.0913111e-11 
   93000          298 0.0004966777 -7.075206e-11 
   94000          298 0.00035988084 -1.4408325e-10 
   95000          298 0.00034716549 -1.9026884e-10 
   96000          298 0.0011174199 -1.8022658e-10 
   97000          298 0.00069625021 -1.7500552e-10 
   98000          298   0.00033898 -2.1280446e-10 
   99000          298 0.00048710817 -2.4717795e-10 
  100000          298 0.00050835773 -2.8957201e-10 
  101000          298 0.0011690238 -2.5651133e-10 
  102000          298 0.0003421504 -2.9193502e-10 
  103000          298 0.00040392238 -3.1553518e-10 
  104000          298 0.00041963939 -3.5085137e-10 
  105000          298 0.0014305898 -3.2550667e-10 
  106000          298 0.00079701764 -2.960534e-10 
  107000          298 0.00027039168 -3.3306257e-10 
  108000          298 0.00083982092 -3.5175983e-10 
  109000          298 0.0013459249 -3.1337806e-10 
  110000          298 0.0018482102 -2.1736898e-10 
  111000          298 0.0010781281 -1.9779681e-10 
  112000          298  0.002394433 -1.2147663e-10 
  113000          298 0.00067941152 -8.617833e-11 
  114000          298 2.8012649e-05 -1.4673073e-10 
  115000          298 0.00087156147 -1.6417829e-10 
  116000          298    0.0024313 -8.5593924e-11 
  117000          298 0.0006198129 -7.3326224e-11 
  118000          298  0.000240763 -1.1262529e-10 
  119000          298 0.00058238284 -1.3591987e-10 
  120000          298 0.00079098261 -1.3240216e-10 
  121000          298 0.00047219378 -1.531974e-10 
  122000          298 0.00073342792 -1.7157009e-10 
  123000          298 0.0021649422 -1.2390321e-10 
  124000          298 0.0010419658 -9.0223377e-11 
  125000          298 0.00019829151 -1.180912e-10 
  126000          298 0.00030821313 -1.5886479e-10 
  127000          298 0.0013734204 -1.3947223e-10 
  128000          298 0.0022125621 -6.4533176e-11 
  129000          298 0.00010087261 -9.2015956e-11 
  130000          298 0.00025241289 -1.3390562e-10 
  131000          298 0.0013769574 -1.2855582e-10 
  132000          298 0.0020324705 -6.4320554e-11 
  133000          298 0.0012025457 -3.9507227e-11 
  134000          298 5.400292e-05 -7.8425947e-11 
  135000          298 0.00048495502 -1.0298588e-10 
  136000          298 0.00088114073 -1.0491096e-10 
  137000          298 0.0014365634 -8.7288184e-11 
  138000          298 0.0022031568 -3.4855784e-11 
  139000          298 0.0014841058 1.4173711e-11 
  140000          298 0.00015637775 -8.8356162e-12 
  141000          298 0.00024744062 -4.5520246e-11 
  142000          298 0.0014177483 -3.8298692e-11 
  143000          298 0.00041127385 -4.3979909e-11 
  144000          298 0.00014424961 -8.0005934e-11 
  145000          298 0.00072001074 -9.3798943e-11 
  146000          298 0.0026513437 -3.4036047e-11 
  147000          298 0.00077029648 -2.6717185e-11 
  148000          298 0.00070451957 -3.5262748e-11 
  149000          298 0.0015198165 -1.6851335e-11 
  150000          298  0.001165998 1.5181709e-11 
  151000          298 0.00072480053 1.0911968e-11 
  152000          298 0.00059398062 -1.385774e-12 
  153000          298 0.0022119412 2.9509174e-11 
  154000          298 0.0010173326 4.9771914e-11 
  155000          298 0.00098275868 4.8822868e-11 
  156000          298 0.0017539828 7.0981775e-11 
  157000          298 0.0011214372 1.0767643e-10 
  158000          298 0.00047571741 8.8813155e-11 
  159000          298 0.00057754746 7.3239197e-11 
  160000          298 0.0014515814 8.9349617e-11 
  161000          298 0.0018677822 1.1878058e-10 
  162000          298 0.0011656228 1.4464648e-10 
  163000          298 0.00059605111 1.374673e-10 
  164000          298   0.00059092 1.2580084e-10 
  165000          298 0.0012783546 1.2431601e-10 
  166000          298 0.0018933485 1.5542685e-10 
  167000          298 0.0017106372 1.8493255e-10 
  168000          298 0.00046147935 1.7609397e-10 
  169000          298 0.00014993282 1.4455968e-10 
  170000          298 0.00045582111 1.1880153e-10 
  171000          298 0.0019804519 1.4031215e-10 
  172000          298 0.0017564146 1.7232868e-10 
  173000          298 0.0016333095 1.9082544e-10 
  174000          298   0.00124904 1.948011e-10 
  175000          298 0.00098405572 1.9784249e-10 
  176000          298 0.00094244457 2.010406e-10 
  177000          298 0.00045254125 1.8262354e-10 
  178000          298 0.00016165774 1.5644305e-10 
  179000          298 0.0015200732 1.5996218e-10 
  180000          298 0.0021116014 1.9239489e-10 
  181000          298 0.00075802214 1.9382172e-10 
  182000          298 0.00010229153 1.658033e-10 
  183000          298 0.0007183342 1.4935275e-10 
  184000          298 0.0014344444 1.617506e-10 
  185000          298 6.5864639e-05 1.4061871e-10 
  186000          298 0.00052252293 1.2205784e-10 
  187000          298 0.00080332295 1.1365013e-10 
  188000          298 0.0019560511 1.3634668e-10 
  189000          298 0.00064103553 1.3312472e-10 
  190000          298 0.00019367095 1.1618571e-10 
  191000          298 0.00048439228 9.7381411e-11 
  192000          298  0.001267164 1.013153e-10 
  193000          298 0.00034514029 8.7414146e-11 
  194000          298 0.00035949505 6.8453406e-11 
  195000          298 0.0022519124 8.5572018e-11 
  196000          298 0.0013133418 1.0921838e-10 
  197000          298 0.00074610225 1.0520652e-10 
  198000          298 0.00065167512 9.8480137e-11 
  199000          298 0.00070492921 8.8923805e-11 
  200000          298 0.0015270107 9.9585851e-11 
  201000          298 0.00010713526 8.3428188e-11 
  202000          298 0.00030793892 6.5380018e-11 
  203000          298 0.0017456645 7.2206158e-11 
  204000          298 0.0013191484 9.5725844e-11 
  205000          298 0.00025405208 8.1661523e-11 
  206000          298 0.00044507328 6.9327262e-11 
  207000          298 0.0011363957 7.0605587e-11 
  208000          298 0.0012507594 7.1338414e-11 
  209000          298 0.0023444334 9.4908065e-11 
  210000          298 0.00089542585 1.0377552e-10 
  211000          298 0.00041774464 9.2885487e-11 
  212000          298 0.0012657213 9.0520004e-11 
  213000          298 0.0021194314 1.1303853e-10 
  214000          298  0.001441039 1.2888631e-10 
  215000          298  0.000341076 1.1806303e-10 
  216000          298 0.00027500966 9.9820595e-11 
  217000          298 0.00051381136 8.7818126e-11 
  218000          298 0.00070815706 8.4306512e-11 
  219000          298 6.6246087e-05 6.8477592e-11 
  220000          298 0.00043486216 5.685008e-11 
  221000          298 0.00028511977 4.0551783e-11 
  222000          298 0.00087360144 3.731566e-11 
  223000          298 0.00023274103 2.6064768e-11 
  224000          298 0.00013763587 1.3262071e-11 
  225000          298 0.0005746514 3.8533485e-12 
  226000          298 0.00080738932 -8.1784467e-13 
  227000          298 0.00046581531 -1.0443532e-11 
  228000          298 0.00039347463 -2.1586516e-11 
  229000          298 1.2439699e-05 -3.5039953e-11 
  230000          298 0.00066184117 -4.3421871e-11 
  231000          298 0.0010717869 -4.4885728e-11 
  232000          298 0.0029022875 -1.4501171e-11 
  233000          298 0.0012087405 -1.2121771e-12 
  234000          298 0.0001281753 -1.3405419e-11 
  235000          298 0.0011762453 -1.5160543e-11 
  236000          298 0.0016236588 -2.2432138e-12 
  237000          298 0.00035282422 -7.0329587e-12 
  238000          298 0.00027280836 -1.9392693e-11 
  239000          298 0.0021838446 -8.4218625e-12 
  240000          298 0.0014856198 4.4224754e-12 
  241000          298 0.0013150001 1.0087919e-11 
  242000          298 0.0012667887 1.3864614e-11 
  243000          298 0.0018126948 2.7949426e-11 
  244000          298 0.0015821427 4.339082e-11 
  245000          298 0.0006942028 4.2307118e-11 
  246000          298 0.00066691275 3.752341e-11 
  247000          298 0.0012412803 3.8863404e-11 
  248000          298 0.0016840063 5.1199696e-11 
  249000          298  0.002749655 7.7629963e-11 
  250000          298 0.0014227486 8.9912765e-11 
  251000          298 0.0010623844 9.5126571e-11 
  252000          298 0.0013025574 9.8893398e-11 
  253000          298 0.00042788994 9.2148975e-11 
  254000          298 0.0002486307 8.0383838e-11 
  255000          298 0.0011017587 7.7509607e-11 
  256000          298 0.0016852529 9.4573104e-11 
  257000          298 0.00074112212 9.1266896e-11 
  258000          298 6.3339657e-05 7.826515e-11 
  259000          298 0.0012359405 7.5373731e-11 
  260000          298 0.0011307942 8.2926455e-11 
  261000          298 0.00015163707 7.1600745e-11 
  262000          298 0.00036073358 6.1258492e-11 
  263000          298 0.0010248534 6.0522512e-11 
  264000          298 0.00049946023 5.6755284e-11 
  265000          298 0.00025172269 4.7399646e-11 
  266000          298 0.0002082033 3.8885217e-11 
  267000          298 0.00054097439 3.0411915e-11 
  268000          298 0.0011656361 3.2418881e-11 
  269000          298 0.00034428455 2.5510214e-11 
  270000          298 0.00043193439 1.6925318e-11 
  271000          298 0.0019892197 2.5592593e-11 
  272000          298 0.0019300559 4.275297e-11 
  273000          298 0.00058471347 4.1190209e-11 
  274000          298 0.00017261084 3.1159848e-11 
  275000          298 0.0010444095 2.9361173e-11 
  276000          298 0.00032459908 2.5059727e-11 
  277000          298 0.00015993365 1.4464182e-11 
  278000          298 0.00062178993 7.1717469e-12 
  279000          298 0.0010402631 7.2561705e-12 
  280000          298 0.00040327137 1.1822247e-12 
  281000          298 0.00017081019 -8.3476787e-12 
  282000          298 0.00033800843 -1.4351316e-11 
  283000          298 0.0007208948 -1.7590155e-11 
  284000          298 0.00073535528 -2.0483215e-11 
  285000          298 0.0006117519 -2.5438098e-11 
  286000          298 0.00016157645 -3.3335768e-11 
  287000          298 0.00068766549 -3.6659288e-11 
  288000          298 0.00065113229 -3.8001002e-11 
  289000          298 0.00022577825 -4.4138146e-11 
  290000          298 0.00067507131 -4.9500106e-11 
  291000          298 0.0014549085 -4.5624016e-11 
  292000          298 0.0013049771 -3.3841015e-11 
  293000          298 0.00028893325 -3.7840913e-11 
  294000          298 0.0001236265 -4.6365975e-11 
  295000          298 0.0015144235 -4.3359284e-11 
  296000          298 0.00066520301 -4.1291591e-11 
  297000          298 0.00017724144 -4.9515753e-11 
  298000          298 0.00090755699 -5.2329972e-11 
  299000          298 0.0024635098 -4.0542051e-11 
  300000          298 0.0011274488 -3.5831277e-11 
  301000          298 6.8478634e-05 -4.2512069e-11 
  302000          298 0.00051620245 -4.8308937e-11 
  303000          298 0.0014244532 -4.4927216e-11 
  304000          298 0.00079865388 -4.2151816e-11 
  305000          298 0.00041440781 -4.6828935e-11 
  306000          298 0.00060865548 -4.9588098e-11 
  307000          298 0.00050737986 -5.4571149e-11 
  308000          298 0.0014324418 -4.9366688e-11 
  309000          298 0.0012123245 -4.5824014e-11 
  310000          298 0.0013493323 -3.888522e-11 
  311000          298 0.0023403441 -2.6261754e-11 
  312000          298 0.00082181694 -2.1923206e-11 
  313000          298 0.0003453806 -2.7696988e-11 
  314000          298 0.00097322956 -2.9906691e-11 
  315000          298 0.0014855771 -2.3374803e-11 
  316000          298 0.0022314756 -1.2473502e-11 
  317000          298 0.0011788109 -8.8412491e-12 
  318000          298 0.00093925607 -9.8212798e-12 
  319000          298 0.00035061092 -1.4145794e-11 
  320000          298 0.00017150903 -1.9304689e-11 
  321000          298 0.00058341931 -2.4773133e-11 
  322000          298 0.0010304828 -2.4024521e-11 
  323000          298 0.0021227383 -1.5103652e-11 
  324000          298 0.00085652214 -1.2198423e-11 
  325000          298 0.00071239772 -1.340717e-11 
  326000          298 0.0013015426 -9.6332827e-12 
  327000          298 0.0011710764 -6.8285874e-12 
  328000          298 0.0010340796 -2.9483313e-12 
  329000          298 0.0011504692 -9.6101654e-13 
  330000          298 0.0019058413 8.4573345e-12 
  331000          298 0.0012355165 1.2437644e-11 
  332000          298 0.0002774739 8.8956259e-12 
  333000          298 0.00013156131 1.756889e-12 
  334000          298 0.0017117531 4.5863049e-12 
  335000          298  0.001055789 9.2192851e-12 
  336000          298 9.1030808e-05 2.9358532e-12 
  337000          298 0.00053517329 -1.2450921e-12 
  338000          298 0.00016164529 -7.5428537e-12 
  339000          298 0.0014449786 -6.5437957e-12 
  340000          298  0.001060973 -1.5702693e-12 
  341000          298 0.00015989021 -7.5484218e-12 
  342000          298 0.00041362088 -1.311511e-11 
  343000          298  0.001205642 -1.135313e-11 
  344000          298  0.002147368 -2.4899479e-12 
  345000          298 0.0012727232 3.4623922e-12 
  346000          298 0.00050777575 5.697063e-13 
  347000          298 0.00041124705 -2.762998e-12 
  348000          298 0.0010532613 -2.2863594e-12 
  349000          298 0.0016652309 4.5106377e-12 
  350000          298 0.0016221682 1.0826408e-11 
  351000          298 0.00071856744 1.2196931e-11 
  352000          298 0.00045424508 9.5923262e-12 
  353000          298 0.00058940113 6.9961125e-12 
  354000          298 0.00014997314 2.502802e-12 
  355000          298 0.00089708731 -9.3627336e-14 
  356000          298 0.00085056337 8.9382277e-13 
  357000          298 0.00018704712 -3.524332e-12 
  358000          298 0.0006879876 -6.9911172e-12 
  359000          298  0.001846901 -3.5039593e-12 
  360000          298 0.00093792488 1.2028589e-12 
  361000          298 0.00028877499 -2.0523195e-12 
  362000          298 0.00049039581 -6.2025685e-12 
  363000          298 0.0014724884 -4.3016379e-12 
  364000          298 0.0005885543 -3.9063864e-12 
  365000          298 0.00017335017 -9.4161038e-12 
  366000          298  0.001471785 -8.9260526e-12 
  367000          298 0.0016080039 -1.5216958e-12 
  368000          298 0.0011714316 3.0508143e-13 
  369000          298 0.0014537533 3.8520888e-12 
  370000          298  0.002046766 1.2040582e-11 
  371000          298 0.00050299605 1.1254788e-11 
  372000          298 0.00019865654 5.6892934e-12 
  373000          298 0.00078099355 2.3501194e-12 
  374000          298 0.0012750264 6.6195011e-12 
  375000          298 0.00087396651 5.7538902e-12 
  376000          298 0.0008973185 5.3269063e-12 
  377000          298  0.001655694 9.4914427e-12 
  378000          298 0.00020319004 6.6518659e-12 
  379000          298 0.00038139304 2.356358e-12 
  380000          298 0.0011477251 3.1590261e-12 
  381000          298 0.0017844878 1.0142059e-11 
  382000          298 0.0006138378 1.046079e-11 
  383000          298 0.00017822021 5.5280583e-12 
  384000          298 0.0013361023 6.2202586e-12 
  385000          298 0.00098833771 8.4510059e-12 
  386000          298 0.00028039722 4.2372113e-12 
  387000          298 0.0012891626 4.5332457e-12 
  388000          298  0.001672592 7.4509769e-12 
  389000          298  0.002300509 1.5656394e-11 
  390000          298 0.00046679503 1.6279221e-11 
  391000          298 0.00015489041 1.0838418e-11 
  392000          298 0.0020257376 1.3907992e-11 
  393000          298  0.002036086 2.2017134e-11 
  394000          298 0.0013047597 2.4296293e-11 
  395000          298 0.00030738621 2.2012083e-11 
  396000          298  0.000503969 1.7981008e-11 
  397000          298 0.00026714471 1.4027583e-11 
  398000          298 0.00076339964 1.2588482e-11 
  399000          298  0.002409185 1.8705388e-11 
  400000          298 0.00081799785 2.1413665e-11 
  401000          298 0.00024577626 1.772465e-11 
  402000          298 0.0015871319 1.8596291e-11 
  403000          298 0.0022853035 2.708111e-11 
  404000          298 0.0019671859 3.326778e-11 
  405000          298 0.0005427608 3.1637972e-11 
  406000          298 0.0013132184 3.177889e-11 
  407000          298 0.0028097104 4.0892939e-11 
  408000          298 0.00098370224 4.4118528e-11 
  409000          298 6.2926381e-05 3.8940095e-11 
  410000          298 0.00080256754 3.6407827e-11 
  411000          298 0.0024825195 4.3993718e-11 
  412000          298 0.00047228115 4.2145597e-11 
  413000          298 0.00020382917 3.7231853e-11 
  414000          298 0.0015932821 3.8562669e-11 
  415000          298 0.00075096438 3.9710065e-11 
  416000          298 0.00039579709 3.5792535e-11 
  417000          298 0.00062495542  3.29068e-11 
  418000          298 0.0010753849 3.264281e-11 
  419000          298 0.0011722566 3.3364279e-11 
  420000          298 0.0023422958 3.9065313e-11 
  421000          298 0.00028259108 3.7712179e-11 
  422000          298 6.6093888e-05 3.2409173e-11 
  423000          298 0.0013601113 3.2300801e-11 
  424000          298 0.0018312673 4.0062688e-11 
  425000          298 0.00030533881 3.7781464e-11 
  426000          298 0.00018349499 3.316406e-11 
  427000          298 0.00066587042 3.0695553e-11 
  428000          298  0.002544093 3.7120126e-11 
  429000          298 0.00021641187 3.4964482e-11 
  430000          298 0.00018735525 3.0404637e-11 
  431000          298 0.0019613747 3.2146062e-11 
  432000          298 0.0015364332 3.7804854e-11 
  433000          298 0.00022661718 3.4956737e-11 
  434000          298 0.00033201054 3.093186e-11 
  435000          298 0.00049663005 2.7638212e-11 
  436000          298 0.0017972807 2.9313968e-11 
  437000          298 0.0014255549 3.2677275e-11 
  438000          298 0.0011871992 3.3694047e-11 
  439000          298 0.0017125224 3.593443e-11 
  440000          298 0.0012480153 4.0285065e-11 
  441000          298 1.891628e-05 3.5909456e-11 
  442000          298 0.00042524105 3.234788e-11 
  443000          298 0.0015842174 3.3854641e-11 
  444000          298 0.0014033306 3.8047453e-11 
  445000          298 0.00049963584 3.7532811e-11 
  446000          298 0.00012263451 3.314843e-11 
  447000          298 0.0010841767 3.210993e-11 
  448000          298  0.002606187 3.8681342e-11 
  449000          298 0.00027514036 3.6874876e-11 
  450000          298 0.00026788916 3.3001451e-11 
  451000          298 0.00094087485 3.1350441e-11 
  452000          298 0.0023418244 3.6599314e-11 
  453000          298 0.00086242323 3.6671232e-11 
  454000          298 0.00012909938 3.3794196e-11 
  455000          298 0.00046364168 3.0713247e-11 
  456000          298 0.00055368984 2.8289765e-11 
  457000          298 0.0002950412 2.4806807e-11 
  458000          298 0.00042914618 2.268658e-11 
  459000          298 0.00074967323 2.1950863e-11 
  460000          298  0.001867314 2.4033565e-11 
  461000          298 0.0014238711 2.7425895e-11 
  462000          298  0.001368371 2.9644668e-11 
  463000          298  0.001115629 3.057507e-11 
  464000          298 0.0015090476 3.3750637e-11 
  465000          298 0.0021503861 3.8138562e-11 
  466000          298 0.00048345904   3.7695e-11 
  467000          298 0.00014023177 3.4064943e-11 
  468000          298 0.0006545679 3.2064988e-11 
  469000          298 0.00056502738 2.9866188e-11 
  470000          298 0.00034933881 2.6627465e-11 
  471000          298 0.00015364803 2.3151714e-11 
  472000          298 0.00035579667 2.0832534e-11 
  473000          298 0.00029341272 1.8432124e-11 
  474000          298 0.00032679858 1.5026872e-11 
  475000          298 0.00057169595 1.3452654e-11 
  476000          298  0.001869702 1.6074921e-11 
  477000          298 0.0017819789 2.1282023e-11 
  478000          298 7.4100464e-05 1.8570962e-11 
  479000          298 0.00026970525 1.5106726e-11 
  480000          298 0.0018082833 1.6354393e-11 
  481000          298 0.0014065942 2.0493646e-11 
  482000          298 0.00074311587 1.9459666e-11 
  483000          298 0.00027831839 1.6855336e-11 
  484000          298 0.00036011994 1.4570243e-11 
  485000          298 0.0011607336 1.4673508e-11 
  486000          298 0.0019282006 1.7860981e-11 
  487000          298 0.0016519786 2.1121568e-11 
  488000          298 0.0016249041 2.3370444e-11 
  489000          298 0.00088285514 2.3706931e-11 
  490000          298 0.00036032537 2.2126279e-11 
  491000          298 0.00053003231 2.0208225e-11 
  492000          298 0.00038657763 1.7832773e-11 
  493000          298 0.00026540582 1.4520848e-11 
  494000          298 0.0011764924 1.5177427e-11 
  495000          298 0.0020892463 1.9337783e-11 
  496000          298 0.00052536143 1.9447757e-11 
  497000          298 6.7428727e-05 1.617397e-11 
  498000          298 0.00078977062 1.4178801e-11 
  499000          298  0.002381902 1.9257283e-11 
  500000          298 0.00096765741 2.0517275e-11 
  501000          298 0.0004778644 1.8451946e-11 
  502000          298 0.0001301325 1.5518203e-11 
  503000          298 0.00050338892 1.3601016e-11 
  504000          298 0.00083095378 1.3338345e-11 
  505000          298 0.00012662897 1.1099134e-11 
  506000          298 0.00061303977 9.0845972e-12 
  507000          298 0.00068251082 7.7014569e-12 
  508000          298 0.0017687624 9.7587228e-12 
  509000          298 0.0014975067 1.337589e-11 
  510000          298 0.0012077297 1.4570801e-11 
  511000          298 0.00036309663 1.3126892e-11 
  512000          298 0.00022400123 1.0045444e-11 
  513000          298 0.0010621842 9.1348532e-12 
  514000          298 0.0011368635 1.1099652e-11 
  515000          298 2.6940866e-05 8.1402522e-12 
  516000          298 0.00058206056 6.0673706e-12 
  517000          298 0.00063311171 4.6476425e-12 
  518000          298 0.00084520485 3.7108273e-12 
  519000          298   0.00178159 5.2403309e-12 
  520000          298 0.0016966428 7.8104532e-12 
  521000          298 0.0010139696 9.1249354e-12 
  522000          298 0.00049352954 7.6699631e-12 
  523000          298 0.0011824902 7.5295563e-12 
  524000          298 0.00037761397 6.7355091e-12 
  525000          298 0.00035348177 4.1257546e-12 
  526000          298 0.00012800368 1.8438599e-12 
  527000          298 0.00088149755 3.9639072e-13 
  528000          298 0.00079279079 1.0503642e-12 
  529000          298 0.00063610965 -3.5080008e-13 
  530000          298 0.0013165968 2.3314907e-14 
  531000          298 0.0017804695 2.9631684e-12 
  532000          298 0.0011522884 4.1216688e-12 
  533000          298 0.00026467607 2.0369993e-12 
  534000          298 0.00070544588 7.5842797e-13 
  535000          298  0.001665495 2.6737642e-12 
  536000          298 0.0021607574 5.9875662e-12 
  537000          298 0.0016639446 8.4508117e-12 
  538000          298 0.0010277072 9.5329863e-12 
  539000          298 0.00042461652 8.2663758e-12 
  540000          298 0.0011573993 8.0508601e-12 
  541000          298  0.002088749 1.0373973e-11 
  542000          298 0.0023523127 1.5899161e-11 
  543000          298 0.00058565822 1.6255807e-11 
  544000          298 0.00041426246 1.4016785e-11 
  545000          298 0.00095842836 1.3680422e-11 
  546000          298 0.0020176819 1.5798876e-11 
  547000          298 0.0011436605 1.6955586e-11 
  548000          298 0.0011489978 1.713079e-11 
  549000          298 0.0017370616 1.8671803e-11 
  550000          298 0.0018318954 2.2906409e-11 
  551000          298 0.00034840111 2.1947206e-11 
  552000          298 0.00020890512 1.9208537e-11 
  553000          298 0.00018799456 1.7046859e-11 
  554000          298 0.00027988416 1.520035e-11 
  555000          298 0.00044794421 1.3122257e-11 
  556000          298 0.00028937721 1.0641726e-11 
  557000          298 0.00034315066 8.7342851e-12 
  558000          298 0.00084507165 8.2002336e-12 
  559000          298 0.0023291048 1.1939381e-11 
  560000          298 0.00069955397 1.2276394e-11 
  561000          298 0.00016204688  9.94992e-12 
  562000          298 0.0010564548 9.2296891e-12 
  563000          298 0.0014062771 1.2288225e-11 
  564000          298 0.00015972362 1.0635558e-11 
  565000          298 0.00013308258 8.0153587e-12 
  566000          298 0.0010901644 7.3792965e-12 
  567000          298 0.0025979855 1.1549777e-11 
  568000          298 0.00095621709 1.3493691e-11 
  569000          298 0.0002360205 1.1480365e-11 
  570000          298 0.0012222203 1.1189333e-11 
  571000          298 0.0020368326 1.5195414e-11 
  572000          298 0.00097616604 1.6299016e-11 
  573000          298 0.0001226511 1.4103637e-11 
  574000          298 0.0010680127 1.3324737e-11 
  575000          298 0.0025953926 1.7486377e-11 
  576000          298 0.0010690154 1.9050943e-11 
  577000          298 0.00042206999 1.8293567e-11 
  578000          298 0.00028065037 1.5976448e-11 
  579000          298 0.00014075074 1.4109752e-11 
  580000          298 0.00040572136 1.2241386e-11 
  581000          298 0.0020180269 1.3833189e-11 
  582000          298 0.0018751314 1.6611969e-11 
  583000          298 0.00084358884 1.7735594e-11 
  584000          298 0.00059962982 1.6816487e-11 
  585000          298 9.7957501e-05 1.4831587e-11 
  586000          298 0.0009611145 1.3776523e-11 
  587000          298 0.00091018426 1.4338964e-11 
  588000          298 0.00019607057 1.2491705e-11 
  589000          298 0.00068429512 1.0968169e-11 
  590000          298 0.0020303161 1.2809697e-11 
  591000          298 0.0012201607 1.4642011e-11 
  592000          298 0.00013470146 1.3187948e-11 
  593000          298 0.00034332324 1.1063032e-11 
  594000          298 0.0011659916 1.0984207e-11 
  595000          298 0.00085301911 1.1295841e-11 
  596000          298 0.00041047982 9.6576047e-12 
  597000          298 0.00071497774 9.3810053e-12 
  598000          298 0.00076883123 8.5708406e-12 
  599000          298 0.00096507229 8.5108837e-12 
  600000          298 0.0013387003 9.1818045e-12 
  601000          298 0.0014109769 1.1276458e-11 
  602000          298 0.0020939771 1.3943371e-11 
  603000          298 0.00034695013 1.3504306e-11 
  604000          298 0.00033490456 1.1590719e-11 
  605000          298 0.0013603859 1.1636461e-11 
  606000          298 0.0019147196 1.3995222e-11 
  607000          298 0.0017975927 1.626454e-11 
  608000          298 0.00070232269 1.6313009e-11 
  609000          298 0.00070906979 1.5389538e-11 
  610000          298   0.00057281 1.4276083e-11 
  611000          298 0.00044665689 1.303905e-11 
  612000          298 0.00043969634 1.2076773e-11 
  613000          298 0.00015492607 1.0434484e-11 
  614000          298 0.00046217858 8.5920877e-12 
  615000          298 0.00096554899 8.1668962e-12 
  616000          298 0.0026238344 1.2170896e-11 
  617000          298 0.0010698043 1.2921519e-11 
  618000          298 0.0010097679 1.2645494e-11 
  619000          298 0.0010411586 1.3347293e-11 
  620000          298 0.00018149822 1.1445325e-11 
  621000          298 0.00025125126 1.0077376e-11 
  622000          298 0.0004697655 8.2936812e-12 
  623000          298 0.00098732629 8.2437796e-12 
  624000          298 0.0002099125 6.5308158e-12 
  625000          298 0.00023848507 4.8413648e-12 
  626000          298 0.00072778138 4.2949267e-12 
  627000          298 0.00022245888 3.1486783e-12 
  628000          298 0.0004265711 1.3787021e-12 
  629000          298 8.2077032e-05 -3.4262321e-13 
  630000          298 0.0006461416 -1.46527e-12 
  631000          298 0.00070794298 -2.0331026e-12 
  632000          298 0.00043183959 -3.3899607e-12 
  633000          298 0.00020663532 -5.3600538e-12 
  634000          298 0.0013372451 -5.0417227e-12 
  635000          298 0.0023676416 -1.8594986e-12 
  636000          298 0.0014222122 -1.520505e-13 
  637000          298 0.00050439924 -9.5575933e-13 
  638000          298 8.9481835e-05 -2.7297874e-12 
  639000          298 0.0005745543 -3.9154193e-12 
  640000          298 0.00066612242 -4.9744574e-12 
  641000          298 0.0014202917 -4.4239747e-12 
  642000          298 0.0018533124 -1.6057145e-12 
  643000          298 0.00038851134 -2.353013e-12 
  644000          298 0.00057171674 -3.6627408e-12 
  645000          298 0.0018673017 -2.0488516e-12 
  646000          298 0.00068047741 -1.6662384e-12 
  647000          298 4.385582e-05 -3.6345289e-12 
  648000          298 0.0010012741 -4.1952761e-12 
  649000          298 0.0028649476 -5.9411131e-13 
  650000          298 0.00063274574 -1.8180925e-13 
  651000          298 0.00012828206 -2.0004987e-12 
  652000          298 0.00047716557 -3.3270048e-12 
  653000          298 0.0018300384 -2.4727325e-12 
  654000          298 0.00075740568 -9.2587887e-13 
  655000          298 0.00016855065 -2.6774066e-12 
  656000          298 0.0004216446 -3.9007744e-12 
  657000          298 0.0013608937 -3.8204368e-12 
  658000          298  0.001048154 -1.6267735e-12 
  659000          298 0.00011995968 -3.3376501e-12 
  660000          298 0.00041018506 -4.5252402e-12 
  661000          298 0.00093441605 -5.1538727e-12 
  662000          298 0.0017562303 -2.2569069e-12 
  663000          298 0.00039294822 -2.953064e-12 
  664000          298 0.00013499988 -4.7516963e-12 
  665000          298 0.0013554951 -4.8708722e-12 
  666000          298 0.0017094466 -1.8177001e-12 
  667000          298 0.00015644908 -2.9208613e-12 
  668000          298 0.00054294831 -4.2105748e-12 
  669000          298  0.002926299 -1.4560659e-12 
  670000          298 0.00082898178 -8.1083806e-13 
  671000          298 0.00038064831 -2.0221378e-12 
  672000          298 0.00081957523 -2.7526831e-12 
  673000          298 0.0024206283 9.097228e-14 
  674000          298 0.0012862942 1.0754711e-12 
  675000          298 0.0016693638 2.061111e-12 
  676000          298 0.0013744528 3.3630594e-12 
  677000          298 0.0009980633 4.0633323e-12 
  678000          298 0.00039370065 2.9129064e-12 
  679000          298 0.00073505735 1.9886465e-12 
  680000          298  0.002747473 4.7332849e-12 
  681000          298 0.0015237778 7.0833065e-12 
  682000          298 0.00026150268 6.0199825e-12 
  683000          298 0.00093433712 5.4936091e-12 
  684000          298 0.0019463464 7.1565573e-12 
  685000          298 0.0018386514 9.4403001e-12 
  686000          298 0.0005231532 8.831851e-12 
  687000          298 0.00012332824 7.2225988e-12 
  688000          298 0.0015422152 7.4714478e-12 
  689000          298 0.0022867111 1.0482646e-11 
  690000          298 0.00060934194 1.0306425e-11 
  691000          298 0.00019945442 9.2119578e-12 
  692000          298 0.00058633749 8.0654227e-12 
  693000          298 0.0011401645 8.3892856e-12 
  694000          298 0.00031362788 7.3714806e-12 
  695000          298 0.00055986411 6.2053286e-12 
  696000          298 0.0023863884 8.1840073e-12 
  697000          298 0.0016375412 1.0491318e-11 
  698000          298 0.00045038973 1.0229467e-11 
  699000          298 0.00045761928 8.9535908e-12 
  700000          298  0.001304004 9.3051424e-12 
  701000          298 0.00051307527 8.6501347e-12 
  702000          298 0.00026128707 7.2685605e-12 
  703000          298 0.0010043063 7.0733358e-12 
  704000          298 0.0020790837 9.6293514e-12 
  705000          298 0.00033734956 8.7311462e-12 
  706000          298 0.00020982143 7.2462645e-12 
  707000          298 0.00067542578 6.2686494e-12 
  708000          298 0.0024435583  8.35756e-12 
  709000          298 0.0017202653 1.0625351e-11 
  710000          298 0.0015942615 1.1656528e-11 
  711000          298 0.0010921366 1.1936766e-11 
  712000          298 0.00099485908 1.2053339e-11 
  713000          298 0.00044626721 1.1127556e-11 
  714000          298 0.00077278449 1.0804781e-11 
  715000          298 0.00060267149 9.9606149e-12 
  716000          298  0.001047664 1.0087278e-11 
  717000          298 0.0012381998 1.0477886e-11 
  718000          298 0.0013891835 1.1831588e-11 
  719000          298 0.0021312153 1.3645805e-11 
  720000          298 0.00050059762 1.3747485e-11 
  721000          298 0.00039415358 1.241511e-11 
  722000          298 0.0014070031 1.2418745e-11 
  723000          298 0.0019882649 1.455635e-11 
  724000          298 0.00090946471 1.4857847e-11 
  725000          298 0.0010656965 1.5124377e-11 
  726000          298 0.0026610302 1.7369008e-11 
  727000          298 0.0015464614 1.9194237e-11 
  728000          298 0.00010387129 1.803828e-11 
  729000          298 0.00050613911 1.6729124e-11 
  730000          298 0.0014944896 1.6974156e-11 
  731000          298 0.0021145507 1.882323e-11 
  732000          298  0.001057474 1.9407617e-11 
  733000          298 0.00025284321 1.8151969e-11 
  734000          298 0.00010241372 1.6496806e-11 
  735000          298 0.0021891456 1.7329702e-11 
  736000          298 0.0012065475 1.8362128e-11 
  737000          298 0.00094295804 1.816665e-11 
  738000          298 0.0019673334 1.9384007e-11 
  739000          298  0.001043439 2.0430162e-11 
  740000          298 0.00050253459 1.9953689e-11 
  741000          298 0.00052495867 1.9005348e-11 
  742000          298  0.000982739 1.8538735e-11 
  743000          298 0.00065193664 1.8019959e-11 
  744000          298 0.00016712955 1.6610395e-11 
  745000          298 0.0002800377  1.54378e-11 
  746000          298 0.00064653413  1.45355e-11 
  747000          298 0.00068458436 1.397111e-11 
  748000          298 4.9265033e-05 1.2366789e-11 
  749000          298 0.00047827909 1.1519979e-11 
  750000          298 0.00058698093 1.0837847e-11 
  751000          298 0.00024920562 1.0040756e-11 
  752000          298 0.00023858951 8.5569663e-12 
  753000          298 0.0004505681 7.7980174e-12 
  754000          298 0.00054999528 7.1351045e-12 
  755000          298 0.0003567738 6.3583714e-12 
  756000          298 0.0012154506 6.2693249e-12 
  757000          298 0.0023117236 8.2902755e-12 
  758000          298  0.001946558 1.0398134e-11 
  759000          298 0.0014550907 1.1213359e-11 
  760000          298 0.00093109567 1.1134861e-11 
  761000          298 0.00086923636 1.1112093e-11 
  762000          298 0.0012933692 1.1303805e-11 
  763000          298 0.0012984017 1.2652566e-11 
  764000          298 0.00085634056 1.2648311e-11 
  765000          298 0.00073956515 1.2422074e-11 
  766000          298 0.0010743624 1.2394894e-11 
  767000          298 0.0014910734 1.3146068e-11 
  768000          298 0.0021515233 1.4774482e-11 
  769000          298 0.00045293498 1.4816063e-11 
  770000          298 3.0298722e-05 1.3243749e-11 
  771000          298 0.0011767415 1.2880111e-11 
  772000          298 0.0021210563 1.5169104e-11 
  773000          298 0.0011701192 1.565002e-11 
  774000          298 0.00075073227 1.5275641e-11 
  775000          298 0.00031996806 1.4209948e-11 
  776000          298 0.00046546397 1.3175703e-11 
  777000          298 0.0021593626 1.4458275e-11 
  778000          298 0.00098783011 1.5161974e-11 
  779000          298 0.0001825568 1.4035929e-11 
  780000          298 0.00031360273 1.2703092e-11 
  781000          298 0.0016425784 1.3476653e-11 
  782000          298 0.0018343511 1.5387345e-11 
  783000          298 0.0004713462 1.5341639e-11 
  784000          298 0.00044204713 1.4284742e-11 
  785000          298 0.00071387478 1.3548227e-11 
  786000          298 0.0011706257 1.4188008e-11 
  787000          298 0.0017821013 1.5328188e-11 
  788000          298 0.0013665341 1.636054e-11 
  789000          298 0.0011876887 1.671398e-11 
  790000          298 0.00031875218 1.603064e-11 
  791000          298 9.3702201e-05 1.4779545e-11 
  792000          298 0.0012121071 1.4562089e-11 
  793000          298 0.00050847104 1.4424148e-11 
  794000          298 0.00031106178 1.3404528e-11 
  795000          298 0.00084876275 1.2792818e-11 
  796000          298  0.003006315 1.4884016e-11 
  797000          298 0.00078403416 1.5164268e-11 
  798000          298 0.00063579342 1.4528148e-11 
  799000          298 0.0011258947 1.440324e-11 
  800000          298 0.0023760201 1.623691e-11 
  801000          298 0.0012386547 1.7147759e-11 
  802000          298 0.00088775094 1.6851798e-11 
  803000          298 0.00068245167 1.6304149e-11 
  804000          298 0.0012585838 1.6411285e-11 
  805000          298  0.002184328 1.781876e-11 
  806000          298 0.00068422602 1.7880307e-11 
  807000          298 0.0001413544 1.6638876e-11 
  808000          298 0.00059940229 1.601299e-11 
  809000          298 0.0011553171 1.6232909e-11 
  810000          298 0.0012857923 1.6332077e-11 
  811000          298 0.0023735762 1.7995784e-11 
  812000          298 0.00076285317 1.8385138e-11 
  813000          298 0.00036597766 1.7570384e-11 
  814000          298 0.0015545271 1.7710249e-11 
  815000          298 0.0019028734 1.9290906e-11 
  816000          298 0.0012715985 2.0090715e-11 
  817000          298 0.00032848862 1.9325881e-11 
  818000          298 0.00022189083 1.8032861e-11 
  819000          298 0.0003784839 1.7162116e-11 
  820000          298 0.00055889878 1.6618502e-11 
  821000          298 0.00079783691 1.6303678e-11 
  822000          298 0.0011778475 1.6286904e-11 
  823000          298 0.00028757385 1.5507599e-11 
  824000          298 0.0002049028 1.4521882e-11 
  825000          298 0.0011041046 1.4155876e-11 
  826000          298 0.0023089962 1.5834634e-11 
  827000          298  0.001585359 1.7067842e-11 
  828000          298 0.0010045296 1.7692979e-11 
  829000          298 0.00071409923 1.7472384e-11 
  830000          298 0.00021936893 1.6591801e-11 
  831000          298 0.00056165312 1.5645485e-11 
  832000          298 0.0011371615 1.5849869e-11 
  833000          298 0.0016446906 1.7055237e-11 
  834000          298 0.00071108292 1.6978375e-11 
  835000          298 0.00090207721 1.6729775e-11 
  836000          298 0.0029038854 1.8778335e-11 
  837000          298  0.001027047 1.9208229e-11 
  838000          298 2.446408e-05 1.7975156e-11 
  839000          298 0.00076270835 1.7286408e-11 
  840000          298 0.0027750653 1.9008327e-11 
  841000          298 0.00076421742 1.923872e-11 
  842000          298 0.00047218248 1.842462e-11 
  843000          298 0.00010792462 1.7257883e-11 
  844000          298 0.0011549656 1.7067056e-11 
  845000          298 0.00055449623 1.6824671e-11 
  846000          298 3.3703725e-05 1.5710223e-11 
  847000          298 0.00055572118 1.4781195e-11 
  848000          298 0.0022624207 1.6082498e-11 
  849000          298 0.0016895275 1.7558936e-11 
  850000          298 0.0010680805 1.7692682e-11 
  851000          298 0.00077322123 1.7352318e-11 
  852000          298 0.0010032859 1.7234113e-11 
  853000          298 0.00092627762 1.7084718e-11 
  854000          298 0.0019366838 1.7756645e-11 
  855000          298 0.0011497785 1.8236316e-11 
  856000          298 0.00091305606 1.8177837e-11 
  857000          298 0.00087176293 1.7893131e-11 
  858000          298 0.0025238468 1.9168481e-11 
  859000          298 0.00046027877 1.8913765e-11 
  860000          298 0.00072078749 1.826904e-11 
  861000          298 0.0024212183 1.9634271e-11 
  862000          298 0.0016337861 2.1190198e-11 
  863000          298 0.00011582612 2.0335105e-11 
  864000          298 0.00035761111 1.9236919e-11 
  865000          298 0.00054804941 1.8590085e-11 
  866000          298 0.00058484678 1.8120406e-11 
  867000          298 0.00094325855 1.8051662e-11 
  868000          298 0.0016470311 1.8828413e-11 
  869000          298 0.0018432957  1.99275e-11 
  870000          298 0.0013891189 2.0933213e-11 
  871000          298 0.00070677066 2.0828005e-11 
  872000          298 0.00046866122 2.0117865e-11 
  873000          298 0.0012315732 2.007627e-11 
  874000          298 0.0019060923 2.1227596e-11 
  875000          298 0.0015780778 2.207376e-11 
  876000          298  0.001537094 2.2588647e-11 
  877000          298 0.0010368632 2.2651877e-11 
  878000          298 0.00044336082 2.2166414e-11 
  879000          298 0.00065813635 2.1466654e-11 
  880000          298 0.0011084332 2.1276254e-11 
  881000          298 0.00061784197 2.0995039e-11 
  882000          298 0.00052054054 2.0509465e-11 
  883000          298 0.0010517289 2.0339067e-11 
  884000          298 0.0010912996 2.0194611e-11 
  885000          298   0.00183069 2.0798927e-11 
  886000          298 0.0015309317 2.1334864e-11 
  887000          298 0.0011054155 2.167473e-11 
  888000          298 0.0011175698 2.1621994e-11 
  889000          298  0.002592137 2.3289285e-11 
  890000          298 0.0004064014 2.2917562e-11 
  891000          298 0.00014916722 2.1776669e-11 
  892000          298 0.0010680158 2.1465436e-11 
  893000          298 0.0012492067 2.1890844e-11 
  894000          298 0.00041641422 2.1340857e-11 
  895000          298 0.00066309095 2.067574e-11 
  896000          298 0.00051314013 2.0128796e-11 
  897000          298 0.00070140553 1.962042e-11 
  898000          298 0.00089791532 1.9203047e-11 
  899000          298 0.00088414857 1.903078e-11 
  900000          298 0.0019640931 1.9780721e-11 
  901000          298 0.0017995977 2.0755148e-11 
  902000          298 0.00092888522 2.090249e-11 
  903000          298 0.0002847106 2.0040641e-11 
  904000          298 9.346672e-05 1.8900642e-11 
  905000          298 0.0019259392 1.9199976e-11 
  906000          298 0.0010651138 1.9789494e-11 
  907000          298 0.00042671271 1.9097551e-11 
  908000          298 0.00035374193 1.8197264e-11 
  909000          298 0.00043256487 1.7437257e-11 
  910000          298 0.00042161771 1.6892289e-11 
  911000          298 9.4528318e-05 1.6032015e-11 
  912000          298 0.00036127376 1.5155967e-11 
  913000          298 0.0011609047 1.4953047e-11 
  914000          298 0.00042740467 1.4531304e-11 
  915000          298 0.00023520574 1.3550385e-11 
  916000          298 0.00025153551 1.2823334e-11 
  917000          298 0.00082217573 1.2363123e-11 
  918000          298 0.0013222961 1.2771822e-11 
  919000          298 0.00016413456 1.1983552e-11 
  920000          298 0.00045021645 1.131819e-11 
  921000          298 0.00021150521 1.0345384e-11 
  922000          298  0.001495439 1.0640307e-11 
  923000          298 0.00022422824 1.0053415e-11 
  924000          298 0.00033003626 9.2090246e-12 
  925000          298 0.0002764738 8.4143138e-12 
  926000          298 0.0016710338 8.6459653e-12 
  927000          298 0.0019611571 1.0371386e-11 
  928000          298 0.00042131279 1.009807e-11 
  929000          298 0.00043872047 9.3267989e-12 
  930000          298  0.001030419 9.2751356e-12 
  931000          298 0.00041969293 8.713533e-12 
  932000          298 0.00011870392 7.8560332e-12 
  933000          298 0.00027072272 7.1001658e-12 
  934000          298 0.0014105347 7.2869138e-12 
  935000          298 0.00065980588 7.1858472e-12 
  936000          298 0.00071198714 6.9586627e-12 
  937000          298 0.00029283015 6.2177367e-12 
  938000          298 0.0015790153 6.5083159e-12 
  939000          298 0.00064468037 6.5137744e-12 
  940000          298 0.00010746089 5.6426156e-12 
  941000          298 0.00097664319 5.2358789e-12 
  942000          298 0.0016032895 5.7945937e-12 
  943000          298 0.0021803669 7.1008498e-12 
  944000          298 0.00081418604 7.0596661e-12 
  945000          298 0.00015332213 6.1937518e-12 
  946000          298 0.00059727043 5.6134441e-12 
  947000          298 0.0029806621 6.9272877e-12 
  948000          298 0.00084588055 7.2098527e-12 
  949000          298 0.00092813173 7.0427454e-12 
  950000          298 0.0018872036 7.739524e-12 
  951000          298 0.0015830711 8.3309696e-12 
  952000          298 0.00087656141 8.3684657e-12 
  953000          298 0.00010155162 7.5680517e-12 
  954000          298 0.00040941285 6.8142768e-12 
  955000          298 0.0024336145  7.73397e-12 
  956000          298 0.00072753896  7.82163e-12 
  957000          298 0.00027019283 7.0831251e-12 
  958000          298 0.00081368931 6.5864354e-12 
  959000          298 0.0024344204 7.8811264e-12 
  960000          298 0.0013771078 8.614632e-12 
  961000          298 0.0012512255 9.2094763e-12 
  962000          298 0.0012190338 9.4422487e-12 
  963000          298 0.00057905319 9.2668557e-12 
  964000          298 0.00062740851 8.7318727e-12 
  965000          298 0.00041197078 8.269272e-12 
  966000          298 0.00095503051 7.9574986e-12 
  967000          298  0.001018766 8.1521093e-12 
  968000          298 0.0003428788 7.5405279e-12 
  969000          298 0.00029718516 6.7433952e-12 
  970000          298 0.0013636328 6.8796208e-12 
  971000          298 0.0015163353 7.705784e-12 
  972000          298 0.0015103765 8.2582912e-12 
  973000          298 0.0008824763 8.3312685e-12 
  974000          298 0.00080842063 8.3286662e-12 
  975000          298 0.00047449731 7.7355552e-12 
  976000          298 0.00051013732 7.1679368e-12 
  977000          298 0.0020849923 7.9569772e-12 
  978000          298 0.0019657254 9.2790275e-12 
  979000          298 0.0017080062 9.8500647e-12 
  980000          298 0.0016758175 1.0341155e-11 
  981000          298 0.0022006335 1.163829e-11 
  982000          298 0.0009667678 1.216082e-11 
  983000          298 0.0004817651 1.1768631e-11 
  984000          298 0.0015024219 1.1902234e-11 
  985000          298 0.0023922972 1.3410922e-11 
  986000          298 0.00023806554 1.3094886e-11 
  987000          298 0.00013496088 1.2177238e-11 
  988000          298 0.0018652272 1.2390043e-11 
  989000          298 0.0014103181 1.3442734e-11 
  990000          298 0.0001164019 1.2815467e-11 
  991000          298  0.000477491 1.2129272e-11 
  992000          298  0.002829063 1.3292458e-11 
  993000          298 0.00064563668 1.3478117e-11 
  994000          298 0.00015954255 1.2618053e-11 
  995000          298 0.00043138573 1.2038691e-11 
  996000          298 0.0010228754 1.1758968e-11 
  997000          298 0.0020423729 1.2990202e-11 
  998000          298 0.00044415822 1.2756776e-11 
  999000          298 0.00014546477 1.1880642e-11 
 1000000          298 0.0010015213 1.1590332e-11 
Loop time of 943.735 on 1 procs for 1000000 steps with 2431 atoms

Performance: 91.551 ns/day, 0.262 hours/ns, 1059.619 timesteps/s
99.9% CPU use with 1 MPI tasks x no OpenMP threads

MPI task timing breakdown:
Section |  min time  |  avg time  |  max time  |%varavg| %total
---------------------------------------------------------------
Pair    | 19.973     | 19.973     | 19.973     |   0.0 |  2.12
Bond    | 760.85     | 760.85     | 760.85     |   0.0 | 80.62
Neigh   | 67.799     | 67.799     | 67.799     |   0.0 |  7.18
Comm    | 63.095     | 63.095     | 63.095     |   0.0 |  6.69
Output  | 2.8751     | 2.8751     | 2.8751     |   0.0 |  0.30
Modify  | 9.9752     | 9.9752     | 9.9752     |   0.0 |  1.06
Other   |            | 19.17      |            |       |  2.03

Nlocal:    2431 ave 2431 max 2431 min
Histogram: 1 0 0 0 0 0 0 0 0 0
Nghost:    16166 ave 16166 max 16166 min
Histogram: 1 0 0 0 0 0 0 0 0 0
Neighs:    1171 ave 1171 max 1171 min
Histogram: 1 0 0 0 0 0 0 0 0 0

Total # of neighbors = 1171
Ave neighs/atom = 0.481695
Ave special neighs/atom = 6.58988
Neighbor list builds = 948
Dangerous builds = 0
unfix           3
unfix           5
undump          NiPyC2_experiment_with_Kr_xyzmov

Total wall time: 0:15:43
