units           real
atom_style      full
boundary        p p p

pair_style      lj/cut 14.000
bond_style      harmonic
angle_style     cosine/periodic
dihedral_style  harmonic
improper_style  fourier

special_bonds   lj/coul 0.0 0.0 1.0
pair_modify     tail yes mix arithmetic
dielectric      1.0
box tilt        large
read_data       data.NiPyC2_experiment_with_Xe
  triclinic box = (0 0 0) to (31.264 37.5702 30.8228) with tilt (0 -0.682783 0)
  1 by 1 by 1 MPI processor grid
  reading atoms ...
  2431 atoms
  scanning bonds ...
  6 = max bonds/atom
  scanning angles ...
  15 = max angles/atom
  scanning dihedrals ...
  8 = max dihedrals/atom
  scanning impropers ...
  3 = max impropers/atom
  reading bonds ...
  2880 bonds
  reading angles ...
  5490 angles
  reading dihedrals ...
  5760 dihedrals
  reading impropers ...
  3780 impropers
  6 = max # of 1-2 neighbors
  9 = max # of 1-3 neighbors
  12 = max # of special neighbors
  special bonds CPU = 0.000795725 secs
  read_data CPU = 0.0510675 secs

#### Atom Groupings ####
group           1        id   55
1 atoms in group 1
group           fram     id   1:54 56:2431
2430 atoms in group fram
#### END Atom Groupings ####

dump            NiPyC2_experiment_with_Xe_xyzmov all xyz 1000 NiPyC2_experiment_with_Xe_mov.xyz
dump_modify     NiPyC2_experiment_with_Xe_xyzmov element Ni O N C H Xe
variable        dt         equal 1.00
variable        tdamp      equal 100*${dt}
variable        tdamp      equal 100*1
fix             1 1 langevin 298.00 298.00 ${tdamp} 8646
fix             1 1 langevin 298.00 298.00 100 8646
fix             2 1 nve
fix             3 fram langevin 298.00 298.00 ${tdamp} 965287
fix             3 fram langevin 298.00 298.00 100 965287
fix             4 fram nve
thermo          0
run             5000
Neighbor list info ...
  update every 1 steps, delay 10 steps, check yes
  max neighbors/atom: 2000, page size: 100000
  master list distance cutoff = 16
  ghost atom cutoff = 16
  binsize = 8, bins = 4 5 4
  1 neighbor lists, perpetual/occasional/extra = 1 0 0
  (1) pair lj/cut, perpetual
      attributes: half, newton on
      pair build: half/bin/newton/tri
      stencil: half/bin/3d/newton/tri
      bin: standard
WARNING: Inconsistent image flags (src/domain.cpp:785)
Per MPI rank memory allocation (min/avg/max) = 36.42 | 36.42 | 36.42 Mbytes
Step Temp E_pair E_mol TotEng Press 
       0            0    1347.2182    41619.617    42966.836    -49580.39 
    5000    292.52395    685.04187    22467.261    25271.162   -67599.864 
Loop time of 79.2946 on 1 procs for 5000 steps with 2431 atoms

Performance: 5.448 ns/day, 4.405 hours/ns, 63.056 timesteps/s
100.0% CPU use with 1 MPI tasks x no OpenMP threads

MPI task timing breakdown:
Section |  min time  |  avg time  |  max time  |%varavg| %total
---------------------------------------------------------------
Pair    | 71.145     | 71.145     | 71.145     |   0.0 | 89.72
Bond    | 3.5887     | 3.5887     | 3.5887     |   0.0 |  4.53
Neigh   | 3.5961     | 3.5961     | 3.5961     |   0.0 |  4.54
Comm    | 0.31674    | 0.31674    | 0.31674    |   0.0 |  0.40
Output  | 0.012957   | 0.012957   | 0.012957   |   0.0 |  0.02
Modify  | 0.54653    | 0.54653    | 0.54653    |   0.0 |  0.69
Other   |            | 0.08845    |            |       |  0.11

Nlocal:    2431 ave 2431 max 2431 min
Histogram: 1 0 0 0 0 0 0 0 0 0
Nghost:    16174 ave 16174 max 16174 min
Histogram: 1 0 0 0 0 0 0 0 0 0
Neighs:    1.37727e+06 ave 1.37727e+06 max 1.37727e+06 min
Histogram: 1 0 0 0 0 0 0 0 0 0

Total # of neighbors = 1377268
Ave neighs/atom = 566.544
Ave special neighs/atom = 6.58988
Neighbor list builds = 61
Dangerous builds = 0
unfix           1
unfix           2
unfix           3
unfix           4
fix             5 1 nvt temp 298.00 298.00 ${tdamp}
fix             5 1 nvt temp 298.00 298.00 100
fix             6 fram nvt temp 298.00 298.00 ${tdamp}
fix             6 fram nvt temp 298.00 298.00 100
thermo          1
run             5000
WARNING: Inconsistent image flags (src/domain.cpp:785)
Per MPI rank memory allocation (min/avg/max) = 36.42 | 36.42 | 36.42 Mbytes
Step Temp E_pair E_mol TotEng Press 
    5000    292.52395    685.04187    22467.261    25271.162   -67599.864 
    5001    293.89029    686.10453    22455.652    25270.512     -67534.2 
    5002    295.93859    683.91549     22441.69    25269.198   -67211.414 
    5003    296.17186    680.66431    22442.875    25268.821   -66793.172 
    5004    293.83525    679.05455    22462.519     25269.93   -66448.552 
    5005    290.91505    680.18311     22483.87    25271.258   -66291.922 
    5006    289.84058    683.51306    22488.414    25271.349   -66372.713 
    5007     290.7896    687.90293    22476.141    25270.341   -66688.035 
    5008    291.89885    692.15136    22463.211    25269.694   -67177.559 
    5009    291.90701    694.86281    22461.011    25270.264   -67709.832 
    5010    291.72309    694.59718     22463.57    25271.225   -68106.782 
    5011    292.94587     690.7893    22458.525    25271.229   -68221.014 
    5012     295.3822    684.27763    22446.328    25270.168   -68017.313 
    5013    296.84658    676.80634    22442.367    25269.342   -67589.566 
    5014    295.58677    670.23134    22458.617    25269.893   -67098.585 
    5015     292.4422    665.94425    22487.231    25271.441   -66689.211 
    5016    290.12042    664.25804    22506.737    25272.445   -66452.974 
    5017    290.30112    664.52461    22504.697    25271.979   -66434.785 
    5018    291.93057    666.09822    22490.227    25270.886   -66635.004 
    5019     292.7512     668.5787    22481.602    25270.686   -66988.503 
    5020    292.13916    671.22153     22484.43    25271.723   -67354.825 
    5021    291.75394    672.65098     22486.85    25272.782   -67562.311 
    5022    293.28242    671.64663    22476.633    25272.632   -67495.624 
    5023     296.1378    668.23806    22458.285    25271.558   -67162.174 
    5024    297.98504    663.82312    22448.796    25271.035   -66683.003 
    5025    297.48598    659.93253    22457.168    25271.901   -66222.009 
    5026    295.86955    657.11763    22473.078    25273.288   -65915.526 
    5027    295.36223    655.44971    22478.858    25273.725   -65844.082 
    5028    296.48752    655.42734    22469.999    25272.995   -66035.751 
    5029    297.58292    657.48237    22459.295     25272.28   -66464.991 
    5030    296.97178    661.07504    22460.528    25272.679   -67035.728 
    5031    295.03981    664.72922    22472.126    25273.937   -67584.321 
    5032    293.79644    666.72458    22480.011    25274.811   -67936.886 
    5033    294.52572    665.84042    22475.315    25274.514   -67995.808 
    5034    296.31389    662.25985    22465.112    25273.683   -67785.967 
    5035    297.22658    657.77508    22462.913     25273.61    -67425.95 
    5036    296.69835    654.69674    22470.815    25274.608   -67058.494 
    5037    296.10176    654.55016    22476.244    25275.568   -66798.959 
    5038    296.73422    657.84152    22468.193     25275.39   -66723.095 
    5039    297.79673    664.26359    22453.085      25274.4   -66867.644 
    5040    297.04332    672.54449    22449.911     25274.05   -67212.543 
    5041    293.48524    680.29238    22469.064    25275.178    -67656.24 
    5042    288.92129    684.87805    22499.329     25276.97   -68028.131 
    5043    286.38947    684.95636    22518.513    25277.893   -68159.663 
    5044    287.24176    681.15008    22515.648    25277.396    -67974.75 
    5045    290.07617    675.66466    22499.665    25276.459   -67527.879 
    5046    292.57796    671.24487     22485.91    25276.405    -66962.57 
    5047    294.00739    669.74386    22477.977    25277.324   -66435.383 
    5048    295.38985    671.20957    22467.192    25278.019   -66067.332 
    5049    297.31892    674.39147    22449.612    25277.594   -65935.436 
    5050    298.37531     678.1613    22437.386     25276.79   -66067.952 
    5051    296.53122    681.99903    22447.273    25277.157   -66419.366 
    5052    292.01237    685.34616     22478.57     25279.07   -66851.995 
    5053    287.92602     687.0193    22508.479    25281.053   -67174.479 
    5054    287.43103    685.63835    22513.739    25281.346   -67239.207 
    5055     290.4544    681.02859    22495.138    25280.035   -67027.026 
    5056    293.86001    674.69938    22475.777    25279.013   -66648.238 
    5057    294.95154    668.55563    22474.674    25279.673   -66265.047 
    5058    294.10031    663.74924     22487.29    25281.316   -66007.525 
    5059    293.53041    660.81573    22495.256    25282.221   -65945.897 
    5060    294.18879    660.04626    22490.933    25281.897   -66108.245 
    5061    294.81613    661.06394    22485.072    25281.598   -66485.825 
    5062    294.19125    662.49296    22489.119    25282.547   -67004.841 
    5063    293.34183    662.68457    22496.792    25284.259   -67514.099 
    5064     294.6269    660.73066    22490.245    25285.067   -67842.064 
    5065    298.64931    656.89564    22464.078      25284.2   -67895.506 
    5066      302.882    652.54309    22436.484    25282.913     -67710.2 
    5067    304.03337    649.29282    22431.576    25283.095   -67409.715 
    5068    301.56261    647.80519    22452.853    25284.987   -67121.549 
    5069    298.12203    647.68558    22479.779    25286.873   -66928.717 
    5070    296.41632    648.68529    22491.497    25287.235   -66877.859 
    5071    296.36158    651.13667    22488.722    25286.515   -66998.831 
    5072    295.82963     655.0604      22488.5    25286.363   -67288.055 
    5073    293.70183    659.56792    22500.612     25287.57   -67670.409 
    5074    291.36222    663.15848    22515.569    25289.171   -68003.223 
    5075    290.91438    664.45817    22518.006    25289.664   -68147.008 
    5076     292.4099    663.32072    22507.589    25288.942   -68045.712 
    5077    293.63246    661.24775    22500.355    25288.491   -67745.778 
    5078    292.83301    660.31446    22508.129    25289.541   -67348.198 
    5079    291.00243    661.82885    22521.834      25291.5   -66949.733 
    5080    290.80015    666.11465    22520.195    25292.682   -66624.914 
    5081    293.42834    672.93068    22494.003    25292.343   -66440.788 
    5082    297.20288    681.54782    22457.189    25291.487   -66454.648 
    5083    299.40879    690.65202    22432.243    25291.623   -66673.163 
    5084    299.16101    698.47659    22427.623    25293.033   -67015.061 
    5085    297.98206    703.26873    22432.853    25294.515   -67333.047 
    5086    297.59608    704.21772    22435.114     25294.93   -67490.949 
    5087    297.78985    701.91576    22435.687    25294.604   -67435.951 
    5088    296.95923    697.62836    22446.215    25294.828   -67211.427 
    5089    294.46704    692.43783     22470.83    25296.201   -66912.006 
    5090    291.79527    687.16327    22497.201    25297.945   -66632.503 
    5091    291.08371    682.34801    22508.007    25298.781    -66452.37 
    5092    292.73031    678.29844    22499.767    25298.419   -66438.595 
    5093    294.85707    675.24077     22486.93    25297.929   -66627.606 
    5094    295.32356     673.2926    22486.085    25298.515   -66985.265 
    5095    293.99696    672.22845    22498.385    25300.142   -67390.333 
    5096    292.69811    671.19811    22510.287    25301.606   -67681.073 
    5097    292.94972    668.95139    22511.086     25301.98   -67742.856 
    5098    294.25619    664.79315    22505.561    25301.761   -67567.474 
    5099    294.99177    659.38908     22506.09    25302.214    -67239.54 
    5100    294.74128    654.65313    22514.198    25303.771   -66874.337 
    5101    295.05478    652.57647    22515.588    25305.355   -66571.079 
    5102    297.44444    654.18152    22496.982    25305.663   -66409.125 
    5103    301.01288    659.23349    22465.302    25304.882   -66454.738 
    5104    302.85185    666.32464    22444.611    25304.603   -66736.354 
    5105    301.03171    673.25663    22452.227    25305.967    -67197.35 
    5106    296.76468    677.91566    22480.855    25308.346   -67684.945 
    5107    293.21245    679.04959    22507.148    25310.044   -68015.226 
    5108    292.27053    676.59654    22516.598    25310.217   -68075.569 
    5109    292.96871    671.74855    22515.997    25309.826   -67878.742 
    5110    293.21402    666.70419    22519.856    25310.418   -67527.387 
    5111    292.66365    663.80402    22528.545    25312.219   -67135.876 
    5112    293.13648    664.31023    22526.204    25313.809   -66787.358 
    5113     296.0011    667.97857    22501.894    25313.918   -66544.179 
    5114    299.88812    673.72401    22467.236     25313.16   -66459.711 
    5115      301.872    680.32773     22446.52    25313.418   -66547.191 
    5116    300.94541    686.27425    22449.353    25315.485   -66736.228 
    5117    299.42363    689.44118    22459.619    25317.896   -66886.814 
    5118    300.23246    688.09844    22455.886    25318.679   -66874.439 
    5119    303.28823    682.45982    22438.557    25317.845   -66676.315 
    5120    305.50067    674.93503    22429.599    25317.388   -66377.155 
    5121    304.45646    668.68441    22444.871    25318.846   -66094.633 
    5122    301.29634     665.4564    22473.584     25321.44   -65909.138 
    5123    299.27618     664.4235    22490.812    25323.004   -65863.285 
    5124    299.78653     663.4228    22487.804    25322.691   -65998.164 
    5125    300.80913    661.23482    22481.962    25322.068   -66349.473 
    5126    299.75459    658.26643    22493.569    25323.069   -66891.115 
    5127    297.00584    655.46938    22518.708      25325.5   -67497.831 
    5128    295.56248    653.23536     22533.16    25327.264    -67994.14 
    5129      297.197    651.38315    22522.957    25327.047   -68262.253 
    5130     299.9842    649.74259    22503.317    25325.956   -68308.673 
    5131    300.34262    648.92308    22501.811    25326.227   -68226.311 
    5132    297.21515    650.09115    22525.615    25328.545   -68104.622 
    5133     293.3533    653.71747    22552.578    25331.162   -67987.692 
    5134    292.09505    659.10969    22557.153    25332.015   -67905.149 
    5135    293.57046    665.33274    22539.537    25331.309   -67907.006 
    5136    295.03325     671.6845    22522.485    25331.204   -68037.719 
    5137    294.74433     676.9692     22521.02    25332.931   -68272.166 
    5138    294.27972    679.72192    22524.007    25335.306   -68492.924 
    5139    296.39327    679.29813    22510.108    25336.292   -68555.766 
    5140    301.22162    676.41457    22477.229    25335.503   -68390.082 
    5141    305.57528    672.91089    22448.441    25334.746   -68035.429 
    5142    306.32252    670.65226    22446.426    25335.886   -67588.851 
    5143    303.88841    670.12295    22467.285    25338.583   -67133.762 
    5144    301.63605    670.10395    22485.698    25340.663   -66725.145 
    5145    301.82143    669.25171     22485.29    25340.745   -66420.939 
    5146    303.03379    667.90854    22477.069    25339.963   -66289.272 
    5147    302.28336    667.59999    22483.383    25340.532   -66360.004 
    5148    299.07959    668.79897    22507.778     25342.92   -66571.162 
    5149    296.30397    670.03911    22528.994    25345.272   -66783.468 
    5150    296.78978    669.23073    22526.761     25345.75   -66869.281 
    5151    299.88695    665.46005    22507.118     25344.77   -66796.092 
    5152    302.20304    659.78921    22495.724    25344.481   -66624.804 
    5153    301.58205    654.40652    22507.263    25346.139   -66439.289 
    5154    299.46852    650.94333    22528.485    25348.589   -66294.323 
    5155    298.81174    649.67728    22535.651    25349.731    -66229.21 
    5156    300.21384    650.20556    22524.419    25349.184   -66301.946 
    5157    301.20793    652.29564    22514.705    25348.761    -66572.56 
    5158    299.56145    655.66837    22524.644    25350.146   -67036.693 
    5159    296.36133    659.29567    22546.782    25352.732   -67587.484 
    5160    294.93186    661.65017    22556.464    25354.414   -68064.536 
    5161    296.94071    661.64565    22541.684     25354.18   -68354.863 
    5162    300.48703    659.54506    22517.226    25353.309   -68448.372 
    5163    302.45358     657.0524     22505.96    25353.795   -68402.594 
    5164    302.16278    656.00476    22511.139     25355.82   -68275.019 
    5165    301.75956     657.3754    22514.468    25357.599   -68100.205 
    5166    302.98813    661.48273    22501.609    25357.746   -67919.097 
    5167    304.65337    668.20747    22482.132    25357.056   -67798.429 
    5168    304.07624     676.5581    22478.381    25357.475   -67792.162 
    5169    300.65628    684.55766    22497.287    25359.608   -67877.971 
    5170    297.00465     690.2896    22520.384    25361.987   -67947.399 
    5171    296.21464    692.89145    22524.347     25362.83   -67878.626 
    5172    298.47395    692.65741    22507.444    25362.058   -67626.577 
    5173    300.91219     690.8241    22490.957    25361.399   -67242.907 
    5174    300.85646    688.85074    22494.333    25362.397   -66819.596 
    5175    298.73435    687.43054    22513.328    25364.602   -66426.727 
    5176    297.26978    686.62354     22526.34    25366.198   -66101.565 
    5177    298.13791    686.75815    22520.015    25366.296   -65877.232 
    5178    300.23414    688.20304     22502.96     25365.87   -65796.447 
    5179    301.42557    690.31668     22492.76    25366.413   -65880.346 
    5180    301.34374    691.17038    22494.178    25368.092    -66088.46 
    5181    301.72158    688.61229    22495.474    25369.566    -66327.22 
    5182    303.92566    681.98074    22486.259    25369.685   -66509.509 
    5183    306.81222    672.85461    22473.732     25368.94   -66608.736 
    5184     307.6416    664.02074    22476.532    25368.914   -66656.684 
    5185    305.05008    657.80361    22503.032    25370.426   -66694.725 
    5186    300.63411    655.13324    22539.879    25372.616   -66735.984 
    5187    297.35173    655.50789    22564.595    25373.931   -66776.502 
    5188    296.58808     657.6259    22567.956    25373.879   -66829.164 
    5189    297.18041    660.11722    22560.789    25373.494   -66928.202 
    5190     297.2767    661.81682    22558.882    25373.984   -67093.375 
    5191    296.56137    661.96892    22565.215    25375.287   -67295.422 
    5192    296.21494    660.78523     22569.96    25376.339   -67466.072 
    5193    297.00113    659.46915    22565.757    25376.515   -67547.877 
    5194    298.10944    659.31141    22557.766    25376.394   -67533.195 
    5195    298.22677     660.8308    22556.011    25377.008   -67454.317 
    5196    297.41756    663.75243    22560.424    25378.481   -67344.348 
    5197    297.33858     667.8098    22558.294    25379.837   -67217.151 
    5198    299.41618    673.07436    22538.312    25380.168   -67086.518 
    5199    303.12429    679.06263    22504.957    25379.661   -66993.762 
    5200    306.32142    683.92731    22476.621    25379.347   -66999.756 
    5201    307.20882    685.39254    22469.361     25379.98    -67138.47 
    5202    305.84591    682.73085    22483.294     25381.38   -67377.857 
    5203    303.81995    677.15415    22504.811    25382.645   -67633.298 
    5204    302.53754    670.81829    22520.933    25383.142   -67819.946 
    5205     302.0115    665.80833    22529.789    25383.178    -67894.38 
    5206    301.39583    663.39641    22536.996    25383.513   -67857.347 
    5207    300.36837    663.75553    22544.938    25384.372   -67730.382 
    5208    299.57878    666.31024    22548.977    25385.247   -67538.553 
    5209    299.73493     670.0768    22544.418    25385.586   -67314.619 
    5210    300.57842    673.56601    22534.712    25385.479   -67107.863 
    5211    301.02194    674.87104    22530.233    25385.517   -66972.516 
    5212     300.2566    672.90001    22538.386    25386.155   -66934.326 
    5213    298.64654    668.48354    22555.605    25387.296   -66967.494 
    5214    297.52558    663.42589    22569.799    25388.312   -67011.873 
    5215    297.97667    658.92369    22571.358    25388.636   -67015.415 
    5216    299.76616    655.36306    22561.741    25388.421   -66962.352 
    5217    301.64717    653.00228    22550.463    25388.407   -66867.538 
    5218    302.75286    652.25524    22543.861    25389.067   -66751.092 
    5219    303.48559    653.34452    22538.446    25390.049   -66623.244 
    5220    304.87262    655.77113    22526.526    25390.602   -66494.588 
    5221    307.14752    658.07222     22507.57    25390.425   -66395.997 
    5222    309.18991    658.66072    22491.804    25390.041   -66375.039 
    5223    309.57247    657.34317    22490.639     25390.33   -66460.241 
    5224    308.21063    655.47432    22503.526    25391.484   -66628.167 
    5225    306.67805    654.68878     22516.58    25392.651   -66810.095 
    5226     306.5901    655.77838    22516.347    25392.871   -66937.464 
    5227    307.76187    658.45383    22504.455    25392.142    -66987.14 
    5228    308.24487    662.31251    22496.489    25391.532   -66981.805 
    5229    306.39857    667.69171    22505.028    25392.078   -66949.231 
    5230    302.81639    674.81319    22525.286     25393.51   -66892.821 
    5231    299.75645    682.45301    22540.739    25394.439   -66808.373 
    5232    298.55965    688.62704    22542.884    25394.089   -66720.285 
    5233    298.25261     692.4026    22540.625    25393.381   -66684.992 
    5234    297.22648    694.05944    22546.735    25393.716    -66749.17 
    5235    295.76522    694.09539    22558.624    25395.056   -66902.895 
    5236    295.96969    693.03785    22559.076    25395.932   -67080.533 
    5237    299.04032    691.59169    22537.624    25395.275   -67215.864 
    5238    303.29185    690.50269    22506.447    25393.804   -67291.594 
    5239    305.55057     690.3722    22489.761    25393.348   -67327.759 
    5240    304.59733    691.02629    22497.356    25394.693   -67332.465 
    5241    302.59616     691.1336    22513.554    25396.503   -67282.716 
    5242    302.61987    689.35658    22515.568    25396.912   -67159.926 
    5243     305.1717    685.79547    22499.487    25395.754   -66994.933 
    5244    307.85666     682.0159    22482.749    25394.685    -66860.19 
    5245    308.41697    679.57421    22481.508     25395.06   -66810.049 
    5246    307.24694    678.60269    22492.171    25396.277   -66835.965 
    5247    306.30757     678.0733    22499.849    25396.621   -66885.385 
    5248    306.04572    677.64416    22501.198    25395.644   -66914.221 
    5249    304.58989    678.37186    22510.223    25394.852   -66909.752 
    5250    300.47001    681.15331     22538.15    25395.718   -66865.214 
    5251    295.32434    685.24692    22573.354    25397.744   -66751.194 
    5252    292.90675    688.49242    22588.761    25398.885   -66537.071 
    5253    295.23753    688.95399    22570.442     25397.91   -66246.452 
    5254    300.33513    686.44544    22534.036    25395.919     -65975.2 
    5255    304.25835    682.30521    22508.872    25395.033   -65836.531 
    5256    305.10317    678.11574    22507.861    25395.951   -65878.766 
    5257    304.38362    674.73679    22517.786    25397.285   -66057.474 
    5258    304.47936     672.1686    22519.701    25397.326   -66286.904 
    5259    305.45437    670.29851    22513.319    25396.136   -66507.243 
    5260      305.154    669.56721    22515.531    25395.441   -66696.524 
    5261    302.36944    670.31841    22535.898     25396.39   -66834.828 
    5262    298.91596       671.75    22561.077    25397.985   -66886.336 
    5263    297.78678    672.40659    22568.935     25398.32   -66833.297 
    5264    299.65342     671.6046    22554.921    25397.026    -66722.55 
    5265    302.15558    669.75188    22537.329    25395.705   -66658.445 
    5266     302.8619    667.58473     22534.61    25395.935   -66730.889 
    5267    302.22029    665.54999    22542.708    25397.351   -66945.869 
    5268    302.89885    663.88865    22540.199    25398.096   -67229.041 
    5269    306.32273    663.06619    22515.164    25397.038   -67492.871 
    5270    310.57536      663.946    22481.606    25395.164   -67691.567 
    5271    312.24091    667.04713    22465.705    25394.428   -67815.263 
    5272    310.06177    671.49099    22478.065    25395.448   -67852.196 
    5273    306.10978    675.22725    22504.352    25396.846   -67779.373 
    5274    303.25512    676.66248    22523.783    25397.034   -67597.848 
    5275    302.17306    675.53105    22531.766    25396.048   -67368.154 
    5276    301.32037    672.46395     22540.22    25395.258   -67190.791 
    5277    299.47828    668.62498    22557.784    25395.641   -67136.326 
    5278    297.60552    665.36553      22575.6    25396.632   -67195.133 
    5279    297.76372    663.57891    22576.382    25396.773    -67296.75 
    5280    300.41541    663.56053    22555.966    25395.546   -67370.167 
    5281    303.46523    665.11522    22530.858    25394.084   -67381.135 
    5282    304.36985    667.59093    22521.592    25393.846   -67318.495 
    5283    302.90927    670.12992    22530.718    25394.932    -67163.71 
    5284    301.38086    672.04946    22540.874    25395.936   -66896.165 
    5285    301.94746    673.10523    22535.327    25395.549   -66536.956 
    5286    304.16175    673.47716    22517.426    25394.058   -66177.189 
    5287    305.49007    673.41492    22506.798     25392.99   -65944.198 
    5288    304.18056    672.93655    22517.112     25393.34    -65923.89 
    5289     301.1592    671.98527    22541.084    25394.476   -66107.149 
    5290    298.87602    670.72436    22559.357    25394.951   -66407.226 
    5291    298.59333    669.49377    22561.896    25394.211   -66724.035 
    5292    299.34382    668.57116    22556.396    25393.224    -66989.95 
    5293    299.69066    667.65592    22554.763    25393.189   -67168.289 
    5294    299.89909    665.73519    22555.928    25393.943   -67234.525 
    5295    301.62693    662.04815    22547.326     25394.17   -67181.746 
    5296    305.51704    657.06816    22523.061    25393.101   -67050.344 
    5297      309.787    652.14939    22495.453    25391.504   -66937.064 
    5298    311.71258    648.49547    22484.511    25390.856   -66949.335 
    5299    310.41813    646.48472    22496.674    25391.631    -67134.56 
    5300    307.74746    645.78956    22517.788    25392.706   -67449.359 
    5301    306.17354    646.05239    22528.904    25392.684   -67795.563 
    5302    306.18353     647.2407     22526.47     25391.51    -68083.66 
    5303    306.13474    649.34163    22523.647    25390.435   -68263.963 
    5304    304.54879    652.03669    22532.472    25390.468   -68311.682 
    5305    301.99088    654.80239     22548.98    25391.213   -68208.373 
    5306      300.336    657.13587    22558.825    25391.405   -67958.426 
    5307    300.42407    658.80941    22555.607    25390.499   -67620.703 
    5308    301.07431    659.99432    22548.595    25389.381   -67303.489 
    5309    300.71975    660.94922    22550.058    25389.231   -67108.743 
    5310    299.56015    661.66739     22558.47    25389.962   -67071.447 
    5311    299.39876    662.31743    22559.333    25390.306   -67148.112 
    5312     301.3232    663.90678    22542.936    25389.438   -67258.711 
    5313     304.1943    667.67033    22516.944    25388.006   -67336.435 
    5314    305.83431    673.56579     22498.48    25387.316   -67341.706 
    5315    305.47239    679.65087      22495.5      25387.8   -67247.595 
    5316    304.51711    683.06532    22499.682    25388.477   -67037.689 
    5317    304.75534    682.24327    22498.519    25388.218   -66729.109 
    5318     306.2437    678.00518    22490.838     25387.08   -66393.009 
    5319    307.37133    672.54684    22487.135    25386.086   -66136.112 
    5320    306.77522     668.0932     22495.81    25385.989   -66043.186 
    5321    304.77105      666.082     22512.79     25386.44   -66129.284 
    5322    302.73831    666.96929    22526.685      25386.5   -66340.807 
    5323    301.41441    670.45466    22532.154    25385.865   -66593.853 
    5324    300.30108    675.40641    22534.572     25385.17   -66811.359 
    5325    298.76324    679.93908    22541.071    25385.063   -66935.355 
    5326    297.21885    682.38633    22550.148      25385.4   -66926.903 
    5327    296.85701    682.27907    22552.898    25385.422   -66779.516 
    5328     298.2538      680.354    22543.996    25384.712   -66542.291 
    5329    300.59357    677.55325    22528.804    25383.667   -66321.436 
    5330    302.40078    674.35592    22518.257    25383.013   -66238.953 
    5331    302.93736    671.15102      22517.6    25383.038   -66369.486 
    5332    302.75904    668.60914    22521.688    25383.292   -66703.365 
    5333    302.86106     667.3836    22521.958    25383.076   -67160.213 
    5334    303.38524    667.81389    22516.933    25382.278   -67631.404 
    5335    303.45251    669.86229    22513.711    25381.592   -68015.216 
    5336    302.38987    672.57918    22518.677    25381.578   -68234.816 
    5337    300.71539    674.24154    22529.456     25381.89   -68249.342 
    5338    299.53754    673.92513     22538.22    25381.806   -68067.401 
    5339    299.25125    672.44523     22541.14    25381.172   -67756.994 
    5340    299.23325    671.43467    22541.616    25380.507   -67430.134 
    5341    298.79458    672.00992    22544.036    25380.325   -67195.506 
    5342    298.12502    674.15609    22546.916    25380.501   -67109.297 
    5343    298.03189     677.0831    22544.562      25380.4   -67157.794 
    5344    298.81539    680.34919    22534.989    25379.768   -67272.964 
    5345    299.84522    683.90662    22523.286    25379.082   -67364.549 
    5346     300.3604    686.89466    22516.263    25378.779   -67351.258 
    5347    300.28845    687.86385    22515.826     25378.79   -67180.507 
    5348    300.12924    685.98603    22518.794    25378.727   -66845.753 
    5349    300.24727    681.54006    22522.042    25378.383   -66400.611 
    5350    300.49078    675.57411    22525.801     25377.94   -65951.059 
    5351    300.52275    669.57022     22531.33    25377.698   -65616.785 
    5352    300.39984    665.06662    22536.747    25377.721   -65482.379 
    5353    300.66354    662.76443    22537.101    25377.682    -65570.64 
    5354    301.71082    662.16789    22529.652    25377.222    -65846.01 
    5355     303.1693    662.37954    22518.143    25376.489   -66232.639 
    5356    304.18144    662.83377    22509.861    25375.993   -66633.757 
    5357    304.31139    663.17779    22508.502    25375.919   -66952.755 
    5358    303.90506    663.11446     22511.53    25375.941   -67120.205 
    5359    303.51252    662.65935    22514.593    25375.706   -67120.768 
    5360    303.25298    662.32208    22516.404    25375.299   -67002.082 
    5361    302.92275    662.60663    22518.205    25374.993   -66855.615 
    5362    302.45344    663.54673     22520.46    25374.789   -66778.971 
    5363    301.91121    664.85037    22522.707    25374.411   -66842.069 
    5364    301.05701    666.52855    22526.617    25373.812    -67068.06 
    5365    299.30039    669.07944    22536.345    25373.367   -67425.909 
    5366    296.41392    672.91357    22553.519    25373.468    -67832.56 
    5367    293.21986    677.51464    22572.572    25373.986   -68172.917 
    5368     291.2834    681.23341    22583.205    25374.312   -68341.558 
    5369    291.74971    682.22102    22578.544    25374.015   -68288.104 
    5370     294.5298    679.78458    22560.115    25373.287   -68037.379 
    5371    298.65266    674.99413     22534.38    25372.625   -67672.449 
    5372    303.19773    669.86778    22506.146    25372.187   -67298.994 
    5373    307.59835    665.84019    22477.736    25371.625   -67016.733 
    5374    311.08288    663.35995     22454.09    25370.738   -66899.716 
    5375    312.41846    662.68394     22444.38    25370.026   -66973.963 
    5376    310.85105    663.96595    22454.553    25370.127   -67197.427 
    5377    307.21584    666.62593    22478.965    25370.868   -67462.062 
    5378     303.5805    669.38831    22503.023    25371.357    -67632.88 
    5379     301.5299    670.90958    22515.927    25370.929   -67611.635 
    5380    300.92461    670.50377     22519.72    25369.932   -67382.267 
    5381    300.52112    668.17464    22524.291    25369.251   -67008.711 
    5382    299.60379    664.39357    22534.689    25369.223    -66594.75 
    5383    298.63712    660.18643     22546.01    25369.335   -66241.825 
    5384     298.3656     657.1349    22550.681    25368.988    -66028.31 
    5385    298.71716    656.83113    22547.721    25368.271    -66000.54 
    5386    298.97623    659.96606    22542.265    25367.826     -66158.3 
    5387    298.94287    665.60572    22536.996    25367.955   -66441.739 
    5388    299.42885     671.3341    22527.894    25368.101   -66744.747 
    5389    301.20046    674.63938    22511.136    25367.482   -66960.972 
    5390    303.57476    674.78891    22492.505    25366.197   -67032.675 
    5391    304.66737    673.21312     22485.24    25365.271   -66967.565 
    5392    303.31643    672.00069    22496.421    25365.455   -66817.517 
    5393    300.48789    672.19649    22517.588    25366.329   -66646.896 
    5394    298.46162    673.28302    22531.581    25366.732   -66519.743 
    5395    298.62978    674.13708    22528.823    25366.046   -66499.253 
    5396    300.34615    674.54276    22514.831    25364.892   -66630.976 
    5397    302.06359    675.49901    22500.857    25364.314   -66907.651 
    5398    303.23564    677.89866    22490.081    25364.427   -67251.503 
    5399    304.52136    681.34856     22477.19    25364.299   -67544.716 
    5400    306.14571    684.61225    22461.188    25363.326   -67691.894 
    5401    306.87837    686.75472    22452.614    25362.202   -67663.999 
    5402    305.32024    687.43804    22463.083    25362.068     -67492.4 
    5403    301.95247     686.4874    22489.321    25362.961   -67233.628 
    5404    299.14495      683.847    22512.956     25363.62   -66949.611 
    5405    298.78459    680.20868    22518.536    25362.952   -66714.267 
    5406    300.28583    677.35898    22508.986    25361.426   -66611.939 
    5407    301.46521    676.94067    22499.916    25360.481   -66701.803 
    5408    301.18181    678.71703    22500.412      25360.7   -66970.274 
    5409    300.43966    680.57077    22504.406    25361.172   -67321.471 
    5410    300.75527    680.27287    22502.018    25360.772   -67625.571 
    5411     302.0795    676.95762    22494.556    25359.587     -67786.8 
    5412    302.90204    671.06353     22493.59    25358.684   -67776.332 
    5413    302.19736    663.64344    22506.131    25358.701   -67617.667 
    5414    300.63876    656.08166    22525.391     25359.11   -67360.411 
    5415     299.6528    649.79178    22538.652     25358.94   -67075.054 
    5416    299.61474    645.62414    22542.118    25357.962   -66854.901 
    5417    299.40217    643.72922    22544.536    25356.946   -66789.325 
    5418    297.83548    644.07379    22555.372    25356.778   -66909.287 
    5419    295.33708    646.41729    22571.749    25357.401   -67154.538 
    5420    293.76715     649.7622    22580.128    25357.754   -67401.226 
    5421     294.4617    652.81727    22571.357    25357.068   -67529.636 
    5422    296.81672    654.95436    22550.911    25355.818     -67479.6 
    5423    299.13005    656.21292    22532.126    25355.048   -67261.225 
    5424    300.52298    656.64936    22521.611    25355.059   -66932.875 
    5425    301.53478    656.04588    22514.953    25355.126   -66581.128 
    5426    302.81897    654.31823    22506.757    25354.504    -66313.04 
    5427    303.81101    652.17308    22500.661    25353.449   -66237.798 
    5428    303.20382    650.98884    22505.706    25352.912   -66423.306 
    5429    300.68567    651.64964    22523.664    25353.291   -66852.701 
    5430    297.66997    653.83627    22543.919    25353.888   -67419.227 
    5431     296.0002     656.7947     22552.96    25353.793   -67969.562 
    5432    296.22291    659.99024    22547.282    25352.924   -68370.191 
    5433    297.35167     662.8565    22535.243    25351.927   -68553.371 
    5434    298.10769    664.96713    22527.172    25351.443   -68520.008 
    5435     298.1535     666.3034    22525.505    25351.444   -68320.967 
    5436    298.06972    667.14308     22525.19    25351.361   -68042.091 
    5437    298.29276    667.97307      22522.2    25350.817     -67790.4 
    5438    298.41725    669.42733     22519.14    25350.114   -67666.591 
    5439    297.75646    671.89418    22521.189    25349.843   -67724.052 
    5440     296.4421    675.06243    22527.809    25350.111   -67937.704 
    5441    295.61369    677.97155    22531.132    25350.342   -68209.984 
    5442      296.316    679.61666    22523.959    25349.901   -68416.277 
    5443    298.31071    679.59458    22508.486    25348.855   -68460.998 
    5444    300.17075    678.08517    22495.535    25347.867   -68310.959 
    5445    300.56799    675.64765    22494.753    25347.525   -67993.142 
    5446    299.41755    673.09253    22505.902    25347.786   -67572.668 
    5447    297.83532    671.16237    22519.616    25348.109   -67133.838 
    5448    297.06981    669.92602     22526.25    25347.962   -66769.282 
    5449    297.45567    668.85246    22523.886    25347.319   -66562.155 
    5450    298.37959    667.48928    22517.906    25346.668   -66555.487 
    5451    299.17837    665.66364    22513.643    25346.365   -66726.386 
    5452     299.7966    663.35948    22511.302    25346.198   -66987.151 
    5453    300.44526    660.83532    22508.711    25345.782    -67219.23 
    5454    300.94071    658.54279    22506.808    25345.176   -67322.525 
    5455    300.78817    656.67896    22509.403    25344.801   -67249.803 
    5456    299.93729    655.01254    22517.301     25344.87   -67011.993 
    5457    299.14211    653.13864    22525.105     25345.04   -66667.574 
    5458    299.31046    650.95344    22525.794    25344.764   -66310.676 
    5459    300.50067    649.05061    22518.264    25343.952   -66053.511 
    5460    301.74989    648.46311    22508.937    25343.086   -65994.119 
    5461    301.96745     649.7622    22505.607    25342.631   -66177.329 
    5462    300.83228    652.63446    22510.872    25342.545   -66570.305 
    5463    298.81907    656.51351    22521.599    25342.569   -67069.258 
    5464    296.71023     660.7861    22532.586    25342.554   -67538.244 
    5465    295.22346    664.45518    22539.547    25342.414   -67858.708 
    5466     294.7982    666.59835    22540.161    25342.091   -67965.254 
    5467    295.45955     667.1027    22534.357    25341.582   -67862.525 
    5468    296.78114    666.53339    22524.676    25340.904   -67624.867 
    5469    297.95257    665.79753      22516.2    25340.177   -67372.717 
    5470     298.0918     665.9858    22514.516    25339.691   -67227.691 
    5471    296.85129    667.72281    22521.761    25339.687   -67265.201 
    5472    294.84782    670.30839    22534.001    25340.001   -67486.068 
    5473    293.31611    672.27218     22543.29    25340.159   -67815.324 
    5474    293.22241    673.14945    22542.868    25339.936   -68125.833 
    5475    294.80078    673.78889    22530.352    25339.491    -68282.62 
    5476    297.74805    674.62461    22507.587     25338.91   -68195.087 
    5477    301.37011    674.79867    22480.345    25338.078   -67854.196 
    5478    304.48261    673.43353    22458.208    25337.122   -67337.155 
    5479    305.73893    671.03822    22450.926    25336.544   -66777.444 
    5480    304.60146     669.0512    22461.316    25336.708   -66315.819 
    5481    301.98498    668.11092    22481.786    25337.285   -66057.478 
    5482    299.60117    667.42649    22499.957    25337.506    -66049.88 
    5483    298.54198    666.08262    22508.533    25337.065   -66277.484 
    5484    298.67212    664.11981    22508.865    25336.377   -66667.227 
    5485    299.34084    662.06146    22505.627    25335.924   -67104.658 
    5486    300.25292     659.7913    22500.986    25335.619    -67466.84 
    5487    301.34085    656.46908    22495.853    25335.045   -67667.398 
    5488    302.08391    651.74911      22494.4    25334.254   -67689.519 
    5489    301.62341    646.52126    22502.522    25333.812   -67585.454 
    5490    299.78374    642.28031      22520.3    25334.024   -67445.078 
    5491    297.60813    640.01544    22538.733    25334.434   -67358.654 
    5492    296.49358    639.70437    22546.956    25334.273   -67395.308 
    5493     296.7452    640.83988    22543.054    25333.329    -67592.35 
    5494    297.19711    643.36331    22536.176    25332.247   -67939.968 
    5495    296.43489    647.77354    22536.871    25331.832   -68365.582 
    5496    294.32576    654.27353    22546.004    25332.187   -68741.308 
    5497    292.19334     661.5498    22554.569    25332.583    -68931.95 
    5498      291.408     666.8481    22554.621    25332.244   -68860.978 
    5499    291.94557    668.28648    22548.362    25331.318   -68544.209 
    5500    292.68518    666.63247    22544.093    25330.752   -68071.418 
    5501    293.09458    663.96833    22543.976    25330.936    -67562.18 
    5502     293.9568    661.86999     22540.06    25331.168   -67126.886 
    5503    296.11584    661.05699    22524.678    25330.611   -66849.234 
    5504    298.95856    661.85895    22502.077    25329.403   -66777.763 
    5505    300.70022    664.59081    22485.898    25328.571   -66905.609 
    5506    300.30367    669.15667    22484.445    25328.811    -67151.03 
    5507    298.76073    674.32776    22491.215    25329.577   -67374.091 
    5508    298.05578    678.05252      22492.7     25329.68   -67438.434 
    5509    298.93931    678.85566    22484.542    25328.725   -67281.098 
    5510    300.17999    676.82799    22476.456    25327.598   -66939.223 
    5511    300.17586    673.17232     22479.87    25327.326   -66518.744 
    5512    298.89561    669.38487    22493.471    25327.867   -66136.588 
    5513    297.85941    666.92794    22503.842    25328.275   -65881.309 
    5514    298.35844    666.75924    22499.897    25327.776   -65807.506 
    5515    299.97385    669.14581    22484.634    25326.601   -65935.306 
    5516    301.05365    673.99177     22471.17    25325.805   -66232.142 
    5517    300.66871    680.32583    22467.797    25325.977   -66600.416 
    5518    299.67463    685.69495    22470.099    25326.448   -66904.063 
    5519    299.47058    687.30485    22469.657    25326.137   -67030.902 
    5520    300.04512    684.22206    22467.461     25325.02   -66949.418 
    5521    299.91642    677.99974    22473.776     25324.18   -66718.721 
    5522     298.1268    671.36685    22493.641     25324.45   -66447.166 
    5523    295.79856    666.50208    22516.275    25325.355   -66239.217 
    5524    295.21111    664.17068    22523.085    25325.579   -66170.745 
    5525    297.32206     664.1406    22506.723    25324.477   -66288.806 
    5526    300.58967    666.12686    22479.461     25322.87   -66603.301 
    5527    302.53993    670.04802    22460.669    25322.125    -67060.91 
    5528    302.34112    675.25355    22457.349     25322.57   -67534.723 
    5529    301.40541    679.80488    22460.118    25323.113   -67866.184 
    5530    301.34011    681.21954    22458.656    25322.593   -67945.902 
    5531     301.7954     678.3487    22456.886     25321.25    -67772.64 
    5532    300.91422    672.39574    22468.411    25320.439   -67443.587 
    5533    297.84277    666.09944    22497.443    25320.927   -67090.351 
    5534    294.14111    662.09509    22529.231    25321.898   -66819.149 
    5535    292.24301    661.79214     22543.27    25321.886   -66695.304 
    5536     292.7163    665.22398    22535.059    25320.535   -66754.026 
    5537    293.63408    671.48188    22520.726    25319.108   -66993.187 
    5538    292.96709    678.85835    22518.102    25319.028   -67343.588 
    5539    291.21418    684.72432     22526.01    25320.106   -67663.023 
    5540    290.99424      686.258    22526.643    25320.679   -67791.755 
    5541    293.92874    682.13683    22508.437    25319.608   -67643.712 
    5542    298.52126    673.71674    22481.666    25317.682   -67259.848 
    5543    301.63444    664.36861    22467.457    25316.675   -66777.817 
    5544    301.84065    657.45675    22473.449    25317.249   -66349.341 
    5545    300.69727    654.47224    22485.673    25318.207   -66079.509 
    5546    300.49612    654.60387    22486.701    25317.909   -66022.886 
    5547    301.23509    656.34834     22478.04    25316.345   -66197.701 
    5548    300.65074    659.12971    22478.421    25315.274   -66571.878 
    5549     297.4467    662.45688    22498.967     25315.94   -67036.805 
    5550    293.54315    664.64245    22526.496     25317.38   -67421.051 
    5551    292.26012    663.53249    22537.089     25317.57   -67568.293 
    5552    294.52282    658.37295    22524.168    25315.878   -67431.662 
    5553     297.7175    650.98419    22506.473    25313.935    -67099.12 
    5554    298.74604    644.70535    22505.066    25313.699   -66727.258 
    5555    297.65485    641.95985    22517.031    25315.014   -66449.855 
    5556    297.34792    643.06716    22518.924    25315.792    -66339.58 
    5557    299.73456    647.02419    22496.487    25314.599   -66430.293 
    5558    303.11417    652.92544    22463.983    25312.476   -66734.925 
    5559    304.16792    660.20968    22448.328    25311.738   -67215.296 
    5560    302.19174    667.26557    22456.819    25312.971   -67748.222 
    5561     300.0807    671.21596    22469.324    25314.135   -68157.654 
    5562    300.58122    670.39364    22465.623    25313.237   -68312.719 
    5563    302.64098    666.13496    22452.673    25310.949   -68211.345 
    5564    302.65653    661.46406    22456.043    25309.759   -67968.532 
    5565    299.06727    658.52812    22486.045    25310.827   -67723.161 
    5566    294.50927    657.65945     22521.66    25312.558   -67559.685 
    5567     292.8581    658.34842    22532.957    25312.585    -67508.63 
    5568    294.81502    660.25316    22514.902    25310.609   -67587.755 
    5569    297.34696      663.157     22491.74    25308.691   -67803.159 
    5570    297.51371    666.32897     22487.36    25308.691   -68100.094 
    5571    295.90976    668.27199    22498.332    25309.987   -68339.678 
    5572    295.53454    667.58491      22502.1     25310.35   -68361.479 
    5573    297.66365    664.15256    22488.534    25308.774   -68092.313 
    5574    299.98209    659.44514    22474.419    25306.745    -67597.72 
    5575    299.34914     655.5411    22482.571    25306.409   -67027.534 
    5576    295.77914    653.77738    22511.681    25307.896   -66516.785 
    5577    292.68411    654.37369     22534.74    25309.132   -66137.668 
    5578    293.01423    656.99595    22528.948    25308.354   -65924.617 
    5579    295.95588    661.09015    22501.381    25306.189   -65907.378 
    5580    298.07729    665.57461    22480.143    25304.801    -66090.71 
    5581    297.36641    668.74761    22482.597    25305.279   -66403.636 
    5582    295.27986    669.00021    22498.604    25306.425   -66697.374 
    5583    294.54139    665.96552    22506.914    25306.351   -66822.923 
    5584     295.6596    660.99714    22502.292    25304.861   -66725.676 
    5585    296.53567    656.33059    22499.364    25303.612   -66469.033 
    5586    295.48969    653.77978    22509.835    25303.955   -66172.192 
    5587    293.74796    654.06283    22523.417    25305.205   -65933.994 
    5588    294.16458    657.07955    22517.611    25305.433   -65812.001 
    5589    297.65157    662.59936    22485.208    25303.808     -65847.1 
    5590    301.67318    670.51557    22446.025    25301.671   -66070.396 
    5591    302.81937    680.31425    22427.319    25301.065   -66464.375 
    5592    300.61423    690.00783    22434.826    25302.294   -66928.309 
    5593    298.01035    696.19661    22448.671    25303.466   -67310.415 
    5594    297.84163    696.58457     22448.85    25302.811   -67495.342 
    5595    299.56405    692.47595    22438.598    25300.927   -67471.164 
    5596    300.34324    687.40244    22436.992    25299.892   -67321.993 
    5597    298.84837    683.79898    22452.024    25300.492   -67161.109 
    5598    296.76961    682.22847    22469.557    25301.397    -67070.29 
    5599    296.38109    682.48148    22471.672    25300.951   -67095.195 
    5600    297.45942    684.10454    22460.507    25299.219    -67268.58 
    5601    297.44832    686.18722    22457.235    25297.949   -67599.881 
    5602    294.71184    687.08195     22476.64    25298.428   -68030.667 
    5603    290.89164    684.91027    22507.897    25299.843   -68419.828 
    5604    289.32594    679.01122    22525.468    25300.174   -68603.166 
    5605      291.278    671.03418    22517.787    25298.655   -68490.965 
    5606    294.48332    663.79424    22499.796    25296.641   -68121.438 
    5607    295.67004    659.15671    22495.137     25295.94   -67623.927 
    5608    294.02565    657.47899    22509.617    25296.832   -67131.353 
    5609    291.76182    658.20915    22526.299    25297.847   -66726.336 
    5610    291.37035    660.58801    22526.422    25297.513   -66450.244 
    5611    292.87505    664.15281    22510.531    25296.085   -66327.132 
    5612    294.29612    668.51526    22494.961    25295.172   -66353.333 
    5613    294.54175    672.25265    22489.809    25295.536   -66469.168 
    5614    294.77956    673.17055    22487.705    25296.073   -66563.586 
    5615    296.46488    670.59638    22477.413    25295.414   -66530.446 
    5616    298.85773    666.30319     22462.76      25293.8   -66337.836 
    5617    299.48011    662.66874    22460.882    25292.796   -66046.065 
    5618    297.03109    660.90584    22480.977    25293.389   -65755.893 
    5619    293.24643    661.07354    22509.663    25294.828   -65544.144 
    5620     291.4345    662.67855    22521.729    25295.375   -65449.495 
    5621    293.18751    665.27814    22505.277     25294.22     -65497.8 
    5622    296.89209    668.76373    22473.135    25292.398   -65710.556 
    5623    299.66158    672.73549    22448.212    25291.506    -66075.73 
    5624    300.28857    675.77598    22440.902    25291.779   -66519.646 
    5625    299.72882    676.43529    22444.568    25292.049   -66924.808 
    5626    299.02837     674.9463    22450.598    25291.517   -67190.964 
    5627    297.82471    672.88088    22460.577    25290.712   -67289.976 
    5628    295.28291     671.5784    22480.237    25290.659    -67264.78 
    5629    291.97386     671.5654    22505.062    25291.502   -67182.801 
    5630    290.11503     672.7844    22518.014    25292.209    -67100.43 
    5631    291.58781     674.7671    22504.817    25291.662   -67065.663 
    5632    295.84623    676.78128     22470.26    25289.965   -67129.536 
    5633    300.14187    678.09248    22436.264    25288.394   -67328.176 
    5634    301.96293    678.21974    22422.589    25288.037   -67642.088 
    5635     301.1217    677.02701    22430.509    25288.671   -67979.572 
    5636    299.37312    674.80664    22445.876    25289.152   -68214.703 
    5637    298.26775    672.23444    22456.062    25288.759   -68257.136 
    5638    297.75825    669.97019     22461.14    25287.883   -68098.956 
    5639    296.85208    668.38337    22468.769    25287.361   -67804.662 
    5640    295.17182    667.67279    22481.741    25287.452   -67464.247 
    5641    293.46108    667.97075    22493.966    25287.583   -67155.094 
    5642    292.56232    669.40244    22498.628    25287.167   -66930.882 
    5643     292.3612    671.76745    22496.952    25286.399    -66822.26 
    5644    292.10921    674.00499     22496.07     25285.93   -66829.011 
    5645    291.60666    674.98179    22498.861    25286.058   -66902.831 
    5646    291.75474    674.56718    22498.538    25286.392   -66951.409 
    5647    293.74068    673.09815    22485.337    25286.107   -66884.375 
    5648    297.48819    671.17181    22458.894    25284.883   -66666.074 
    5649    301.16737    670.10703    22431.909    25283.482   -66332.592 
    5650    302.65998    671.23035    22419.414    25282.922    -65966.21 
    5651     301.4791    674.61209    22424.981    25283.318   -65652.201 
    5652    298.97981    678.90838    22439.253    25283.782   -65451.921 
    5653    296.72599    682.72783     22451.56    25283.583    -65399.66 
    5654     295.1378    685.52309    22459.709    25283.024   -65505.961 
    5655    293.94748    686.74035    22466.855    25282.766    -65752.41 
    5656    293.36585    685.45439    22472.422    25282.834   -66081.849 
    5657    294.13033    681.35219    22470.763    25282.609   -66408.999 
    5658    296.37741     675.3998    22459.498    25281.669   -66659.389 
    5659    298.89516    669.24209    22446.149    25280.399   -66806.778 
    5660    299.86881    664.19131    22443.369    25279.621   -66875.618 
    5661    298.46732    660.90822    22456.927    25279.744   -66911.064 
    5662    295.64749    659.44819    22479.414    25280.346   -66950.869 
    5663    293.34572    659.29367    22496.503    25280.608   -67021.287 
    5664    292.86697    659.61397    22499.142    25280.099   -67145.433 
    5665    294.04646    659.88258    22489.417    25279.187   -67340.087 
    5666    295.88223    659.81915    22475.469    25278.472   -67600.566 
    5667    297.62785    659.13838    22463.048    25278.014   -67890.297 
    5668    299.02315     658.3549    22453.273    25277.563   -68146.346 
    5669    299.89058    658.57438    22446.224    25277.016   -68306.982 
    5670    299.92467     660.3003    22443.719    25276.484   -68340.742 
    5671    298.92696    663.27595     22447.69    25276.204   -68252.917 
    5672    297.23679    666.86855    22456.354    25276.218   -68075.042 
    5673     295.7414     670.3367    22463.677    25276.178   -67852.423 
    5674    295.19568     673.1659    22464.311    25275.688    -67636.01 
    5675     295.4726    675.10046    22459.436    25274.753   -67476.135 
    5676      295.573    675.76589    22457.072    25273.782   -67410.706 
    5677    294.43106    674.69107    22465.847    25273.211   -67445.591 
    5678    291.78825    672.01546     22487.62    25273.165   -67539.436 
    5679    288.44177    668.80851    22515.294    25273.393   -67612.015 
    5680    285.71594    666.40711    22537.493    25273.446   -67578.796 
    5681    284.58785    665.67893    22546.021    25273.075   -67390.415 
    5682    285.19413     666.6767    22539.974    25272.417   -67053.885 
    5683    287.06919    668.66103    22523.756    25271.765   -66626.909 
    5684     289.6765    670.65016    22502.307    25271.191   -66192.486 
    5685    292.59549    672.33816    22478.898    25270.613   -65829.835 
    5686    295.38533    673.89969    22456.494    25269.979   -65598.203 
    5687    297.51973    675.04298    22439.284    25269.372   -65530.963 
    5688    298.55843    674.94337    22431.432    25268.944   -65628.028 
    5689    298.48099    673.23586    22433.565    25268.809   -65848.376 
    5690    297.88714     670.4605    22440.652    25268.819   -66118.697 
    5691    297.64668    667.52999    22445.049    25268.544   -66363.732 
    5692    298.06755    665.21414    22443.502    25267.729   -66541.843 
    5693    298.45762    663.95639    22440.914    25266.709   -66662.056 
    5694    297.75566    663.52233    22445.801    25266.077   -66772.431 
    5695     295.6324    662.92706    22461.716    25266.017   -66928.572 
    5696    292.88049    661.22569    22483.525    25266.192   -67163.838 
    5697    290.77474    658.11138    22501.816    25266.116    -67480.77 
    5698    290.10995    653.80624    22510.401     25265.58   -67859.588 
    5699    290.79233    649.04344    22509.451    25264.811   -68264.004 
    5700     292.2558    645.09586    22502.136    25264.148   -68639.962 
    5701    294.07335    643.24512     22490.25    25263.577   -68921.789 
    5702    295.96771    644.01821    22475.003    25262.825   -69054.493 
    5703    297.36561    646.96258    22460.972    25261.863   -69019.241 
    5704    297.38277    651.16418    22455.874    25261.091   -68839.217 
    5705    295.56272    655.94949    22464.082    25260.901   -68560.418 
    5706    292.56484    661.00289    22480.992    25261.149   -68228.159 
    5707    289.84996     665.8187    22495.905    25261.214   -67881.815 
    5708    288.50857    669.39517    22501.486    25260.655   -67562.899 
    5709    288.44545    670.70967    22499.658    25259.685   -67313.492 
    5710    288.74989    669.57347    22497.751    25258.846   -67155.336 
    5711     288.7373     667.1496    22499.868    25258.449   -67067.697 
    5712    288.51168    665.14393    22503.289    25258.229   -66993.447 
    5713    288.50982    664.84496    22503.146    25257.774   -66871.449 
    5714    288.78112    666.86849    22498.527    25257.144   -66668.056 
    5715    289.06523    670.73232    22492.156    25256.694   -66389.646 
    5716    289.40879    674.79307    22485.399    25256.487   -66074.973 
    5717    290.27462    677.26468    22476.369      25256.2   -65780.424 
    5718    291.94169    677.25222    22463.644    25255.538   -65570.029 
    5719    293.97182    674.90445     22450.35      25254.6   -65505.446 
    5720    295.39464    671.05363    22443.053    25253.759   -65626.018 
    5721    295.44699    667.02764    22446.252    25253.311   -65924.028 
    5722    294.17376    664.40179    22458.024    25253.235   -66335.339 
    5723    292.39825    664.48542    22470.826     25253.26   -66757.762 
    5724     291.1715     667.4761    22476.555    25253.094   -67091.035 
    5725    291.14547    671.84373    22471.865    25252.583   -67277.852 
    5726    292.23001    674.93775    22460.092     25251.76   -67323.928 
    5727    293.69797    674.92246      22448.6    25250.885   -67287.016 
    5728     294.7431    672.11974     22443.24    25250.292   -67245.778 
    5729    295.10542     668.1699    22444.251    25249.979   -67270.837 
    5730    295.03413    664.56677    22447.953    25249.561   -67407.432 
    5731    294.63081    662.31872    22452.455    25248.893   -67666.141 
    5732    293.59586    661.82626    22459.847    25248.297   -68018.769 
    5733    291.79431    662.62437    22471.872     25248.07   -68398.336 
    5734    289.77798    663.79542     22485.28    25248.044   -68709.413 
    5735    288.46469    664.82178    22493.517    25247.795   -68857.816 
    5736    288.33034    665.58127    22493.064    25247.129   -68793.625 
    5737    289.00651    665.72602    22487.149    25246.256   -68538.979 
    5738    289.67032    664.73724    22482.643    25245.569   -68176.997 
    5739    289.82907    662.56798    22483.367    25245.273    -67811.37 
    5740    289.71248    659.73875     22486.89    25245.123     -67527.8 
    5741    289.83971    657.09905    22488.212    25244.727   -67373.918 
    5742    290.31395    655.58496    22485.628    25244.064   -67354.217 
    5743     290.7597    655.71197    22481.678     25243.47   -67432.189 
    5744    290.90034    657.23794    22478.831    25243.168   -67537.644 
    5745    290.96713    659.47072    22475.959    25243.012   -67585.212 
    5746    291.44089    661.75415    22469.911    25242.679   -67506.372 
    5747    292.46433    663.68404    22459.956    25242.066    -67281.26 
    5748    293.65651    664.91741    22449.427    25241.406   -66951.028 
    5749     294.5194    664.96089    22442.656     25240.93   -66602.554 
    5750    294.86919     663.6624    22441.107    25240.616   -66333.216 
    5751      294.831    661.80204    22442.912    25240.284   -66216.167 
    5752    294.52161     660.8638    22445.632    25239.824    -66280.01 
    5753    293.87464    662.09137    22448.615    25239.349    -66503.27 
    5754    292.81482     665.4214    22452.578    25238.965   -66821.458 
    5755    291.45431    669.73523    22457.819    25238.665   -67142.022 
    5756     290.0719    673.92491    22463.375    25238.398   -67368.578 
    5757    288.98126    677.16625     22467.72    25238.084   -67434.199 
    5758    288.33547    678.72514    22470.363    25237.608   -67328.912 
    5759    287.94061    678.54935    22472.819    25237.028   -67102.478 
    5760     287.4176    677.70256    22477.066     25236.64   -66841.808 
    5761    286.73794    677.37251     22482.25    25236.571   -66638.411 
    5762    286.44154    677.78887    22483.952    25236.542   -66559.137 
    5763    287.12831    678.38284    22478.042    25236.201   -66629.193 
    5764    288.78111    678.56088    22465.189    25235.498   -66829.934 
    5765    290.67858    678.33436    22450.932    25234.759   -67104.725 
    5766    292.00981    678.25243    22440.965    25234.352   -67370.705 
    5767    292.59451    678.62184     22436.34    25234.331     -67541.7 
    5768    292.95421    678.69786    22433.653    25234.326   -67561.806 
    5769    293.62826    677.14713    22429.985     25233.99    -67432.41 
    5770    294.52186    673.35128    22426.724    25233.405   -67214.376 
    5771    295.06203    668.06821    22427.653    25232.965   -67001.911 
    5772    294.94337    662.78828    22433.702    25232.874   -66883.101 
    5773    294.52742    658.61662    22440.904    25232.891   -66908.803 
    5774    294.39488    655.77658    22444.432     25232.62   -67081.632 
    5775    294.60528    654.05643    22444.038    25232.029   -67359.868 
    5776    294.64411    653.38312    22443.943    25231.542   -67666.963 
    5777     294.1769    653.68102    22446.953    25231.466   -67906.702 
    5778    293.60722    654.44841      22450.4    25231.553   -67990.215 
    5779    293.60465    654.83267    22449.745    25231.264    -67872.79 
    5780    294.12156    654.37145     22445.69    25230.492   -67580.218 
    5781    294.21239    653.34543    22445.329    25229.763   -67203.414 
    5782    293.01319    652.39881    22454.804    25229.606   -66858.957 
    5783    290.73368      652.314     22471.73    25229.935   -66637.894 
    5784     288.5251    653.93269    22486.367    25230.193   -66575.886 
    5785    287.41052    657.66838    22490.444    25229.932   -66656.304 
    5786     287.4253    663.27571    22484.087     25229.29   -66826.157 
    5787    287.87237    670.05069    22473.613     25228.83   -67007.609 
    5788    288.31888    676.83438    22463.557    25228.792    -67111.49 
    5789    289.04405    682.25908    22452.912    25228.823   -67063.634 
    5790    290.42573    685.31828    22439.526    25228.505   -66840.504 
    5791    292.17958    685.73704    22425.822    25227.924   -66490.751 
    5792    293.54161    683.92197    22417.444    25227.596   -66120.362 
    5793    294.20033    680.70694    22416.037    25227.746   -65846.961 
    5794    294.71306    677.42681    22415.857    25227.999   -65752.305 
    5795     295.8081    675.66568    22409.494    25227.807   -65862.211 
    5796     297.3561    676.34588    22396.847    25227.053    -66154.52 
    5797    298.19765     679.2993    22387.035    25226.289   -66569.943 
    5798      297.236    683.47678    22389.771    25226.238   -67015.974 
    5799    294.75448    687.19686    22404.703    25226.915   -67379.916 
    5800     292.4256    688.77291    22420.672    25227.592   -67564.485 
    5801    291.90014    687.18889    22426.037    25227.566   -67536.302 
    5802    293.44611    682.35144    22418.962    25226.852   -67353.547 
    5803     295.9356    675.09448    22407.372    25226.037   -67144.181 
    5804    298.00008    667.19838    22399.936    25225.659   -67043.373 
    5805    299.07286    660.65846    22398.681    25225.635   -67134.518 
    5806    299.26835    656.48477    22401.256    25225.452   -67427.391 
    5807     298.4877     654.3076    22408.609    25224.973    -67868.06 
    5808    296.18864    653.00116    22426.317    25224.722   -68356.076 
    5809    292.33111    651.50488    22456.231    25225.197   -68759.788 
    5810    288.21929    649.28968    22489.122     25226.09   -68943.356 
    5811    285.85666    646.48287    22509.444    25226.492   -68815.942 
    5812    286.20466    643.50692    22509.251    25225.844   -68384.846 
    5813    288.15209    640.77616    22496.637    25224.605   -67768.726 
    5814    289.44365    638.80674     22488.51    25223.864   -67147.407 
    5815    288.76873    638.35723    22494.197    25224.212   -66676.537 
    5816    286.91337    640.24945    22506.705    25225.174   -66424.633 
    5817    285.85804     644.7648    22510.405    25225.745   -66368.393 
    5818    286.85405    651.16789    22496.488    25225.445   -66431.172 
    5819    289.45356    657.93732    22470.146    25224.702   -66522.587 
    5820    292.28494    663.69817    22443.437    25224.263   -66557.018 
    5821    294.45282     667.8883    22423.598    25224.317   -66466.441 
    5822    295.92589    670.59965    22410.278    25224.378   -66227.461 
    5823    296.67495    672.15548    22402.955    25224.037   -65889.904 
    5824    295.95076    673.14595    22406.794    25223.621   -65571.443 
    5825    292.95397    674.66633    22427.292    25223.932    -65404.72 
    5826    288.31243    677.65464    22459.166    25225.174   -65470.898 
    5827    284.41694     681.8191    22484.506    25226.462   -65767.731 
    5828    283.69672     685.7033     22486.01    25226.633   -66227.665 
    5829    286.40261    688.00816     22463.03    25225.558   -66759.109 
    5830    290.34942    688.44465    22432.789    25224.341   -67274.707 
    5831    292.97794    687.22951    22414.725    25224.102   -67696.736 
    5832    293.51343    684.43299    22414.403    25224.862   -67959.026 
    5833    293.08108    680.03232      22422.8    25225.727    -68026.58 
    5834    293.05429    674.19125    22429.079    25225.971   -67924.977 
    5835    293.64704    667.28559    22431.433    25225.712   -67746.388 
    5836    294.10349    660.09348    22435.229    25225.622   -67610.718 
    5837    293.93956    653.84677    22443.078    25226.037   -67604.797 
    5838    293.55419    649.59521    22450.572    25226.488   -67746.429 
    5839    293.37551    647.48079    22453.832     25226.34   -67993.967 
    5840    292.74685     646.7355     22458.57    25225.779    -68278.38 
    5841    290.32873    646.33473    22476.489    25225.782   -68521.619 
    5842     285.9319    645.70934    22510.191     25227.01   -68635.809 
    5843    281.65329    644.78055    22543.917    25228.816   -68535.216 
    5844    280.54755    643.45963    22554.139    25229.708   -68182.749 
    5845    283.76623    641.40825    22532.097    25228.929   -67641.491 
    5846    289.18154    638.52827    22494.237    25227.414   -67072.595 
    5847    293.23026    635.45533    22467.441    25226.871   -66659.648 
    5848    294.16261    633.31232    22463.851    25227.892   -66510.572 
    5849    293.17642    633.14827    22472.615    25229.348   -66613.064 
    5850    292.34649    635.60739    22476.676    25229.857   -66869.834 
    5851    292.04103    640.62629    22473.463     25229.45   -67166.835 
    5852    290.98054    647.19809    22474.587    25229.464   -67409.686 
    5853    288.63966    653.46367    22486.505    25230.692   -67519.864 
    5854    286.65925    657.69852    22498.193     25232.27   -67435.274 
    5855    287.23322    659.44839     22492.73    25232.714    -67147.45 
    5856    290.32202    659.56143    22469.251    25231.722   -66744.212 
    5857    293.13139    659.59151    22447.843    25230.693   -66392.161 
    5858    292.79997    661.05309    22449.342    25231.253   -66247.872 
    5859    289.46684    664.49674    22472.138     25233.35   -66367.341 
    5860    286.17846    669.00775    22493.323    25235.227   -66690.121 
    5861     285.6053    673.02227    22493.685    25235.452   -67098.555 
    5862    287.34365    675.65176    22477.608    25234.596    -67484.75 
    5863    288.91541    676.74172    22464.979    25234.441   -67771.299 
    5864    289.01084    675.98482    22466.315    25235.711   -67897.204 
    5865    288.87727    672.87333    22471.994    25237.312   -67819.964 
    5866    290.33348    667.23142    22467.564    25237.788   -67555.951 
    5867    293.07811     659.6297    22454.632    25237.134   -67211.818 
    5868    294.72937    651.74137    22450.334    25236.909   -66945.998 
    5869    293.73603     645.8473    22464.868    25238.353    -66874.75 
    5870    291.63633    643.35568    22484.922    25240.707    -67004.99 
    5871    291.60327    643.98191    22485.809    25241.981   -67251.485 
    5872    294.76985     646.3868    22459.876    25241.389   -67510.958 
    5873    298.76112    649.16856    22427.101    25240.306   -67714.786 
    5874    300.24951    651.50849    22414.323     25240.65   -67818.816 
    5875    298.54216    653.26713    22426.941    25242.659   -67773.014 
    5876     296.0145    654.65178    22445.826     25244.62   -67536.973 
    5877     294.9621    656.32218    22452.182    25245.023   -67136.209 
    5878    294.84486    659.46894    22449.339    25244.478   -66688.569 
    5879    293.39776    664.90297    22454.783    25244.874    -66351.59 
    5880    290.08901    672.12536    22473.567    25246.914   -66225.034 
    5881    287.39769    679.68794    22487.749    25249.164   -66296.837 
    5882    288.14977    686.22344    22476.376    25249.774   -66479.426 
    5883    292.03701    690.79363     22442.54    25248.665   -66688.871 
    5884    295.48566    692.94834    22414.466    25247.725   -66879.105 
    5885    295.23747    692.93494    22417.318    25248.766   -67010.226 
    5886    291.74069    691.40797    22446.848    25251.442   -67018.115 
    5887    288.49057     688.8882    22475.082    25253.614   -66846.721 
    5888    288.05277    685.92733    22481.489    25253.889   -66516.655 
    5889    289.46328    683.46231    22473.095    25253.246   -66147.249 
    5890    290.00783    682.41972    22470.664    25253.718   -65890.548 
    5891    288.96141    683.03684    22479.706    25255.797   -65831.035 
    5892     288.5166    684.68733    22483.315    25257.834   -65946.914 
    5893    290.74917    686.27612    22465.853    25258.133   -66161.285 
    5894    294.51479    686.93491    22436.973    25257.187   -66412.038 
    5895    296.37977    686.32987    22424.083    25257.201   -66662.128 
    5896    294.68137    684.33593    22440.545    25259.366   -66859.759 
    5897    291.75201    680.92621    22468.169    25262.362   -66925.075 
    5898     291.4669    676.35207    22476.326     25263.88     -66807.3 
    5899    294.89788    671.09467    22456.131    25263.279   -66559.672 
    5900    299.09148    665.88409    22430.019    25262.333   -66336.837 
    5901    300.38801    661.60032    22425.723    25263.144   -66297.612 
    5902    298.38124    658.86058    22445.531    25265.677   -66500.115 
    5903    295.92393    657.81007    22466.639    25267.935   -66883.311 
    5904     295.4647    658.13953    22470.193    25268.492   -67336.341 
    5905    296.35894      659.039    22462.498    25268.174   -67770.156 
    5906    296.30495    659.27126     22463.35    25268.867   -68123.537 
    5907     294.8063    657.71124    22477.979    25271.081    -68329.79 
    5908    294.10503    654.02454    22488.897    25273.233   -68320.779 
    5909    296.25178    649.11464    22478.596    25273.572   -68087.054 
    5910      299.912    645.14173    22454.976    25272.491   -67724.026 
    5911    301.15898    644.52962    22446.341    25272.276   -67393.329 
    5912    297.75303    648.29391    22469.407    25274.436   -67218.157 
    5913    291.96573     655.1946    22507.847    25277.857   -67207.766 
    5914    288.49084    662.55571    22527.815    25280.016   -67279.393 
    5915    289.68627    668.12005    22513.424    25279.849   -67342.308 
    5916    293.52533    671.21761    22481.563    25278.892   -67351.997 
    5917    296.37884    672.26147    22460.269    25279.311   -67293.511 
    5918     297.0537    671.64254    22458.032    25281.344   -67142.536 
    5919      297.307    669.46762    22460.245    25283.217   -66873.316 
    5920    298.65847     666.2378    22454.051    25283.582   -66511.347 
    5921    299.92193    663.03453     22447.77     25283.25   -66159.869 
    5922    298.72197    660.97832    22459.427    25284.158   -65947.123 
    5923    295.04641    660.68645    22489.032    25286.849   -65934.028 
    5924    292.18996    662.04078    22511.102    25289.582   -66077.372 
    5925    293.45395    664.28406    22500.371     25290.25   -66285.843 
    5926    298.20511    666.43884     22462.47    25288.919   -66502.864 
    5927    302.05136    667.75965    22432.308    25287.937   -66725.047 
    5928    301.27349    667.89617    22439.184    25289.315   -66946.998 
    5929    296.60879    666.93686    22477.049    25292.432    -67113.58 
    5930    292.13678    665.52128    22513.287    25294.862    -67150.75 
    5931    290.73067    664.50643    22524.826    25295.202   -67048.771 
    5932    291.38392    664.43066    22519.553    25294.585   -66898.113 
    5933    291.28692    665.37819    22519.905    25295.182   -66824.968 
    5934    289.84653    667.05132    22530.957    25297.474   -66889.465 
    5935     289.5654     668.8933    22533.308     25299.63     -67052.3 
    5936    292.65413    670.38625     22509.65    25299.837   -67235.444 
    5937     297.6771    671.11158    22471.337    25298.633   -67398.811 
    5938    300.55671    670.68874    22450.601    25298.333    -67544.55 
    5939    298.93782    669.11966    22465.911    25300.348   -67656.133 
    5940    294.83864    666.84402    22501.002    25303.471   -67666.777 
    5941     292.3786    664.36633    22523.026    25305.199   -67513.554 
    5942    293.11871     662.3301    22519.225    25304.722   -67219.358 
    5943    294.51264    661.63906     22508.97    25303.873   -66902.734 
    5944    293.30586      663.004    22517.383    25304.909   -66692.581 
    5945    289.74751    666.02224    22543.004    25307.774   -66633.723 
    5946    287.49154    668.83853    22558.888    25310.134   -66679.208 
    5947    289.27656    669.39865    22545.502    25310.237   -66762.355 
    5948    293.66488    667.33095    22514.626     25309.08   -66855.141 
    5949     296.8363    664.29307    22494.759    25309.147   -66950.711 
    5950    297.15815    662.40539    22496.482    25311.313   -67010.626 
    5951     296.8477    662.61152    22501.015    25313.804   -66963.728 
    5952    298.73983    664.44221     22486.12    25314.445   -66776.757 
    5953    302.28767    666.98028     22456.84    25313.401   -66517.254 
    5954    303.88965    669.86091    22442.005    25313.051   -66323.184 
    5955    301.29371    673.32109    22459.359    25315.062   -66297.189 
    5956    296.68746    677.65166    22491.615    25318.283   -66431.777 
    5957    294.55064    682.73007    22503.805    25320.074   -66640.005 
    5958    296.72358    687.64292    22482.514    25319.436   -66850.175 
    5959    300.47385    690.79679    22450.851     25318.09   -67054.075 
    5960    301.75272    691.40979    22441.438    25318.554   -67257.423 
    5961    299.90513    689.97213    22458.862    25321.158   -67412.548 
    5962     298.2269    687.07785     22476.25    25323.495   -67434.251 
    5963    299.52039    683.45633    22470.455    25323.448   -67287.305 
    5964    302.22157    680.58457    22452.273     25321.96   -67045.171 
    5965    302.15725    679.67889    22453.577    25321.892   -66844.808 
    5966    297.84421    680.10361    22486.924    25324.423   -66776.358 
    5967    292.65566    679.69468    22528.004    25327.511    -66822.29 
    5968    291.04683    677.10366    22543.167     25328.43   -66903.843 
    5969    293.46109    673.02553      22528.4    25327.073   -66972.897 
    5970    296.05457    669.02675      22512.5    25325.959   -67040.399 
    5971    295.40425    666.13055    22521.381    25327.233   -67115.952 
    5972    292.52394    664.21542    22547.032    25330.106   -67152.339 
    5973    291.40865     662.4696    22558.577    25331.827   -67079.377 
    5974    293.94634    660.64569    22541.302    25331.109   -66891.636 
    5975    297.52999    659.56728    22515.056    25329.743   -66681.543 
    5976    298.35387     659.9687    22509.291    25330.347   -66570.664 
    5977    296.22424    661.07681    22526.271    25333.009   -66612.505 
    5978    294.75962    661.19388    22538.963     25335.21    -66770.97 
    5979    296.77172    659.39639    22526.015    25335.038   -66988.493 
    5980    300.69224    656.04716    22499.429    25333.501   -67252.384 
    5981    302.42272    652.39766    22490.325    25333.282   -67573.331 
    5982    300.31664    649.79194    22510.367    25335.463   -67912.188 
    5983    297.18485     648.9985    22536.551    25338.169   -68162.627 
    5984    296.83849    650.28142    22538.505    25338.897   -68227.887 
    5985    299.46375    653.51704    22514.955    25337.599   -68112.708 
    5986    301.49846    657.93726    22494.868     25336.67   -67923.989 
    5987    300.06423    662.37255    22502.148    25337.996    -67773.52 
    5988    296.50558    666.08775    22526.928    25340.715   -67688.866 
    5989    294.80569    669.21484    22537.703    25342.304   -67624.847 
    5990    296.87438    672.33007    22518.907    25341.608   -67545.974 
    5991    300.37237    675.88012    22488.607    25340.195   -67470.316 
    5992    301.60498    679.95253    22475.841    25340.429   -67423.795 
    5993    299.92287     684.2261    22485.922    25342.599   -67372.317 
    5994    298.28941    687.94318    22496.031    25344.594   -67229.726 
    5995    299.35069    690.09299    22486.082    25344.483   -66945.971 
    5996    301.87043    690.09417    22466.335    25342.988   -66575.725 
    5997    302.09478    688.07888    22466.446    25342.708   -66245.254 
    5998    298.55158    684.24652    22498.092    25344.858   -66051.048 
    5999    294.32113    678.80282    22537.049    25347.728   -65995.656 
    6000    293.87689    672.55711    22547.502    25348.718   -66022.415 
    6001    298.19089    666.86464    22520.564    25347.335   -66097.094 
    6002    303.75718    662.92604    22482.551    25345.702    -66233.53 
    6003    306.52391    661.02615    22464.718     25346.01   -66439.493 
    6004    306.01045    660.30736    22471.135    25347.989   -66662.677 
    6005    304.89707    659.43551    22481.536    25349.453     -66815.9 
    6006     305.0236    657.61574    22482.105    25349.119   -66860.413 
    6007    305.01565    655.11155     22483.75    25348.202   -66849.504 
    6008    302.51395    652.74612    22504.856    25348.822   -66879.108 
    6009    298.02444    650.91239    22541.539    25351.152   -67001.291 
    6010    295.20855    649.44522    22565.321     25353.07    -67195.68 
[...]
    9752    306.02353    665.35727    22493.056    25375.054   -67957.513 
    9753    305.64295    672.27846    22489.052    25375.215   -67838.165 
    9754    304.11548    681.42059    22491.705    25375.947   -67825.861 
    9755     303.3763    690.81182    22487.659    25375.937   -67838.317 
    9756    303.99846    698.29433    22474.542     25374.81   -67791.879 
    9757     304.4969    702.70982    22465.312    25373.605   -67638.483 
    9758    303.28945    704.10181    22472.628    25373.567   -67359.115 
    9759    300.93953     702.3947    22492.258    25374.469   -66951.872 
    9760     299.6686     697.3435    22506.816    25374.769   -66443.027 
    9761    300.62717    690.51154    22505.746    25373.811   -65905.044 
    9762       302.61    684.37459    22496.154    25372.444   -65455.727 
    9763    303.61344    680.29189    22492.362    25371.838   -65209.263 
    9764    303.06242     678.1409    22498.822    25372.156   -65210.151 
    9765    302.13606     676.8087    22507.128    25372.419   -65414.251 
    9766    301.96814    675.23717      22509.3    25371.804   -65725.856 
    9767    302.12269    673.07417    22509.263    25370.723   -66049.041 
    9768     301.3213    670.09272    22517.579    25370.253   -66314.091 
    9769    299.39573     665.6462    22536.436    25370.716   -66477.119 
    9770    297.88091    659.46025    22554.149     25371.27   -66520.337 
    9771    298.45144    652.56661    22556.552    25370.912   -66470.583 
    9772     301.0237     646.7745    22542.383    25369.583   -66414.899 
    9773    303.64574    643.35186    22525.421     25368.19    -66476.09 
    9774    304.27674    642.48866    22521.207    25367.685   -66746.991 
    9775    302.62521    643.47617    22532.589    25368.091   -67231.802 
    9776    300.17459    645.19698     22549.03    25368.502   -67841.221 
    9777    298.47459    647.05124    22559.193    25368.205   -68438.574 
    9778    297.78595     649.1448    22561.368    25367.486   -68899.464 
    9779    297.52748    651.31508     22560.63    25367.046   -69148.607 
    9780    297.56233    652.88211    22558.825     25367.06   -69164.469 
    9781    298.51662    653.37955    22551.301    25366.946   -68974.915 
    9782    300.70702    653.32102    22534.661    25366.113   -68657.624 
    9783    303.08657    654.22585    22515.213    25364.806   -68329.426 
    9784     303.7601    657.66236    22506.027    25363.936   -68107.043 
    9785    301.72845    664.25376    22514.289    25364.073   -68050.221 
    9786    297.97317    673.51182    22532.966    25364.807   -68127.499 
    9787     294.6448    684.15947    22546.783    25365.163   -68236.102 
    9788    293.17904    694.38801     22546.65    25364.642   -68262.564 
    9789    293.30492    701.96079    22537.189    25363.665   -68138.432 
    9790    293.81517    704.90474    22529.898    25363.014   -67855.416 
    9791    294.03608    702.74208      22530.4    25362.954   -67447.119 
    9792    294.34217    696.95291    22534.022    25363.003   -66971.927 
    9793    295.27162    690.04602    22533.756    25362.563   -66512.006 
    9794    296.47693    684.33632    22529.936    25361.764   -66166.102 
    9795    297.02221    681.01341    22528.919    25361.374   -66015.591 
    9796    296.78253    679.66068    22532.378    25361.744   -66079.159 
    9797    297.02407    678.76614    22531.979      25362.2   -66295.411 
    9798    299.11523    677.06482    22518.123     25361.79   -66554.961 
    9799    302.77361    674.28984    22493.082    25360.472   -66759.826 
    9800    306.00058     670.6351    22472.076    25359.186   -66863.757 
    9801    306.86599    666.15674    22469.924    25358.824   -66869.007 
    9802    305.20725    660.77781    22487.786    25359.292   -66802.894 
    9803    302.46514    654.66551    22514.144    25359.676   -66708.225 
    9804    299.98384    648.77473    22537.699    25359.367   -66646.133 
    9805    297.87615    644.72072    22556.424    25358.771   -66685.849 
    9806    295.71871    643.62241    22573.005    25358.627   -66870.994 
    9807    293.87061    645.39647    22584.934    25358.943   -67183.838 
    9808    293.49768    649.04501    22584.031    25358.988   -67545.332 
    9809    295.21356     652.9879     22566.87    25358.199   -67859.038 
    9810    298.04734    655.51177    22542.546    25356.924   -68058.982 
    9811    300.13804    655.69644    22526.447    25356.154   -68120.955 
    9812    300.56274    653.74777    22525.501    25356.336   -68046.196 
    9813    300.15548    650.70991    22531.942    25356.788   -67852.004 
    9814    300.25633    648.29334    22533.386    25356.546   -67582.624 
    9815     300.9479    648.55553    22527.148     25355.58   -67317.636 
    9816    301.01826    652.76897    22521.667    25354.822   -67149.733 
    9817    299.63565    660.09577    22524.433      25354.9   -67137.766 
    9818    297.49669    668.04557    22532.437     25355.36    -67270.92 
    9819    296.04913    674.63965    22536.365    25355.398   -67473.902 
    9820    295.99898    679.31443    22531.493    25354.838   -67650.249 
    9821    296.90143    681.97499     22521.59    25354.131   -67726.902 
    9822    297.98713    682.49476    22512.835     25353.76   -67670.124 
    9823    299.03422    680.98589    22506.643    25353.643   -67483.466 
    9824    300.24482     678.2948    22500.234    25353.313   -67206.012 
    9825    301.44876    675.98487    22493.132    25352.621   -66910.624 
    9826    301.84346    675.45644    22490.143    25351.963   -66687.771 
    9827    300.75173     677.1539    22496.245    25351.855   -66608.232 
    9828     298.5879    680.30806    22509.214    25352.304   -66686.187 
    9829    296.82844    683.30446    22519.347    25352.689   -66871.844 
    9830    296.81238    684.73573    22517.752    25352.409   -67077.998 
    9831    298.63122    684.11501    22504.351    25351.562   -67220.873 
    9832    301.22235    681.30744    22487.449    25350.621   -67251.686 
    9833    303.26722    676.54899    22476.716    25349.942   -67162.372 
    9834     303.9326    671.11443    22476.989    25349.599   -66975.755 
    9835    303.06597     667.0105    22487.244    25349.472   -66737.923 
    9836    301.00267    665.82942    22503.352    25349.454   -66510.998 
    9837    298.39692    667.84395    22520.352    25349.595   -66357.245 
    9838     296.2091    671.58502    22532.605    25349.742     -66319.1 
    9839    295.35226    675.48862    22534.735    25349.568   -66399.283 
    9840     296.1397    679.52347    22524.528      25349.1   -66557.751 
    9841    298.19658    683.36388    22505.042    25348.354   -66739.717 
    9842    300.57577     685.6104    22484.656    25347.447   -66901.071 
    9843    302.07791    684.95986    22473.722    25346.743   -67016.852 
    9844    301.94293    681.21516    22478.234    25346.533   -67079.003 
    9845    300.37835    675.53022    22495.426    25346.707   -67092.141 
    9846    298.35715    670.01005    22515.772    25346.893   -67074.266 
    9847    296.89416    666.63501    22529.657    25346.805   -67060.079 
    9848    296.46997    666.14444    22532.838    25346.424   -67095.458 
    9849    296.96097    667.70826    22527.191    25345.897   -67218.791 
    9850    297.91333     669.4755    22517.979     25345.35    -67440.48 
    9851    298.80371    669.62574    22510.855    25344.826   -67734.155 
    9852    299.18124    667.33239    22509.988      25344.4   -68043.423 
    9853    298.82454    663.00542    22516.665    25344.167   -68299.389 
    9854    297.91422    657.94379     22528.28    25344.127   -68441.181 
    9855    297.01761    653.71921     22539.01    25344.137   -68434.661 
    9856    296.79077    651.50445    22542.741     25344.01   -68285.129 
    9857    297.58803    651.56709    22536.529    25343.636   -68038.127 
    9858    299.24008    653.26519    22522.275    25343.046   -67764.502 
    9859    301.11585    655.54441    22505.742    25342.379   -67534.449 
    9860    302.42803    657.63181    22493.593    25341.823   -67391.027 
    9861      302.661    659.36898    22489.898    25341.552   -67333.861 
    9862    301.93512    660.80757    22493.766    25341.601   -67320.416 
    9863    301.03403    661.64152    22499.605    25341.747   -67284.463 
    9864    300.92778    661.40825    22500.494    25341.633   -67163.274 
    9865    302.07683    660.26261    22492.797    25341.114   -66922.735 
    9866    304.13544    658.98865    22478.391    25340.345   -66573.748 
    9867    306.23293    658.27796    22463.108    25339.544   -66173.079 
    9868    307.42929    658.57519    22453.465    25338.864   -65804.294 
    9869    307.09134    660.36182    22453.719    25338.457   -65547.854 
    9870    305.16152    663.88248    22464.055    25338.335   -65455.947 
    9871     302.1648    668.83373    22480.826    25338.351   -65538.955 
    9872    298.94172    674.46621    22498.558    25338.369   -65765.078 
    9873    296.37415    679.74996    22511.818    25338.315     -66072.4 
    9874    295.19776    683.57154    22516.282     25338.08   -66388.642 
    9875    295.74158    685.23835    22510.123    25337.527    -66652.73 
    9876    297.64252    684.80315     22495.89    25336.628   -66835.332 
    9877    299.80979    682.78834    22481.126    25335.547   -66951.645 
    9878    300.80124    679.99125    22475.841    25334.646   -67053.442 
    9879    299.60025    677.53516    22486.686    25334.336   -67199.909 
    9880     296.3861    676.27728     22511.53    25334.641   -67427.135 
    9881    292.53589    676.04739    22540.081    25335.074   -67734.329 
    9882    289.69407    675.80797    22560.968    25335.137   -68088.558 
    9883    288.78382    674.35159    22568.625    25334.744   -68438.994 
    9884    289.78783    670.88968    22564.201    25334.131   -68729.202 
    9885    292.16157    665.47196    22551.784    25333.489   -68905.096 
    9886    295.21612    659.02123    22535.425    25332.805   -68926.944 
    9887    298.15204    652.76302    22519.644    25332.033   -68787.151 
    9888    300.03678    647.52126    22510.531    25331.329   -68519.601 
    9889     300.1272    643.63356     22513.43    25330.995   -68186.102 
    9890    298.46007      641.437    22527.898    25331.192   -67845.711 
    9891    296.12208    641.38839    22545.342    25331.652   -67530.665 
    9892    294.71074    643.77249    22553.389     25331.86   -67244.024 
    9893    295.30056    648.15775    22544.338    25331.467   -66975.413 
    9894    297.76505    653.23037     22520.53    25330.582   -66716.381 
    9895    300.98046    657.42042    22492.111    25329.643   -66462.097 
    9896    303.68972    659.75068    22469.539    25329.026   -66205.385 
    9897    305.26353    660.09975    22457.512    25328.748   -65937.281 
    9898    305.75638     658.9324    22454.881    25328.519   -65658.602 
    9899    305.37569    657.16452    22459.009    25328.122   -65392.018 
    9900    304.08808    656.25596    22468.843    25327.721   -65179.894 
    9901    301.91609    657.75008    22482.998    25327.638   -65065.935 
    9902    299.49084    662.23855    22496.247    25327.808   -65074.162 
    9903    297.88785    668.89243    22501.116    25327.719   -65201.314 
    9904    297.66643    676.08042    22494.831    25327.019   -65425.957 
    9905    298.21209    682.31955    22483.616    25325.996    -65720.95 
    9906    298.30192    686.67037    22477.941    25325.322   -66056.169 
    9907    297.36129    688.62532     22482.74    25325.263   -66394.794 
    9908    295.98103    688.35009    22493.166    25325.416   -66696.727 
    9909    295.16492    686.79446    22500.431    25325.213   -66937.776 
    9910      295.246    685.00259    22500.963    25324.541   -67130.824 
    9911    295.65613    683.57234    22498.707    25323.826   -67320.843 
    9912    295.74941    682.91657    22498.422    25323.561   -67549.913 
    9913    295.70658    683.40287    22498.365     25323.68   -67823.755 
    9914    296.41059    684.93295    22491.666     25323.61   -68110.295 
    9915    298.37115    686.42189    22475.293    25322.927   -68367.664 
    9916    300.94128    686.14123    22455.917    25321.886   -68568.814 
    9917    302.82445    682.98165    22444.743    25321.194    -68698.83 
    9918    303.39008    677.14019    22446.454     25321.16   -68739.949 
    9919    303.20574    669.46671    22455.515    25321.213   -68675.276 
    9920    303.01392    661.00555    22464.809    25320.656   -68511.195 
    9921    302.49053    653.21396     22475.39    25319.655    -68289.38 
    9922    300.57929    647.94218    22493.973    25319.121   -68065.132 
    9923    297.14937    646.52314    22520.656    25319.542   -67867.132 
    9924    293.84348    648.65791    22543.175     25320.25   -67679.986 
    9925    292.78304    652.24383     22547.12    25320.099   -67469.297 
    9926    294.41749    654.80768     22531.41    25318.792   -67219.462 
    9927    297.03353    655.65346    22510.181    25317.358   -66939.736 
    9928    298.66358    655.81598    22497.746    25316.893   -66641.796 
    9929    299.09257    656.17966    22494.563     25317.18   -66325.185 
    9930    299.47741    656.74059    22491.103    25317.069    -65992.22 
    9931    300.25502    657.49153    22483.693    25316.042   -65675.317 
    9932    300.24997    659.22726    22480.929    25314.978   -65436.317 
    9933    298.28753    662.69668    22491.671    25314.974   -65328.609 
    9934    295.17828    667.42536    22510.322    25315.832   -65357.158 
    9935     293.3192    672.09186    22519.513    25316.224   -65478.219 
    9936     294.2157    675.73883    22508.447    25315.299   -65639.868 
    9937    296.86805    678.06244    22485.266    25313.653   -65819.894 
    9938    298.85658     678.9184    22468.925    25312.572   -66021.722 
    9939    298.80251    678.33328    22469.977    25312.647   -66239.741 
    9940    297.52695      676.596    22481.523    25313.216   -66444.525 
    9941     296.8037    674.04937    22489.246    25313.154   -66609.478 
    9942    297.24755    671.36799    22487.756    25312.197   -66742.999 
    9943    297.83116    669.88066    22484.058    25311.239   -66884.192 
    9944     297.5018    670.78596    22485.396    25311.098   -67065.598 
    9945    296.66761    674.12319    22488.421    25311.417   -67282.698 
    9946    296.57785    678.71846    22484.234    25311.175   -67502.392 
    9947    297.47179    682.99592    22472.366    25310.059   -67696.456 
    9948    298.02468    685.82792    22464.417    25308.947   -67856.799 
    9949    296.93625    686.64244    22471.344    25308.805    -67977.67 
    9950    294.69306    685.13278    22489.764    25309.467   -68035.695 
    9951    293.22695    681.15019    22504.653    25309.754   -68003.413 
    9952    293.74424    675.34174    22505.873    25308.912   -67884.219 
    9953    295.36835    669.56074    22498.554    25307.577   -67725.236 
    9954    296.27673    665.76692    22495.072    25306.881   -67589.021 
    9955    295.80496    664.65058     22499.79    25307.064   -67509.464 
    9956     294.9212    665.43344    22505.635    25307.291   -67475.729 
    9957    294.70606    666.86503    22505.266    25306.796   -67454.018 
    9958    294.96094    668.19783    22501.183    25305.891   -67415.335 
    9959    294.74085     669.0282    22501.525    25305.469   -67340.762 
    9960    293.97251    668.80813    22507.639    25305.798   -67210.525 
    9961      293.914    666.91254     22510.27     25306.11    -67006.79 
    9962    295.72856    663.36846    22500.103    25305.542   -66737.276 
    9963    298.89552    659.37354     22479.83    25304.214   -66451.689 
    9964    301.45038    656.80148    22462.785    25303.103   -66223.195 
    9965    301.83892    657.06574    22459.531    25302.928   -66103.203 
    9966    300.32731    660.33501    22467.706    25303.422   -66088.833 
    9967    298.52593    665.51505    22475.868    25303.716   -66131.451 
    9968    297.76071    670.87717    22475.698    25303.366   -66173.567 
    9969    298.13187    674.54548    22468.629    25302.653   -66180.602 
    9970    298.97162    675.08508    22461.429    25302.075    -66146.17 
    9971    299.80263    672.30639    22457.904    25301.791   -66079.816 
    9972    300.68669    667.42974    22456.121    25301.535   -66000.117 
    9973    301.75498    662.40988    22452.853    25300.986   -65938.156 
    9974    302.62848    659.23334    22448.941    25300.223    -65935.61 
    9975    302.57597    659.17575    22448.837    25299.682   -66028.701 
    9976     301.3262    662.03412     22454.96    25299.611   -66227.002 
    9977    299.53672    666.21153    22463.893    25299.759   -66503.166 
    9978    298.30374    669.64868    22469.264    25299.636   -66804.779 
    9979    298.21093    670.66972    22468.288    25299.009   -67082.244 
    9980      298.865     668.5672    22464.749    25298.106    -67310.37 
    9981    299.32854    664.16169    22465.077    25297.385    -67487.77 
    9982    299.00728    659.61347    22471.655    25297.088    -67623.43 
    9983     298.0738    657.09948    22480.783    25296.941   -67729.718 
    9984    296.98147    657.78377    22487.618    25296.548   -67823.723 
    9985    295.76362    661.74879    22491.873    25295.946   -67925.463 
    9986    294.10831    668.21202    22496.997    25295.544   -68045.959 
    9987    292.10014    675.67691    22504.073    25295.539   -68172.917 
    9988    290.54605    682.37824    22508.688    25295.598     -68269.9 
    9989    290.32184    687.01971    22505.302     25295.23   -68295.652 
    9990     291.4358    689.14415    22494.233    25294.354   -68230.767 
    9991    292.89675     688.9042    22482.956    25293.419   -68089.196 
    9992    293.58968     686.6577    22479.692    25292.928   -67905.121 
    9993     293.2598     682.9956    22485.753    25292.937   -67708.009 
    9994    292.61904    678.89964    22494.578    25293.025   -67509.306 
    9995     292.5311    675.39291    22498.443    25292.747   -67310.446 
    9996    293.12655    672.91121    22495.926    25292.061   -67117.623 
    9997    293.74786     671.3242    22492.362     25291.41   -66941.866 
    9998    293.81814    670.16856    22492.829    25291.231   -66785.977 
    9999    293.63907    668.59901    22495.804    25291.339   -66638.488 
   10000    294.03733     665.8721    22495.435    25291.128   -66484.584 
Loop time of 117.885 on 1 procs for 5000 steps with 2431 atoms

Performance: 3.665 ns/day, 6.549 hours/ns, 42.414 timesteps/s
100.0% CPU use with 1 MPI tasks x no OpenMP threads

MPI task timing breakdown:
Section |  min time  |  avg time  |  max time  |%varavg| %total
---------------------------------------------------------------
Pair    | 108.98     | 108.98     | 108.98     |   0.0 | 92.45
Bond    | 4.5222     | 4.5222     | 4.5222     |   0.0 |  3.84
Neigh   | 3.6202     | 3.6202     | 3.6202     |   0.0 |  3.07
Comm    | 0.33382    | 0.33382    | 0.33382    |   0.0 |  0.28
Output  | 0.090971   | 0.090971   | 0.090971   |   0.0 |  0.08
Modify  | 0.20205    | 0.20205    | 0.20205    |   0.0 |  0.17
Other   |            | 0.1347     |            |       |  0.11

Nlocal:    2431 ave 2431 max 2431 min
Histogram: 1 0 0 0 0 0 0 0 0 0
Nghost:    16212 ave 16212 max 16212 min
Histogram: 1 0 0 0 0 0 0 0 0 0
Neighs:    1.37726e+06 ave 1.37726e+06 max 1.37726e+06 min
Histogram: 1 0 0 0 0 0 0 0 0 0

Total # of neighbors = 1377260
Ave neighs/atom = 566.541
Ave special neighs/atom = 6.58988
Neighbor list builds = 62
Dangerous builds = 0
unfix           5
unfix           6
undump          NiPyC2_experiment_with_Xe_xyzmov
Total wall time: 0:03:17
