2431
Atoms. Timestep: 0
Ni 2.90284 9.44214 8.62454
O 1.41938 4.37843 4.03677
O 4.63598 1.66661 3.80354
O 5.74507 4.41112 5.10941
O 0.30789 1.50029 4.87207
N 3.76768 10.556 7.15296
N 2.09513 8.09138 7.34715
C 3.55855 12.0137 5.2748
H 3.02658 12.3506 4.5628
C 4.83825 12.4984 5.48338
C 5.58983 11.9548 6.52828
H 0.22837 12.2454 6.68341
C 2.42543 6.50088 5.59025
H 2.98702 6.149 4.90906
C 2.86172 7.55413 6.38751
H 3.73275 7.90601 6.24572
C 3.06289 11.0319 6.11319
H 2.19487 10.6824 5.94982
C 5.01801 10.9918 7.33275
H 5.53257 10.6236 8.04066
C 0.86139 7.5704 7.5475
H 0.31361 7.94734 8.22662
C 0.36568 6.51591 6.80775
H 5.75184 6.16779 6.97727
C 1.17146 5.97366 5.80086
C 5.3864 1.11835 4.67481
C 0.65325 4.83652 4.94707
Ni 6.14303 3.08124 3.48739
O 4.43198 8.14496 9.17389
O 1.39579 10.8568 8.94069
O 2.50487 8.11227 10.2465
O 3.32049 11.0231 10.0092
N 0.75508 1.96744 2.01581
N 5.33533 4.43204 2.21
C 0.54595 0.50971 0.13769
H -0.21362 0.17282 9.69995
C 1.82565 0.02506 0.34623
C 2.57723 0.56855 1.39113
H 3.46857 0.27802 1.54629
C 5.66563 6.0225 0.4531
H 5.99962 6.37442 10.0462
C 6.10192 4.9693 1.25039
H 0.72015 4.61738 1.10861
C 0.05029 1.49154 0.97607
H 5.43506 1.84094 0.81271
C 2.00541 1.53162 2.1956
H 2.51996 1.89981 2.90351
C 4.10159 4.95299 2.41035
H 3.55381 4.57605 3.08947
C 3.60587 6.00747 1.6706
H 2.73923 6.35564 1.84012
C 4.41165 6.54973 0.66371
C 2.14621 11.4051 9.81193
C 3.66586 7.68686 10.0842
Ni 2.67524 9.44214 18.8988
O 1.19178 4.37843 14.311
O 4.40839 1.66661 14.0778
O 5.51747 4.41112 15.3837
O 0.08029 1.50029 15.1463
N 3.54009 10.556 17.4272
N 1.86754 8.09138 17.6214
C 3.33095 12.0137 15.5491
H 2.79898 12.3506 14.8371
C 4.61066 12.4984 15.7576
C 5.36224 11.9548 16.8026
H 0.00077 12.2454 16.9577
C 2.19784 6.50088 15.8645
H 2.75942 6.149 15.1833
C 2.63413 7.55413 16.6618
H 3.50516 7.90601 16.52
C 2.83529 11.0319 16.3875
H 1.96727 10.6824 16.2241
C 4.79042 10.9918 17.607
H 5.30497 10.6236 18.3149
C 0.6338 7.5704 17.8218
H 0.08602 7.94734 18.5009
C 0.13808 6.51591 17.082
H 5.52424 6.16779 17.2515
C 0.94386 5.97366 16.0751
C 5.15881 1.11835 14.9491
C 0.42566 4.83652 15.2213
Ni 5.91544 3.08124 13.7617
O 4.20439 8.14496 19.4482
O 1.16819 10.8568 19.215
O 2.27727 8.11227 20.5208
O 3.09289 11.0231 20.2835
N 0.52749 1.96744 12.2901
N 5.10774 4.43204 12.4843
C 0.31835 0.50971 10.4119
H -0.44122 0.17282 19.9742
C 1.59806 0.02506 10.6205
C 2.34963 0.56855 11.6654
H 3.24097 0.27802 11.8206
C 5.43804 6.0225 10.7274
H 5.77203 6.37442 20.3205
C 5.87433 4.9693 11.5247
H 0.49256 4.61738 11.3829
C -0.17731 1.49154 11.2503
H 5.20747 1.84094 11.087
C 1.77781 1.53162 12.4699
H 2.29237 1.89981 13.1778
C 3.874 4.95299 12.6846
H 3.32621 4.57605 13.3638
C 3.37828 6.00747 11.9449
H 2.51164 6.35564 12.1144
C 4.18406 6.54973 10.938
C 1.91861 11.4051 20.0862
C 3.43826 7.68686 20.3585
Ni 2.44765 9.44214 29.1731
O 0.96419 4.37843 24.5853
O 4.18079 1.66661 24.3521
O 5.28988 4.41112 25.6579
O -0.1473 1.50029 25.4206
N 3.31249 10.556 27.7015
N 1.63995 8.09138 27.8957
C 3.10336 12.0137 25.8234
H 2.57139 12.3506 25.1114
C 4.38307 12.4984 26.0319
C 5.13464 11.9548 27.0768
H -0.22682 12.2454 27.232
C 1.97024 6.50088 26.1388
H 2.53183 6.149 25.4576
C 2.40654 7.55413 26.9361
H 3.27757 7.90601 26.7943
C 2.6077 11.0319 26.6618
H 1.73968 10.6824 26.4984
C 4.56282 10.9918 27.8813
H 5.07738 10.6236 28.5892
C 0.40621 7.5704 28.096
H -0.14158 7.94734 28.7752
C -0.08951 6.51591 27.3563
H 5.29665 6.16779 27.5258
C 0.71627 5.97366 26.3494
C 4.93121 1.11835 25.2233
C 0.19807 4.83652 25.4956
Ni 5.68784 3.08124 24.036
O 3.97679 8.14496 29.7225
O 0.9406 10.8568 29.4892
O 2.04968 8.11227 30.7951
O 2.8653 11.0231 30.5578
N 0.29989 1.96744 22.5644
N 4.88014 4.43204 22.7586
C 0.09076 0.50971 20.6862
H -0.66881 0.17282 30.2485
C 1.37046 0.02506 20.8948
C 2.12204 0.56855 21.9397
H 3.01338 0.27802 22.0948
C 5.21044 6.0225 21.0017
H 5.54443 6.37442 30.5947
C 5.64673 4.9693 21.7989
H 0.26496 4.61738 21.6571
C -0.4049 1.49154 21.5246
H 4.97988 1.84094 21.3612
C 1.55022 1.53162 22.7442
H 2.06478 1.89981 23.4521
C 3.6464 4.95299 22.9589
H 3.09862 4.57605 23.638
C 3.15069 6.00747 22.2192
H 2.28404 6.35564 22.3887
C 3.95647 6.54973 21.2123
C 1.69102 11.4051 30.3605
C 3.21067 7.68686 30.6327
Ni 2.90284 21.9655 8.62454
O 1.41938 16.9018 4.03677
O 4.63598 14.19 3.80354
O 5.74507 16.9345 5.10941
O 0.30789 14.0237 4.87207
N 3.76768 23.0794 7.15296
N 2.09513 20.6148 7.34715
C 3.55855 24.5371 5.2748
H 3.02658 24.874 4.5628
C 4.83825 25.0218 5.48338
C 5.58983 24.4782 6.52828
H 0.22837 24.7688 6.68341
C 2.42543 19.0243 5.59025
H 2.98702 18.6724 4.90906
C 2.86172 20.0775 6.38751
H 3.73275 20.4294 6.24572
C 3.06289 23.5553 6.11319
H 2.19487 23.2059 5.94982
C 5.01801 23.5152 7.33275
H 5.53257 23.147 8.04066
C 0.86139 20.0938 7.5475
H 0.31361 20.4708 8.22662
C 0.36568 19.0393 6.80775
H 5.75184 18.6912 6.97727
C 1.17146 18.4971 5.80086
C 5.3864 13.6417 4.67481
C 0.65325 17.36 4.94707
Ni 6.14303 15.6047 3.48739
O 4.43198 20.6684 9.17389
O 1.39579 23.3802 8.94069
O 2.50487 20.6357 10.2465
O 3.32049 23.5465 10.0092
N 0.75508 14.4908 2.01581
N 5.33533 16.9554 2.21
C 0.54595 13.0331 0.13769
H -0.21362 12.6962 9.69995
C 1.82565 12.5484 0.34623
C 2.57723 13.092 1.39113
H 3.46857 12.8014 1.54629
C 5.66563 18.5459 0.4531
H 5.99962 18.8978 10.0462
C 6.10192 17.4927 1.25039
H 0.72015 17.1408 1.10861
C 0.05029 14.0149 0.97607
H 5.43506 14.3643 0.81271
C 2.00541 14.055 2.1956
H 2.51996 14.4232 2.90351
C 4.10159 17.4764 2.41035
H 3.55381 17.0994 3.08947
C 3.60587 18.5309 1.6706
H 2.73923 18.879 1.84012
C 4.41165 19.0731 0.66371
C 2.14621 23.9285 9.81193
C 3.66586 20.2102 10.0842
Ni 2.67524 21.9655 18.8988
O 1.19178 16.9018 14.311
O 4.40839 14.19 14.0778
O 5.51747 16.9345 15.3837
O 0.08029 14.0237 15.1463
N 3.54009 23.0794 17.4272
N 1.86754 20.6148 17.6214
C 3.33095 24.5371 15.5491
H 2.79898 24.874 14.8371
C 4.61066 25.0218 15.7576
C 5.36224 24.4782 16.8026
H 0.00077 24.7688 16.9577
C 2.19784 19.0243 15.8645
H 2.75942 18.6724 15.1833
C 2.63413 20.0775 16.6618
H 3.50516 20.4294 16.52
C 2.83529 23.5553 16.3875
H 1.96727 23.2059 16.2241
C 4.79042 23.5152 17.607
H 5.30497 23.147 18.3149
C 0.6338 20.0938 17.8218
H 0.08602 20.4708 18.5009
C 0.13808 19.0393 17.082
H 5.52424 18.6912 17.2515
C 0.94386 18.4971 16.0751
C 5.15881 13.6417 14.9491
C 0.42566 17.36 15.2213
Ni 5.91544 15.6047 13.7617
O 4.20439 20.6684 19.4482
O 1.16819 23.3802 19.215
O 2.27727 20.6357 20.5208
O 3.09289 23.5465 20.2835
N 0.52749 14.4908 12.2901
N 5.10774 16.9554 12.4843
C 0.31835 13.0331 10.4119
H -0.44122 12.6962 19.9742
C 1.59806 12.5484 10.6205
C 2.34963 13.092 11.6654
H 3.24097 12.8014 11.8206
C 5.43804 18.5459 10.7274
H 5.77203 18.8978 20.3205
C 5.87433 17.4927 11.5247
H 0.49256 17.1408 11.3829
C -0.17731 14.0149 11.2503
H 5.20747 14.3643 11.087
C 1.77781 14.055 12.4699
H 2.29237 14.4232 13.1778
C 3.874 17.4764 12.6846
H 3.32621 17.0994 13.3638
C 3.37828 18.5309 11.9449
H 2.51164 18.879 12.1144
C 4.18406 19.0731 10.938
C 1.91861 23.9285 20.0862
C 3.43826 20.2102 20.3585
Ni 2.44765 21.9655 29.1731
O 0.96419 16.9018 24.5853
O 4.18079 14.19 24.3521
O 5.28988 16.9345 25.6579
O -0.1473 14.0237 25.4206
N 3.31249 23.0794 27.7015
N 1.63995 20.6148 27.8957
C 3.10336 24.5371 25.8234
H 2.57139 24.874 25.1114
C 4.38307 25.0218 26.0319
C 5.13464 24.4782 27.0768
H -0.22682 24.7688 27.232
C 1.97024 19.0243 26.1388
H 2.53183 18.6724 25.4576
C 2.40654 20.0775 26.9361
H 3.27757 20.4294 26.7943
C 2.6077 23.5553 26.6618
H 1.73968 23.2059 26.4984
C 4.56282 23.5152 27.8813
H 5.07738 23.147 28.5892
C 0.40621 20.0938 28.096
H -0.14158 20.4708 28.7752
C -0.08951 19.0393 27.3563
H 5.29665 18.6912 27.5258
C 0.71627 18.4971 26.3494
C 4.93121 13.6417 25.2233
C 0.19807 17.36 25.4956
Ni 5.68784 15.6047 24.036
O 3.97679 20.6684 29.7225
O 0.9406 23.3802 29.4892
O 2.04968 20.6357 30.7951
O 2.8653 23.5465 30.5578
N 0.29989 14.4908 22.5644
N 4.88014 16.9554 22.7586
C 0.09076 13.0331 20.6862
H -0.66881 12.6962 30.2485
C 1.37046 12.5484 20.8948
C 2.12204 13.092 21.9397
H 3.01338 12.8014 22.0948
C 5.21044 18.5459 21.0017
H 5.54443 18.8978 30.5947
C 5.64673 17.4927 21.7989
H 0.26496 17.1408 21.6571
C -0.4049 14.0149 21.5246
H 4.97988 14.3643 21.3612
C 1.55022 14.055 22.7442
H 2.06478 14.4232 23.4521
C 3.6464 17.4764 22.9589
H 3.09862 17.0994 23.638
C 3.15069 18.5309 22.2192
H 2.28404 18.879 22.3887
C 3.95647 19.0731 21.2123
C 1.69102 23.9285 30.3605
C 3.21067 20.2102 30.6327
Ni 2.90284 34.489 8.62454
O 1.41938 29.4252 4.03677
O 4.63598 26.7134 3.80354
O 5.74507 29.4579 5.10941
O 0.30789 26.5471 4.87207
N 3.76768 35.6028 7.15296
N 2.09513 33.1382 7.34715
C 3.55855 37.0605 5.2748
H 3.02658 37.3974 4.5628
C 4.83825 37.5451 5.48338
C 5.58983 37.0016 6.52828
H 0.22837 37.2922 6.68341
C 2.42543 31.5477 5.59025
H 2.98702 31.1958 4.90906
C 2.86172 32.6009 6.38751
H 3.73275 32.9528 6.24572
C 3.06289 36.0787 6.11319
H 2.19487 35.7293 5.94982
C 5.01801 36.0386 7.33275
H 5.53257 35.6704 8.04066
C 0.86139 32.6172 7.5475
H 0.31361 32.9941 8.22662
C 0.36568 31.5627 6.80775
H 5.75184 31.2146 6.97727
C 1.17146 31.0205 5.80086
C 5.3864 26.1651 4.67481
C 0.65325 29.8833 4.94707
Ni 6.14303 28.1281 3.48739
O 4.43198 33.1918 9.17389
O 1.39579 35.9036 8.94069
O 2.50487 33.1591 10.2465
O 3.32049 36.0699 10.0092
N 0.75508 27.0142 2.01581
N 5.33533 29.4788 2.21
C 0.54595 25.5565 0.13769
H -0.21362 25.2196 9.69995
C 1.82565 25.0718 0.34623
C 2.57723 25.6154 1.39113
H 3.46857 25.3248 1.54629
C 5.66563 31.0693 0.4531
H 5.99962 31.4212 10.0462
C 6.10192 30.0161 1.25039
H 0.72015 29.6642 1.10861
C 0.05029 26.5383 0.97607
H 5.43506 26.8878 0.81271
C 2.00541 26.5784 2.1956
H 2.51996 26.9466 2.90351
C 4.10159 29.9998 2.41035
H 3.55381 29.6229 3.08947
C 3.60587 31.0543 1.6706
H 2.73923 31.4024 1.84012
C 4.41165 31.5965 0.66371
C 2.14621 36.4519 9.81193
C 3.66586 32.7337 10.0842
Ni 2.67524 34.489 18.8988
O 1.19178 29.4252 14.311
O 4.40839 26.7134 14.0778
O 5.51747 29.4579 15.3837
O 0.08029 26.5471 15.1463
N 3.54009 35.6028 17.4272
N 1.86754 33.1382 17.6214
C 3.33095 37.0605 15.5491
H 2.79898 37.3974 14.8371
C 4.61066 37.5451 15.7576
C 5.36224 37.0016 16.8026
H 0.00077 37.2922 16.9577
C 2.19784 31.5477 15.8645
H 2.75942 31.1958 15.1833
C 2.63413 32.6009 16.6618
H 3.50516 32.9528 16.52
C 2.83529 36.0787 16.3875
H 1.96727 35.7293 16.2241
C 4.79042 36.0386 17.607
H 5.30497 35.6704 18.3149
C 0.6338 32.6172 17.8218
H 0.08602 32.9941 18.5009
C 0.13808 31.5627 17.082
H 5.52424 31.2146 17.2515
C 0.94386 31.0205 16.0751
C 5.15881 26.1651 14.9491
C 0.42566 29.8833 15.2213
Ni 5.91544 28.1281 13.7617
O 4.20439 33.1918 19.4482
O 1.16819 35.9036 19.215
O 2.27727 33.1591 20.5208
O 3.09289 36.0699 20.2835
N 0.52749 27.0142 12.2901
N 5.10774 29.4788 12.4843
C 0.31835 25.5565 10.4119
H -0.44122 25.2196 19.9742
C 1.59806 25.0718 10.6205
C 2.34963 25.6154 11.6654
H 3.24097 25.3248 11.8206
C 5.43804 31.0693 10.7274
H 5.77203 31.4212 20.3205
C 5.87433 30.0161 11.5247
H 0.49256 29.6642 11.3829
C -0.17731 26.5383 11.2503
H 5.20747 26.8878 11.087
C 1.77781 26.5784 12.4699
H 2.29237 26.9466 13.1778
C 3.874 29.9998 12.6846
H 3.32621 29.6229 13.3638
C 3.37828 31.0543 11.9449
H 2.51164 31.4024 12.1144
C 4.18406 31.5965 10.938
C 1.91861 36.4519 20.0862
C 3.43826 32.7337 20.3585
Ni 2.44765 34.489 29.1731
O 0.96419 29.4252 24.5853
O 4.18079 26.7134 24.3521
O 5.28988 29.4579 25.6579
O -0.1473 26.5471 25.4206
N 3.31249 35.6028 27.7015
N 1.63995 33.1382 27.8957
C 3.10336 37.0605 25.8234
H 2.57139 37.3974 25.1114
C 4.38307 37.5451 26.0319
C 5.13464 37.0016 27.0768
H -0.22682 37.2922 27.232
C 1.97024 31.5477 26.1388
H 2.53183 31.1958 25.4576
C 2.40654 32.6009 26.9361
H 3.27757 32.9528 26.7943
C 2.6077 36.0787 26.6618
H 1.73968 35.7293 26.4984
C 4.56282 36.0386 27.8813
H 5.07738 35.6704 28.5892
C 0.40621 32.6172 28.096
H -0.14158 32.9941 28.7752
C -0.08951 31.5627 27.3563
H 5.29665 31.2146 27.5258
C 0.71627 31.0205 26.3494
C 4.93121 26.1651 25.2233
C 0.19807 29.8833 25.4956
Ni 5.68784 28.1281 24.036
O 3.97679 33.1918 29.7225
O 0.9406 35.9036 29.4892
O 2.04968 33.1591 30.7951
O 2.8653 36.0699 30.5578
N 0.29989 27.0142 22.5644
N 4.88014 29.4788 22.7586
C 0.09076 25.5565 20.6862
H -0.66881 25.2196 30.2485
C 1.37046 25.0718 20.8948
C 2.12204 25.6154 21.9397
H 3.01338 25.3248 22.0948
C 5.21044 31.0693 21.0017
H 5.54443 31.4212 30.5947
C 5.64673 30.0161 21.7989
H 0.26496 29.6642 21.6571
C -0.4049 26.5383 21.5246
H 4.97988 26.8878 21.3612
C 1.55022 26.5784 22.7442
H 2.06478 26.9466 23.4521
C 3.6464 29.9998 22.9589
H 3.09862 29.6229 23.638
C 3.15069 31.0543 22.2192
H 2.28404 31.4024 22.3887
C 3.95647 31.5965 21.2123
C 1.69102 36.4519 30.3605
C 3.21067 32.7337 30.6327
Ni 9.15564 9.44214 8.62454
O 7.67218 4.37843 4.03677
O 10.8888 1.66661 3.80354
O 11.9979 4.41112 5.10941
O 6.56069 1.50029 4.87207
N 10.0205 10.556 7.15296
N 8.34793 8.09138 7.34715
C 9.81135 12.0137 5.2748
H 9.27938 12.3506 4.5628
C 11.091 12.4984 5.48338
C 11.8426 11.9548 6.52828
H 6.48117 12.2454 6.68341
C 8.67823 6.50088 5.59025
H 9.23982 6.149 4.90906
C 9.11452 7.55413 6.38751
H 9.98555 7.90601 6.24572
C 9.31569 11.0319 6.11319
H 8.44767 10.6824 5.94982
C 11.2708 10.9918 7.33275
H 11.7854 10.6236 8.04066
C 7.11419 7.5704 7.5475
H 6.56641 7.94734 8.22662
C 6.61848 6.51591 6.80775
H 12.0046 6.16779 6.97727
C 7.42426 5.97366 5.80086
C 11.6392 1.11835 4.67481
C 6.90605 4.83652 4.94707
Ni 12.3958 3.08124 3.48739
O 10.6848 8.14496 9.17389
O 7.64859 10.8568 8.94069
O 8.75767 8.11227 10.2465
O 9.57329 11.0231 10.0092
N 7.00788 1.96744 2.01581
N 11.5881 4.43204 2.21
C 6.79875 0.50971 0.13769
H 6.03918 0.17282 9.69995
C 8.07845 0.02506 0.34623
C 8.83003 0.56855 1.39113
H 9.72137 0.27802 1.54629
C 11.9184 6.0225 0.4531
H 12.2524 6.37442 10.0462
C 12.3547 4.9693 1.25039
H 6.97295 4.61738 1.10861
C 6.30309 1.49154 0.97607
H 11.6879 1.84094 0.81271
C 8.25821 1.53162 2.1956
H 8.77276 1.89981 2.90351
C 10.3544 4.95299 2.41035
H 9.80661 4.57605 3.08947
C 9.85867 6.00747 1.6706
H 8.99203 6.35564 1.84012
C 10.6645 6.54973 0.66371
C 8.39901 11.4051 9.81193
C 9.91866 7.68686 10.0842
Ni 8.92804 9.44214 18.8988
O 7.44458 4.37843 14.311
O 10.6612 1.66661 14.0778
O 11.7703 4.41112 15.3837
O 6.33309 1.50029 15.1463
N 9.79289 10.556 17.4272
N 8.12034 8.09138 17.6214
C 9.58375 12.0137 15.5491
H 9.05178 12.3506 14.8371
C 10.8635 12.4984 15.7576
C 11.615 11.9548 16.8026
H 6.25357 12.2454 16.9577
C 8.45064 6.50088 15.8645
H 9.01222 6.149 15.1833
C 8.88693 7.55413 16.6618
H 9.75796 7.90601 16.52
C 9.08809 11.0319 16.3875
H 8.22007 10.6824 16.2241
C 11.0432 10.9918 17.607
H 11.5578 10.6236 18.3149
C 6.8866 7.5704 17.8218
H 6.33882 7.94734 18.5009
C 6.39088 6.51591 17.082
H 11.777 6.16779 17.2515
C 7.19666 5.97366 16.0751
C 11.4116 1.11835 14.9491
C 6.67846 4.83652 15.2213
Ni 12.1682 3.08124 13.7617
O 10.4572 8.14496 19.4482
O 7.42099 10.8568 19.215
O 8.53007 8.11227 20.5208
O 9.34569 11.0231 20.2835
N 6.78029 1.96744 12.2901
N 11.3605 4.43204 12.4843
C 6.57115 0.50971 10.4119
H 5.81158 0.17282 19.9742
C 7.85086 0.02506 10.6205
C 8.60243 0.56855 11.6654
H 9.49377 0.27802 11.8206
C 11.6908 6.0225 10.7274
H 12.0248 6.37442 20.3205
C 12.1271 4.9693 11.5247
H 6.74536 4.61738 11.3829
C 6.07549 1.49154 11.2503
H 11.4603 1.84094 11.087
C 8.03061 1.53162 12.4699
H 8.54517 1.89981 13.1778
C 10.1268 4.95299 12.6846
H 9.57901 4.57605 13.3638
C 9.63108 6.00747 11.9449
H 8.76444 6.35564 12.1144
C 10.4369 6.54973 10.938
C 8.17141 11.4051 20.0862
C 9.69106 7.68686 20.3585
Ni 8.70045 9.44214 29.1731
O 7.21699 4.37843 24.5853
O 10.4336 1.66661 24.3521
O 11.5427 4.41112 25.6579
O 6.1055 1.50029 25.4206
N 9.56529 10.556 27.7015
N 7.89275 8.09138 27.8957
C 9.35616 12.0137 25.8234
H 8.82419 12.3506 25.1114
C 10.6359 12.4984 26.0319
C 11.3874 11.9548 27.0768
H 6.02598 12.2454 27.232
C 8.22304 6.50088 26.1388
H 8.78463 6.149 25.4576
C 8.65934 7.55413 26.9361
H 9.53037 7.90601 26.7943
C 8.8605 11.0319 26.6618
H 7.99248 10.6824 26.4984
C 10.8156 10.9918 27.8813
H 11.3302 10.6236 28.5892
C 6.65901 7.5704 28.096
H 6.11122 7.94734 28.7752
C 6.16329 6.51591 27.3563
H 11.5494 6.16779 27.5258
C 6.96907 5.97366 26.3494
C 11.184 1.11835 25.2233
C 6.45087 4.83652 25.4956
Ni 11.9406 3.08124 24.036
O 10.2296 8.14496 29.7225
O 7.1934 10.8568 29.4892
O 8.30248 8.11227 30.7951
O 9.1181 11.0231 30.5578
N 6.55269 1.96744 22.5644
N 11.1329 4.43204 22.7586
C 6.34356 0.50971 20.6862
H 5.58399 0.17282 30.2485
C 7.62326 0.02506 20.8948
C 8.37484 0.56855 21.9397
H 9.26618 0.27802 22.0948
C 11.4632 6.0225 21.0017
H 11.7972 6.37442 30.5947
C 11.8995 4.9693 21.7989
H 6.51776 4.61738 21.6571
C 5.8479 1.49154 21.5246
H 11.2327 1.84094 21.3612
C 7.80302 1.53162 22.7442
H 8.31758 1.89981 23.4521
C 9.8992 4.95299 22.9589
H 9.35142 4.57605 23.638
C 9.40349 6.00747 22.2192
H 8.53684 6.35564 22.3887
C 10.2093 6.54973 21.2123
C 7.94382 11.4051 30.3605
C 9.46347 7.68686 30.6327
Ni 9.15564 21.9655 8.62454
O 7.67218 16.9018 4.03677
O 10.8888 14.19 3.80354
O 11.9979 16.9345 5.10941
O 6.56069 14.0237 4.87207
N 10.0205 23.0794 7.15296
N 8.34793 20.6148 7.34715
C 9.81135 24.5371 5.2748
H 9.27938 24.874 4.5628
C 11.091 25.0218 5.48338
C 11.8426 24.4782 6.52828
H 6.48117 24.7688 6.68341
C 8.67823 19.0243 5.59025
H 9.23982 18.6724 4.90906
C 9.11452 20.0775 6.38751
H 9.98555 20.4294 6.24572
C 9.31569 23.5553 6.11319
H 8.44767 23.2059 5.94982
C 11.2708 23.5152 7.33275
H 11.7854 23.147 8.04066
C 7.11419 20.0938 7.5475
H 6.56641 20.4708 8.22662
C 6.61848 19.0393 6.80775
H 12.0046 18.6912 6.97727
C 7.42426 18.4971 5.80086
C 11.6392 13.6417 4.67481
C 6.90605 17.36 4.94707
Ni 12.3958 15.6047 3.48739
O 10.6848 20.6684 9.17389
O 7.64859 23.3802 8.94069
O 8.75767 20.6357 10.2465
O 9.57329 23.5465 10.0092
N 7.00788 14.4908 2.01581
N 11.5881 16.9554 2.21
C 6.79875 13.0331 0.13769
H 6.03918 12.6962 9.69995
C 8.07845 12.5484 0.34623
C 8.83003 13.092 1.39113
H 9.72137 12.8014 1.54629
C 11.9184 18.5459 0.4531
H 12.2524 18.8978 10.0462
C 12.3547 17.4927 1.25039
H 6.97295 17.1408 1.10861
C 6.30309 14.0149 0.97607
H 11.6879 14.3643 0.81271
C 8.25821 14.055 2.1956
H 8.77276 14.4232 2.90351
C 10.3544 17.4764 2.41035
H 9.80661 17.0994 3.08947
C 9.85867 18.5309 1.6706
H 8.99203 18.879 1.84012
C 10.6645 19.0731 0.66371
C 8.39901 23.9285 9.81193
C 9.91866 20.2102 10.0842
Ni 8.92804 21.9655 18.8988
O 7.44458 16.9018 14.311
O 10.6612 14.19 14.0778
O 11.7703 16.9345 15.3837
O 6.33309 14.0237 15.1463
N 9.79289 23.0794 17.4272
N 8.12034 20.6148 17.6214
C 9.58375 24.5371 15.5491
H 9.05178 24.874 14.8371
C 10.8635 25.0218 15.7576
C 11.615 24.4782 16.8026
H 6.25357 24.7688 16.9577
C 8.45064 19.0243 15.8645
H 9.01222 18.6724 15.1833
C 8.88693 20.0775 16.6618
H 9.75796 20.4294 16.52
C 9.08809 23.5553 16.3875
H 8.22007 23.2059 16.2241
C 11.0432 23.5152 17.607
H 11.5578 23.147 18.3149
C 6.8866 20.0938 17.8218
H 6.33882 20.4708 18.5009
C 6.39088 19.0393 17.082
H 11.777 18.6912 17.2515
C 7.19666 18.4971 16.0751
C 11.4116 13.6417 14.9491
C 6.67846 17.36 15.2213
Ni 12.1682 15.6047 13.7617
O 10.4572 20.6684 19.4482
O 7.42099 23.3802 19.215
O 8.53007 20.6357 20.5208
O 9.34569 23.5465 20.2835
N 6.78029 14.4908 12.2901
N 11.3605 16.9554 12.4843
C 6.57115 13.0331 10.4119
H 5.81158 12.6962 19.9742
C 7.85086 12.5484 10.6205
C 8.60243 13.092 11.6654
H 9.49377 12.8014 11.8206
C 11.6908 18.5459 10.7274
H 12.0248 18.8978 20.3205
C 12.1271 17.4927 11.5247
H 6.74536 17.1408 11.3829
C 6.07549 14.0149 11.2503
H 11.4603 14.3643 11.087
C 8.03061 14.055 12.4699
H 8.54517 14.4232 13.1778
C 10.1268 17.4764 12.6846
H 9.57901 17.0994 13.3638
C 9.63108 18.5309 11.9449
H 8.76444 18.879 12.1144
C 10.4369 19.0731 10.938
C 8.17141 23.9285 20.0862
C 9.69106 20.2102 20.3585
Ni 8.70045 21.9655 29.1731
O 7.21699 16.9018 24.5853
O 10.4336 14.19 24.3521
O 11.5427 16.9345 25.6579
O 6.1055 14.0237 25.4206
N 9.56529 23.0794 27.7015
N 7.89275 20.6148 27.8957
C 9.35616 24.5371 25.8234
H 8.82419 24.874 25.1114
C 10.6359 25.0218 26.0319
C 11.3874 24.4782 27.0768
H 6.02598 24.7688 27.232
C 8.22304 19.0243 26.1388
H 8.78463 18.6724 25.4576
C 8.65934 20.0775 26.9361
H 9.53037 20.4294 26.7943
C 8.8605 23.5553 26.6618
H 7.99248 23.2059 26.4984
C 10.8156 23.5152 27.8813
H 11.3302 23.147 28.5892
C 6.65901 20.0938 28.096
H 6.11122 20.4708 28.7752
C 6.16329 19.0393 27.3563
H 11.5494 18.6912 27.5258
C 6.96907 18.4971 26.3494
C 11.184 13.6417 25.2233
C 6.45087 17.36 25.4956
Ni 11.9406 15.6047 24.036
O 10.2296 20.6684 29.7225
O 7.1934 23.3802 29.4892
O 8.30248 20.6357 30.7951
O 9.1181 23.5465 30.5578
N 6.55269 14.4908 22.5644
N 11.1329 16.9554 22.7586
C 6.34356 13.0331 20.6862
H 5.58399 12.6962 30.2485
C 7.62326 12.5484 20.8948
C 8.37484 13.092 21.9397
H 9.26618 12.8014 22.0948
C 11.4632 18.5459 21.0017
H 11.7972 18.8978 30.5947
C 11.8995 17.4927 21.7989
H 6.51776 17.1408 21.6571
C 5.8479 14.0149 21.5246
H 11.2327 14.3643 21.3612
C 7.80302 14.055 22.7442
H 8.31758 14.4232 23.4521
C 9.8992 17.4764 22.9589
H 9.35142 17.0994 23.638
C 9.40349 18.5309 22.2192
H 8.53684 18.879 22.3887
C 10.2093 19.0731 21.2123
C 7.94382 23.9285 30.3605
C 9.46347 20.2102 30.6327
Ni 9.15564 34.489 8.62454
O 7.67218 29.4252 4.03677
O 10.8888 26.7134 3.80354
O 11.9979 29.4579 5.10941
O 6.56069 26.5471 4.87207
N 10.0205 35.6028 7.15296
N 8.34793 33.1382 7.34715
C 9.81135 37.0605 5.2748
H 9.27938 37.3974 4.5628
C 11.091 37.5451 5.48338
C 11.8426 37.0016 6.52828
H 6.48117 37.2922 6.68341
C 8.67823 31.5477 5.59025
H 9.23982 31.1958 4.90906
C 9.11452 32.6009 6.38751
H 9.98555 32.9528 6.24572
C 9.31569 36.0787 6.11319
H 8.44767 35.7293 5.94982
C 11.2708 36.0386 7.33275
H 11.7854 35.6704 8.04066
C 7.11419 32.6172 7.5475
H 6.56641 32.9941 8.22662
C 6.61848 31.5627 6.80775
H 12.0046 31.2146 6.97727
C 7.42426 31.0205 5.80086
C 11.6392 26.1651 4.67481
C 6.90605 29.8833 4.94707
Ni 12.3958 28.1281 3.48739
O 10.6848 33.1918 9.17389
O 7.64859 35.9036 8.94069
O 8.75767 33.1591 10.2465
O 9.57329 36.0699 10.0092
N 7.00788 27.0142 2.01581
N 11.5881 29.4788 2.21
C 6.79875 25.5565 0.13769
H 6.03918 25.2196 9.69995
C 8.07845 25.0718 0.34623
C 8.83003 25.6154 1.39113
H 9.72137 25.3248 1.54629
C 11.9184 31.0693 0.4531
H 12.2524 31.4212 10.0462
C 12.3547 30.0161 1.25039
H 6.97295 29.6642 1.10861
C 6.30309 26.5383 0.97607
H 11.6879 26.8878 0.81271
C 8.25821 26.5784 2.1956
H 8.77276 26.9466 2.90351
C 10.3544 29.9998 2.41035
H 9.80661 29.6229 3.08947
C 9.85867 31.0543 1.6706
H 8.99203 31.4024 1.84012
C 10.6645 31.5965 0.66371
C 8.39901 36.4519 9.81193
C 9.91866 32.7337 10.0842
Ni 8.92804 34.489 18.8988
O 7.44458 29.4252 14.311
O 10.6612 26.7134 14.0778
O 11.7703 29.4579 15.3837
O 6.33309 26.5471 15.1463
N 9.79289 35.6028 17.4272
N 8.12034 33.1382 17.6214
C 9.58375 37.0605 15.5491
H 9.05178 37.3974 14.8371
C 10.8635 37.5451 15.7576
C 11.615 37.0016 16.8026
H 6.25357 37.2922 16.9577
C 8.45064 31.5477 15.8645
H 9.01222 31.1958 15.1833
C 8.88693 32.6009 16.6618
H 9.75796 32.9528 16.52
C 9.08809 36.0787 16.3875
H 8.22007 35.7293 16.2241
C 11.0432 36.0386 17.607
H 11.5578 35.6704 18.3149
C 6.8866 32.6172 17.8218
H 6.33882 32.9941 18.5009
C 6.39088 31.5627 17.082
H 11.777 31.2146 17.2515
C 7.19666 31.0205 16.0751
C 11.4116 26.1651 14.9491
C 6.67846 29.8833 15.2213
Ni 12.1682 28.1281 13.7617
O 10.4572 33.1918 19.4482
O 7.42099 35.9036 19.215
O 8.53007 33.1591 20.5208
O 9.34569 36.0699 20.2835
N 6.78029 27.0142 12.2901
N 11.3605 29.4788 12.4843
C 6.57115 25.5565 10.4119
H 5.81158 25.2196 19.9742
C 7.85086 25.0718 10.6205
C 8.60243 25.6154 11.6654
H 9.49377 25.3248 11.8206
C 11.6908 31.0693 10.7274
H 12.0248 31.4212 20.3205
C 12.1271 30.0161 11.5247
H 6.74536 29.6642 11.3829
C 6.07549 26.5383 11.2503
H 11.4603 26.8878 11.087
C 8.03061 26.5784 12.4699
H 8.54517 26.9466 13.1778
C 10.1268 29.9998 12.6846
H 9.57901 29.6229 13.3638
C 9.63108 31.0543 11.9449
H 8.76444 31.4024 12.1144
C 10.4369 31.5965 10.938
C 8.17141 36.4519 20.0862
C 9.69106 32.7337 20.3585
Ni 8.70045 34.489 29.1731
O 7.21699 29.4252 24.5853
O 10.4336 26.7134 24.3521
O 11.5427 29.4579 25.6579
O 6.1055 26.5471 25.4206
N 9.56529 35.6028 27.7015
N 7.89275 33.1382 27.8957
C 9.35616 37.0605 25.8234
H 8.82419 37.3974 25.1114
C 10.6359 37.5451 26.0319
C 11.3874 37.0016 27.0768
H 6.02598 37.2922 27.232
C 8.22304 31.5477 26.1388
H 8.78463 31.1958 25.4576
C 8.65934 32.6009 26.9361
H 9.53037 32.9528 26.7943
C 8.8605 36.0787 26.6618
H 7.99248 35.7293 26.4984
C 10.8156 36.0386 27.8813
H 11.3302 35.6704 28.5892
C 6.65901 32.6172 28.096
H 6.11122 32.9941 28.7752
C 6.16329 31.5627 27.3563
H 11.5494 31.2146 27.5258
C 6.96907 31.0205 26.3494
C 11.184 26.1651 25.2233
C 6.45087 29.8833 25.4956
Ni 11.9406 28.1281 24.036
O 10.2296 33.1918 29.7225
O 7.1934 35.9036 29.4892
O 8.30248 33.1591 30.7951
O 9.1181 36.0699 30.5578
N 6.55269 27.0142 22.5644
N 11.1329 29.4788 22.7586
C 6.34356 25.5565 20.6862
H 5.58399 25.2196 30.2485
C 7.62326 25.0718 20.8948
C 8.37484 25.6154 21.9397
H 9.26618 25.3248 22.0948
C 11.4632 31.0693 21.0017
H 11.7972 31.4212 30.5947
C 11.8995 30.0161 21.7989
H 6.51776 29.6642 21.6571
C 5.8479 26.5383 21.5246
H 11.2327 26.8878 21.3612
C 7.80302 26.5784 22.7442
H 8.31758 26.9466 23.4521
C 9.8992 29.9998 22.9589
H 9.35142 29.6229 23.638
C 9.40349 31.0543 22.2192
H 8.53684 31.4024 22.3887
C 10.2093 31.5965 21.2123
C 7.94382 36.4519 30.3605
C 9.46347 32.7337 30.6327
Ni 15.4084 9.44214 8.62454
O 13.925 4.37843 4.03677
O 17.1416 1.66661 3.80354
O 18.2507 4.41112 5.10941
O 12.8135 1.50029 4.87207
N 16.2733 10.556 7.15296
N 14.6007 8.09138 7.34715
C 16.0641 12.0137 5.2748
H 15.5322 12.3506 4.5628
C 17.3438 12.4984 5.48338
C 18.0954 11.9548 6.52828
H 12.734 12.2454 6.68341
C 14.931 6.50088 5.59025
H 15.4926 6.149 4.90906
C 15.3673 7.55413 6.38751
H 16.2384 7.90601 6.24572
C 15.5685 11.0319 6.11319
H 14.7005 10.6824 5.94982
C 17.5236 10.9918 7.33275
H 18.0382 10.6236 8.04066
C 13.367 7.5704 7.5475
H 12.8192 7.94734 8.22662
C 12.8713 6.51591 6.80775
H 18.2574 6.16779 6.97727
C 13.6771 5.97366 5.80086
C 17.892 1.11835 4.67481
C 13.1588 4.83652 4.94707
Ni 18.6486 3.08124 3.48739
O 16.9376 8.14496 9.17389
O 13.9014 10.8568 8.94069
O 15.0105 8.11227 10.2465
O 15.8261 11.0231 10.0092
N 13.2607 1.96744 2.01581
N 17.8409 4.43204 2.21
C 13.0516 0.50971 0.13769
H 12.292 0.17282 9.69995
C 14.3312 0.02506 0.34623
C 15.0828 0.56855 1.39113
H 15.9742 0.27802 1.54629
C 18.1712 6.0225 0.4531
H 18.5052 6.37442 10.0462
C 18.6075 4.9693 1.25039
H 13.2257 4.61738 1.10861
C 12.5559 1.49154 0.97607
H 17.9407 1.84094 0.81271
C 14.511 1.53162 2.1956
H 15.0256 1.89981 2.90351
C 16.6072 4.95299 2.41035
H 16.0594 4.57605 3.08947
C 16.1115 6.00747 1.6706
H 15.2448 6.35564 1.84012
C 16.9172 6.54973 0.66371
C 14.6518 11.4051 9.81193
C 16.1715 7.68686 10.0842
Ni 15.1808 9.44214 18.8988
O 13.6974 4.37843 14.311
O 16.914 1.66661 14.0778
O 18.0231 4.41112 15.3837
O 12.5859 1.50029 15.1463
N 16.0457 10.556 17.4272
N 14.3731 8.09138 17.6214
C 15.8366 12.0137 15.5491
H 15.3046 12.3506 14.8371
C 17.1163 12.4984 15.7576
C 17.8678 11.9548 16.8026
H 12.5064 12.2454 16.9577
C 14.7034 6.50088 15.8645
H 15.265 6.149 15.1833
C 15.1397 7.55413 16.6618
H 16.0108 7.90601 16.52
C 15.3409 11.0319 16.3875
H 14.4729 10.6824 16.2241
C 17.296 10.9918 17.607
H 17.8106 10.6236 18.3149
C 13.1394 7.5704 17.8218
H 12.5916 7.94734 18.5009
C 12.6437 6.51591 17.082
H 18.0298 6.16779 17.2515
C 13.4495 5.97366 16.0751
C 17.6644 1.11835 14.9491
C 12.9313 4.83652 15.2213
Ni 18.421 3.08124 13.7617
O 16.71 8.14496 19.4482
O 13.6738 10.8568 19.215
O 14.7829 8.11227 20.5208
O 15.5985 11.0231 20.2835
N 13.0331 1.96744 12.2901
N 17.6133 4.43204 12.4843
C 12.8239 0.50971 10.4119
H 12.0644 0.17282 19.9742
C 14.1037 0.02506 10.6205
C 14.8552 0.56855 11.6654
H 15.7466 0.27802 11.8206
C 17.9436 6.0225 10.7274
H 18.2776 6.37442 20.3205
C 18.3799 4.9693 11.5247
H 12.9982 4.61738 11.3829
C 12.3283 1.49154 11.2503
H 17.7131 1.84094 11.087
C 14.2834 1.53162 12.4699
H 14.798 1.89981 13.1778
C 16.3796 4.95299 12.6846
H 15.8318 4.57605 13.3638
C 15.8839 6.00747 11.9449
H 15.0172 6.35564 12.1144
C 16.6897 6.54973 10.938
C 14.4242 11.4051 20.0862
C 15.9439 7.68686 20.3585
Ni 14.9532 9.44214 29.1731
O 13.4698 4.37843 24.5853
O 16.6864 1.66661 24.3521
O 17.7955 4.41112 25.6579
O 12.3583 1.50029 25.4206
N 15.8181 10.556 27.7015
N 14.1455 8.09138 27.8957
C 15.609 12.0137 25.8234
H 15.077 12.3506 25.1114
C 16.8887 12.4984 26.0319
C 17.6402 11.9548 27.0768
H 12.2788 12.2454 27.232
C 14.4758 6.50088 26.1388
H 15.0374 6.149 25.4576
C 14.9121 7.55413 26.9361
H 15.7832 7.90601 26.7943
C 15.1133 11.0319 26.6618
H 14.2453 10.6824 26.4984
C 17.0684 10.9918 27.8813
H 17.583 10.6236 28.5892
C 12.9118 7.5704 28.096
H 12.364 7.94734 28.7752
C 12.4161 6.51591 27.3563
H 17.8023 6.16779 27.5258
C 13.2219 5.97366 26.3494
C 17.4368 1.11835 25.2233
C 12.7037 4.83652 25.4956
Ni 18.1934 3.08124 24.036
O 16.4824 8.14496 29.7225
O 13.4462 10.8568 29.4892
O 14.5553 8.11227 30.7951
O 15.3709 11.0231 30.5578
N 12.8055 1.96744 22.5644
N 17.3857 4.43204 22.7586
C 12.5964 0.50971 20.6862
H 11.8368 0.17282 30.2485
C 13.8761 0.02506 20.8948
C 14.6276 0.56855 21.9397
H 15.519 0.27802 22.0948
C 17.716 6.0225 21.0017
H 18.05 6.37442 30.5947
C 18.1523 4.9693 21.7989
H 12.7706 4.61738 21.6571
C 12.1007 1.49154 21.5246
H 17.4855 1.84094 21.3612
C 14.0558 1.53162 22.7442
H 14.5704 1.89981 23.4521
C 16.152 4.95299 22.9589
H 15.6042 4.57605 23.638
C 15.6563 6.00747 22.2192
H 14.7896 6.35564 22.3887
C 16.4621 6.54973 21.2123
C 14.1966 11.4051 30.3605
C 15.7163 7.68686 30.6327
Ni 15.4084 21.9655 8.62454
O 13.925 16.9018 4.03677
O 17.1416 14.19 3.80354
O 18.2507 16.9345 5.10941
O 12.8135 14.0237 4.87207
N 16.2733 23.0794 7.15296
N 14.6007 20.6148 7.34715
C 16.0641 24.5371 5.2748
H 15.5322 24.874 4.5628
C 17.3438 25.0218 5.48338
C 18.0954 24.4782 6.52828
H 12.734 24.7688 6.68341
C 14.931 19.0243 5.59025
H 15.4926 18.6724 4.90906
C 15.3673 20.0775 6.38751
H 16.2384 20.4294 6.24572
C 15.5685 23.5553 6.11319
H 14.7005 23.2059 5.94982
C 17.5236 23.5152 7.33275
H 18.0382 23.147 8.04066
C 13.367 20.0938 7.5475
H 12.8192 20.4708 8.22662
C 12.8713 19.0393 6.80775
H 18.2574 18.6912 6.97727
C 13.6771 18.4971 5.80086
C 17.892 13.6417 4.67481
C 13.1588 17.36 4.94707
Ni 18.6486 15.6047 3.48739
O 16.9376 20.6684 9.17389
O 13.9014 23.3802 8.94069