2233
Atoms. Timestep: 0
Ni 5.29536 2.95183 0.32551
O 0.32121 10.3344 5.45359
O 1.38209 10.2156 3.5771
C 2.22241 0.23757 6.63651
C 3.21943 0.45139 4.45152
C 4.03728 1.42543 4.99688
H 4.78023 2.01936 4.35366
H 4.22727 0.47514 2.67503
N 4.03792 1.78179 6.29468
N 3.40993 0.08315 3.18493
C 2.23237 11.7361 5.29616
H 2.86825 11.1896 2.83459
C 1.27649 10.6907 4.76853
C 3.15356 1.17598 0.02269
H 3.18592 1.44919 1.07157
H 1.48665 11.641 0.25601
O 5.90653 4.06129 5.97059
O 6.97002 4.44141 0.73826
C 7.31593 6.19944 4.61747
C 8.72696 6.36812 6.56417
C 9.51127 7.31009 5.84293
H 10.4172 7.71871 6.28617
H 9.77551 6.69478 1.19213
N 9.16135 7.75316 4.63591
N 9.04053 6.12223 0.74393
C 7.61599 5.75875 5.90605
H 8.41963 5.48079 1.2595
C 6.81148 4.74194 6.58474
C 8.08438 7.20437 4.01467
H 7.84394 7.6023 3.03245
H 6.45031 5.8217 4.07991
Ni 10.6061 8.92677 3.87141
O 5.62847 1.54422 1.90769
O 6.68936 1.663 0.0312
C 7.52967 11.641 3.09061
C 8.5267 11.4272 0.90562
C 9.34455 10.4532 1.45098
H 10.0875 9.85924 0.80776
H 9.538 11.4035 6.22093
N 9.34518 10.0968 2.74878
N 8.72067 11.7954 6.73083
C 7.53964 0.14254 1.75026
H 8.17898 0.68896 6.38049
C 6.58376 1.18786 1.22263
C 8.46429 10.7026 3.56859
H 8.49666 10.4294 4.61747
H 6.79738 0.23757 3.80191
O 0.59579 7.81731 2.42469
O 1.66275 7.43719 4.28416
C 2.0052 5.67916 1.07157
C 3.41622 5.51048 3.01827
C 4.20054 4.56851 2.29703
H 5.10647 4.15989 2.74027
H 4.46825 5.18382 4.73803
N 3.85062 4.12544 1.09001
N 3.73326 5.75637 4.28983
C 2.30526 6.11985 2.36015
H 3.11236 6.39781 4.8054
C 1.50075 7.13666 3.03884
C 2.77365 4.67423 0.46877
H 2.53667 4.2763 6.57835
H 1.13957 6.0569 0.53401
Kr 0.67815 2.43758 3.57179
Ni 5.29882 2.95183 7.41731
O 0.32467 10.3344 12.5454
O 1.38555 10.2156 10.6689
C 2.22587 0.23757 13.7283
C 3.2229 0.45139 11.5433
C 4.04075 1.42543 12.0887
H 4.78369 2.01936 11.4454
H 4.23074 0.47514 9.76683
N 4.04138 1.78179 13.3865
N 3.4134 0.08315 10.2767
C 2.23583 11.7361 12.388
H 2.87171 11.1896 9.92639
C 1.27996 10.6907 11.8603
C 3.15702 1.17598 7.11449
H 3.18939 1.44919 8.16337
H 1.49011 11.641 7.34781
O 5.90999 4.06129 13.0624
O 6.97348 4.44141 7.83006
C 7.3194 6.19944 11.7093
C 8.73042 6.36812 13.656
C 9.51474 7.31009 12.9347
H 10.4207 7.71871 13.378
H 9.77898 6.69478 8.28393
N 9.16482 7.75316 11.7277
N 9.04399 6.12223 7.83573
C 7.61946 5.75875 12.9978
H 8.42309 5.48079 8.3513
C 6.81495 4.74194 13.6765
C 8.08785 7.20437 11.1065
H 7.8474 7.6023 10.1242
H 6.45377 5.8217 11.1717
Ni 10.6096 8.92677 10.9632
O 5.63194 1.54422 8.99949
O 6.69282 1.663 7.123
C 7.53314 11.641 10.1824
C 8.53016 11.4272 7.99742
C 9.34801 10.4532 8.54278
H 10.091 9.85924 7.89956
H 9.54147 11.4035 13.3127
N 9.34865 10.0968 9.84058
N 8.72413 11.7954 13.8226
C 7.5431 0.14254 8.84206
H 8.18244 0.68896 13.4723
C 6.58722 1.18786 8.31443
C 8.46776 10.7026 10.6604
H 8.50012 10.4294 11.7093
H 6.80084 0.23757 10.8937
O 0.59926 7.81731 9.51649
O 1.66621 7.43719 11.376
C 2.00867 5.67916 8.16337
C 3.41969 5.51048 10.1101
C 4.20401 4.56851 9.38883
H 5.10994 4.15989 9.83207
H 4.47171 5.18382 11.8298
N 3.85409 4.12544 8.18181
N 3.73673 5.75637 11.3816
C 2.30873 6.11985 9.45195
H 3.11583 6.39781 11.8972
C 1.50421 7.13666 10.1306
C 2.77712 4.67423 7.56057
H 2.54014 4.2763 13.6702
H 1.14304 6.0569 7.62581
Ni 5.30229 2.95183 14.5091
O 0.32814 10.3344 19.6372
O 1.38902 10.2156 17.7607
C 2.22934 0.23757 20.8201
C 3.22636 0.45139 18.6351
C 4.04421 1.42543 19.1805
H 4.78716 2.01936 18.5373
H 4.2342 0.47514 16.8586
N 4.04485 1.78179 20.4783
N 3.41687 0.08315 17.3685
C 2.2393 11.7361 19.4797
H 2.87518 11.1896 17.0182
C 1.28342 10.6907 18.9521
C 3.16049 1.17598 14.2063
H 3.19286 1.44919 15.2552
H 1.49358 11.641 14.4396
O 5.91346 4.06129 20.1542
O 6.97695 4.44141 14.9218
C 7.32287 6.19944 18.8011
C 8.73389 6.36812 20.7478
C 9.51821 7.31009 20.0265
H 10.4241 7.71871 20.4698
H 9.78244 6.69478 15.3757
N 9.16828 7.75316 18.8195
N 9.04746 6.12223 14.9275
C 7.62292 5.75875 20.0896
H 8.42656 5.48079 15.4431
C 6.81841 4.74194 20.7683
C 8.09131 7.20437 18.1983
H 7.85087 7.6023 17.216
H 6.45724 5.8217 18.2635
Ni 10.613 8.92677 18.055
O 5.6354 1.54422 16.0913
O 6.69629 1.663 14.2148
C 7.5366 11.641 17.2742
C 8.53363 11.4272 15.0892
C 9.35148 10.4532 15.6346
H 10.0944 9.85924 14.9914
H 9.54494 11.4035 20.4045
N 9.35211 10.0968 16.9324
N 8.7276 11.7954 20.9144
C 7.54657 0.14254 15.9338
H 8.18591 0.68896 20.5641
C 6.59069 1.18786 15.4062
C 8.47122 10.7026 17.7522
H 8.50359 10.4294 18.8011
H 6.80431 0.23757 17.9855
O 0.60272 7.81731 16.6083
O 1.66968 7.43719 18.4678
C 2.01213 5.67916 15.2552
C 3.42316 5.51048 17.2019
C 4.20747 4.56851 16.4806
H 5.1134 4.15989 16.9239
H 4.47518 5.18382 18.9216
N 3.85755 4.12544 15.2736
N 3.74019 5.75637 18.4734
C 2.31219 6.11985 16.5438
H 3.11929 6.39781 18.989
C 1.50768 7.13666 17.2224
C 2.78058 4.67423 14.6524
H 2.5436 4.2763 20.762
H 1.1465 6.0569 14.7176
Ni 5.30575 2.95183 21.6009
O 0.3316 10.3344 26.729
O 1.39249 10.2156 24.8525
C 2.2328 0.23757 27.9119
C 3.22983 0.45139 25.7269
C 4.04768 1.42543 26.2723
H 4.79062 2.01936 25.629
H 4.23767 0.47514 23.9504
N 4.04831 1.78179 27.5701
N 3.42033 0.08315 24.4603
C 2.24277 11.7361 26.5715
H 2.87864 11.1896 24.11
C 1.28689 10.6907 26.0439
C 3.16395 1.17598 21.2981
H 3.19632 1.44919 22.347
H 1.49704 11.641 21.5314
O 5.91692 4.06129 27.246
O 6.98041 4.44141 22.0136
C 7.32633 6.19944 25.8929
C 8.73735 6.36812 27.8396
C 9.52167 7.31009 27.1183
H 10.4276 7.71871 27.5616
H 9.78591 6.69478 22.4675
N 9.17175 7.75316 25.9113
N 9.05093 6.12223 22.0193
C 7.62639 5.75875 27.1815
H 8.43002 5.48079 22.5349
C 6.82188 4.74194 27.8601
C 8.09478 7.20437 25.2901
H 7.85433 7.6023 24.3078
H 6.4607 5.8217 25.3553
Ni 10.6165 8.92677 25.1468
O 5.63887 1.54422 23.1831
O 6.69975 1.663 21.3066
C 7.54007 11.641 24.366
C 8.53709 11.4272 22.181
C 9.35495 10.4532 22.7264
H 10.0979 9.85924 22.0831
H 9.5484 11.4035 27.4963
N 9.35558 10.0968 24.0242
N 8.73106 11.7954 28.0062
C 7.55003 0.14254 23.0256
H 8.18938 0.68896 27.6559
C 6.59415 1.18786 22.498
C 8.47469 10.7026 24.844
H 8.50705 10.4294 25.8929
H 6.80778 0.23757 25.0773
O 0.60619 7.81731 23.7001
O 1.67315 7.43719 25.5596
C 2.0156 5.67916 22.347
C 3.42662 5.51048 24.2937
C 4.21094 4.56851 23.5724
H 5.11687 4.15989 24.0157
H 4.47864 5.18382 26.0134
N 3.86102 4.12544 22.3654
N 3.74366 5.75637 25.5652
C 2.31566 6.11985 23.6355
H 3.12276 6.39781 26.0808
C 1.51114 7.13666 24.3142
C 2.78405 4.67423 21.7442
H 2.54707 4.2763 27.8538
H 1.14997 6.0569 21.8094
Ni 5.29536 14.8304 0.32551
O 0.32121 22.213 5.45359
O 1.38209 22.0942 3.5771
C 2.22241 12.1162 6.63651
C 3.21943 12.33 4.45152
C 4.03728 13.304 4.99688
H 4.78023 13.898 4.35366
H 4.22727 12.3537 2.67503
N 4.03792 13.6604 6.29468
N 3.40993 11.9618 3.18493
C 2.23237 23.6147 5.29616
H 2.86825 23.0682 2.83459
C 1.27649 22.5693 4.76853
C 3.15356 13.0546 0.02269
H 3.18592 13.3278 1.07157
H 1.48665 23.5196 0.25601
O 5.90653 15.9399 5.97059
O 6.97002 16.32 0.73826
C 7.31593 18.078 4.61747
C 8.72696 18.2467 6.56417
C 9.51127 19.1887 5.84293
H 10.4172 19.5973 6.28617
H 9.77551 18.5734 1.19213
N 9.16135 19.6318 4.63591
N 9.04053 18.0008 0.74393
C 7.61599 17.6374 5.90605
H 8.41963 17.3594 1.2595
C 6.81148 16.6205 6.58474
C 8.08438 19.083 4.01467
H 7.84394 19.4809 3.03245
H 6.45031 17.7003 4.07991
Ni 10.6061 20.8054 3.87141
O 5.62847 13.4228 1.90769
O 6.68936 13.5416 0.0312
C 7.52967 23.5196 3.09061
C 8.5267 23.3058 0.90562
C 9.34455 22.3318 1.45098
H 10.0875 21.7378 0.80776
H 9.538 23.2821 6.22093
N 9.34518 21.9754 2.74878
N 8.72067 23.6741 6.73083
C 7.53964 12.0211 1.75026
H 8.17898 12.5676 6.38049
C 6.58376 13.0665 1.22263
C 8.46429 22.5812 3.56859
H 8.49666 22.308 4.61747
H 6.79738 12.1162 3.80191
O 0.59579 19.6959 2.42469
O 1.66275 19.3158 4.28416
C 2.0052 17.5578 1.07157
C 3.41622 17.3891 3.01827
C 4.20054 16.4471 2.29703
H 5.10647 16.0385 2.74027
H 4.46825 17.0624 4.73803
N 3.85062 16.004 1.09001
N 3.73326 17.635 4.28983
C 2.30526 17.9984 2.36015
H 3.11236 18.2764 4.8054
C 1.50075 19.0153 3.03884
C 2.77365 16.5528 0.46877
H 2.53667 16.1549 6.57835
H 1.13957 17.9355 0.53401
Ni 5.29882 14.8304 7.41731
O 0.32467 22.213 12.5454
O 1.38555 22.0942 10.6689
C 2.22587 12.1162 13.7283
C 3.2229 12.33 11.5433
C 4.04075 13.304 12.0887
H 4.78369 13.898 11.4454
H 4.23074 12.3537 9.76683
N 4.04138 13.6604 13.3865
N 3.4134 11.9618 10.2767
C 2.23583 23.6147 12.388
H 2.87171 23.0682 9.92639
C 1.27996 22.5693 11.8603
C 3.15702 13.0546 7.11449
H 3.18939 13.3278 8.16337
H 1.49011 23.5196 7.34781
O 5.90999 15.9399 13.0624
O 6.97348 16.32 7.83006
C 7.3194 18.078 11.7093
C 8.73042 18.2467 13.656
C 9.51474 19.1887 12.9347
H 10.4207 19.5973 13.378
H 9.77898 18.5734 8.28393
N 9.16482 19.6318 11.7277
N 9.04399 18.0008 7.83573
C 7.61946 17.6374 12.9978
H 8.42309 17.3594 8.3513
C 6.81495 16.6205 13.6765
C 8.08785 19.083 11.1065
H 7.8474 19.4809 10.1242
H 6.45377 17.7003 11.1717
Ni 10.6096 20.8054 10.9632
O 5.63194 13.4228 8.99949
O 6.69282 13.5416 7.123
C 7.53314 23.5196 10.1824
C 8.53016 23.3058 7.99742
C 9.34801 22.3318 8.54278
H 10.091 21.7378 7.89956
H 9.54147 23.2821 13.3127
N 9.34865 21.9754 9.84058
N 8.72413 23.6741 13.8226
C 7.5431 12.0211 8.84206
H 8.18244 12.5676 13.4723
C 6.58722 13.0665 8.31443
C 8.46776 22.5812 10.6604
H 8.50012 22.308 11.7093
H 6.80084 12.1162 10.8937
O 0.59926 19.6959 9.51649
O 1.66621 19.3158 11.376
C 2.00867 17.5578 8.16337
C 3.41969 17.3891 10.1101
C 4.20401 16.4471 9.38883
H 5.10994 16.0385 9.83207
H 4.47171 17.0624 11.8298
N 3.85409 16.004 8.18181
N 3.73673 17.635 11.3816
C 2.30873 17.9984 9.45195
H 3.11583 18.2764 11.8972
C 1.50421 19.0153 10.1306
C 2.77712 16.5528 7.56057
H 2.54014 16.1549 13.6702
H 1.14304 17.9355 7.62581
Ni 5.30229 14.8304 14.5091
O 0.32814 22.213 19.6372
O 1.38902 22.0942 17.7607
C 2.22934 12.1162 20.8201
C 3.22636 12.33 18.6351
C 4.04421 13.304 19.1805
H 4.78716 13.898 18.5373
H 4.2342 12.3537 16.8586
N 4.04485 13.6604 20.4783
N 3.41687 11.9618 17.3685
C 2.2393 23.6147 19.4797
H 2.87518 23.0682 17.0182
C 1.28342 22.5693 18.9521
C 3.16049 13.0546 14.2063
H 3.19286 13.3278 15.2552
H 1.49358 23.5196 14.4396
O 5.91346 15.9399 20.1542
O 6.97695 16.32 14.9218
C 7.32287 18.078 18.8011
C 8.73389 18.2467 20.7478
C 9.51821 19.1887 20.0265
H 10.4241 19.5973 20.4698
H 9.78244 18.5734 15.3757
N 9.16828 19.6318 18.8195
N 9.04746 18.0008 14.9275
C 7.62292 17.6374 20.0896
H 8.42656 17.3594 15.4431
C 6.81841 16.6205 20.7683
C 8.09131 19.083 18.1983
H 7.85087 19.4809 17.216
H 6.45724 17.7003 18.2635
Ni 10.613 20.8054 18.055
O 5.6354 13.4228 16.0913
O 6.69629 13.5416 14.2148
C 7.5366 23.5196 17.2742
C 8.53363 23.3058 15.0892
C 9.35148 22.3318 15.6346
H 10.0944 21.7378 14.9914
H 9.54494 23.2821 20.4045
N 9.35211 21.9754 16.9324
N 8.7276 23.6741 20.9144
C 7.54657 12.0211 15.9338
H 8.18591 12.5676 20.5641
C 6.59069 13.0665 15.4062
C 8.47122 22.5812 17.7522
H 8.50359 22.308 18.8011
H 6.80431 12.1162 17.9855
O 0.60272 19.6959 16.6083
O 1.66968 19.3158 18.4678
C 2.01213 17.5578 15.2552
C 3.42316 17.3891 17.2019
C 4.20747 16.4471 16.4806
H 5.1134 16.0385 16.9239
H 4.47518 17.0624 18.9216
N 3.85755 16.004 15.2736
N 3.74019 17.635 18.4734
C 2.31219 17.9984 16.5438
H 3.11929 18.2764 18.989
C 1.50768 19.0153 17.2224
C 2.78058 16.5528 14.6524
H 2.5436 16.1549 20.762
H 1.1465 17.9355 14.7176
Ni 5.30575 14.8304 21.6009
O 0.3316 22.213 26.729
O 1.39249 22.0942 24.8525
C 2.2328 12.1162 27.9119
C 3.22983 12.33 25.7269
C 4.04768 13.304 26.2723
H 4.79062 13.898 25.629
H 4.23767 12.3537 23.9504
N 4.04831 13.6604 27.5701
N 3.42033 11.9618 24.4603
C 2.24277 23.6147 26.5715
H 2.87864 23.0682 24.11
C 1.28689 22.5693 26.0439
C 3.16395 13.0546 21.2981
H 3.19632 13.3278 22.347
H 1.49704 23.5196 21.5314
O 5.91692 15.9399 27.246
O 6.98041 16.32 22.0136
C 7.32633 18.078 25.8929
C 8.73735 18.2467 27.8396
C 9.52167 19.1887 27.1183
H 10.4276 19.5973 27.5616
H 9.78591 18.5734 22.4675
N 9.17175 19.6318 25.9113
N 9.05093 18.0008 22.0193
C 7.62639 17.6374 27.1815
H 8.43002 17.3594 22.5349
C 6.82188 16.6205 27.8601
C 8.09478 19.083 25.2901
H 7.85433 19.4809 24.3078
H 6.4607 17.7003 25.3553
Ni 10.6165 20.8054 25.1468
O 5.63887 13.4228 23.1831
O 6.69975 13.5416 21.3066
C 7.54007 23.5196 24.366
C 8.53709 23.3058 22.181
C 9.35495 22.3318 22.7264
H 10.0979 21.7378 22.0831
H 9.5484 23.2821 27.4963
N 9.35558 21.9754 24.0242
N 8.73106 23.6741 28.0062
C 7.55003 12.0211 23.0256
H 8.18938 12.5676 27.6559
C 6.59415 13.0665 22.498
C 8.47469 22.5812 24.844
H 8.50705 22.308 25.8929
H 6.80778 12.1162 25.0773
O 0.60619 19.6959 23.7001
O 1.67315 19.3158 25.5596
C 2.0156 17.5578 22.347
C 3.42662 17.3891 24.2937
C 4.21094 16.4471 23.5724
H 5.11687 16.0385 24.0157
H 4.47864 17.0624 26.0134
N 3.86102 16.004 22.3654
N 3.74366 17.635 25.5652
C 2.31566 17.9984 23.6355
H 3.12276 18.2764 26.0808
C 1.51114 19.0153 24.3142
C 2.78405 16.5528 21.7442
H 2.54707 16.1549 27.8538
H 1.14997 17.9355 21.8094
Ni 5.29536 26.709 0.32551
O 0.32121 34.0916 5.45359
O 1.38209 33.9728 3.5771
C 2.22241 23.9948 6.63651
C 3.21943 24.2086 4.45152
C 4.03728 25.1826 4.99688
H 4.78023 25.7766 4.35366
H 4.22727 24.2323 2.67503
N 4.03792 25.539 6.29468
N 3.40993 23.8403 3.18493
C 2.23237 35.4933 5.29616
H 2.86825 34.9468 2.83459
C 1.27649 34.4479 4.76853
C 3.15356 24.9332 0.02269
H 3.18592 25.2064 1.07157
H 1.48665 35.3982 0.25601
O 5.90653 27.8185 5.97059
O 6.97002 28.1986 0.73826
C 7.31593 29.9566 4.61747
C 8.72696 30.1253 6.56417
C 9.51127 31.0673 5.84293
H 10.4172 31.4759 6.28617
H 9.77551 30.452 1.19213
N 9.16135 31.5104 4.63591
N 9.04053 29.8794 0.74393
C 7.61599 29.516 5.90605
H 8.41963 29.238 1.2595
C 6.81148 28.4991 6.58474
C 8.08438 30.9616 4.01467
H 7.84394 31.3595 3.03245
H 6.45031 29.5789 4.07991
Ni 10.6061 32.684 3.87141
O 5.62847 25.3014 1.90769
O 6.68936 25.4202 0.0312
C 7.52967 35.3982 3.09061
C 8.5267 35.1844 0.90562
C 9.34455 34.2104 1.45098
H 10.0875 33.6164 0.80776
H 9.538 35.1607 6.22093
N 9.34518 33.854 2.74878
N 8.72067 35.5526 6.73083
C 7.53964 23.8997 1.75026
H 8.17898 24.4462 6.38049
C 6.58376 24.9451 1.22263
C 8.46429 34.4598 3.56859
H 8.49666 34.1866 4.61747
H 6.79738 23.9948 3.80191
O 0.59579 31.5745 2.42469
O 1.66275 31.1944 4.28416
C 2.0052 29.4364 1.07157
C 3.41622 29.2677 3.01827
C 4.20054 28.3257 2.29703
H 5.10647 27.9171 2.74027
H 4.46825 28.941 4.73803
N 3.85062 27.8826 1.09001
N 3.73326 29.5136 4.28983
C 2.30526 29.877 2.36015
H 3.11236 30.155 4.8054
C 1.50075 30.8939 3.03884
C 2.77365 28.4314 0.46877
H 2.53667 28.0335 6.57835
H 1.13957 29.8141 0.53401
Ni 5.29882 26.709 7.41731
O 0.32467 34.0916 12.5454
O 1.38555 33.9728 10.6689
C 2.22587 23.9948 13.7283
C 3.2229 24.2086 11.5433
C 4.04075 25.1826 12.0887
H 4.78369 25.7766 11.4454
H 4.23074 24.2323 9.76683
N 4.04138 25.539 13.3865
N 3.4134 23.8403 10.2767
C 2.23583 35.4933 12.388
H 2.87171 34.9468 9.92639
C 1.27996 34.4479 11.8603
C 3.15702 24.9332 7.11449
H 3.18939 25.2064 8.16337
H 1.49011 35.3982 7.34781
O 5.90999 27.8185 13.0624
O 6.97348 28.1986 7.83006
C 7.3194 29.9566 11.7093
C 8.73042 30.1253 13.656
C 9.51474 31.0673 12.9347
H 10.4207 31.4759 13.378
H 9.77898 30.452 8.28393
N 9.16482 31.5104 11.7277
N 9.04399 29.8794 7.83573
C 7.61946 29.516 12.9978
H 8.42309 29.238 8.3513
C 6.81495 28.4991 13.6765
C 8.08785 30.9616 11.1065
H 7.8474 31.3595 10.1242
H 6.45377 29.5789 11.1717
Ni 10.6096 32.684 10.9632
O 5.63194 25.3014 8.99949
O 6.69282 25.4202 7.123
C 7.53314 35.3982 10.1824
C 8.53016 35.1844 7.99742
C 9.34801 34.2104 8.54278
H 10.091 33.6164 7.89956
H 9.54147 35.1607 13.3127
N 9.34865 33.854 9.84058
N 8.72413 35.5526 13.8226
C 7.5431 23.8997 8.84206
H 8.18244 24.4462 13.4723
C 6.58722 24.9451 8.31443
C 8.46776 34.4598 10.6604
H 8.50012 34.1866 11.7093
H 6.80084 23.9948 10.8937
O 0.59926 31.5745 9.51649
O 1.66621 31.1944 11.376
C 2.00867 29.4364 8.16337
C 3.41969 29.2677 10.1101
C 4.20401 28.3257 9.38883
H 5.10994 27.9171 9.83207
H 4.47171 28.941 11.8298
N 3.85409 27.8826 8.18181
N 3.73673 29.5136 11.3816
C 2.30873 29.877 9.45195
H 3.11583 30.155 11.8972
C 1.50421 30.8939 10.1306
C 2.77712 28.4314 7.56057
H 2.54014 28.0335 13.6702
H 1.14304 29.8141 7.62581
Ni 5.30229 26.709 14.5091
O 0.32814 34.0916 19.6372
O 1.38902 33.9728 17.7607
C 2.22934 23.9948 20.8201
C 3.22636 24.2086 18.6351
C 4.04421 25.1826 19.1805
H 4.78716 25.7766 18.5373
H 4.2342 24.2323 16.8586
N 4.04485 25.539 20.4783
N 3.41687 23.8403 17.3685
C 2.2393 35.4933 19.4797
H 2.87518 34.9468 17.0182
C 1.28342 34.4479 18.9521
C 3.16049 24.9332 14.2063
H 3.19286 25.2064 15.2552
H 1.49358 35.3982 14.4396
O 5.91346 27.8185 20.1542
O 6.97695 28.1986 14.9218
C 7.32287 29.9566 18.8011
C 8.73389 30.1253 20.7478
C 9.51821 31.0673 20.0265
H 10.4241 31.4759 20.4698
H 9.78244 30.452 15.3757
N 9.16828 31.5104 18.8195
N 9.04746 29.8794 14.9275
C 7.62292 29.516 20.0896
H 8.42656 29.238 15.4431
C 6.81841 28.4991 20.7683
C 8.09131 30.9616 18.1983
H 7.85087 31.3595 17.216
H 6.45724 29.5789 18.2635
Ni 10.613 32.684 18.055
O 5.6354 25.3014 16.0913
O 6.69629 25.4202 14.2148
C 7.5366 35.3982 17.2742
C 8.53363 35.1844 15.0892
C 9.35148 34.2104 15.6346
H 10.0944 33.6164 14.9914
H 9.54494 35.1607 20.4045
N 9.35211 33.854 16.9324
N 8.7276 35.5526 20.9144
C 7.54657 23.8997 15.9338
H 8.18591 24.4462 20.5641
C 6.59069 24.9451 15.4062
C 8.47122 34.4598 17.7522
H 8.50359 34.1866 18.8011
H 6.80431 23.9948 17.9855
O 0.60272 31.5745 16.6083
O 1.66968 31.1944 18.4678
C 2.01213 29.4364 15.2552
C 3.42316 29.2677 17.2019
C 4.20747 28.3257 16.4806
H 5.1134 27.9171 16.9239
H 4.47518 28.941 18.9216
N 3.85755 27.8826 15.2736
N 3.74019 29.5136 18.4734
C 2.31219 29.877 16.5438
H 3.11929 30.155 18.989
C 1.50768 30.8939 17.2224
C 2.78058 28.4314 14.6524
H 2.5436 28.0335 20.762
H 1.1465 29.8141 14.7176
Ni 5.30575 26.709 21.6009
O 0.3316 34.0916 26.729
O 1.39249 33.9728 24.8525
C 2.2328 23.9948 27.9119
C 3.22983 24.2086 25.7269
C 4.04768 25.1826 26.2723
H 4.79062 25.7766 25.629
H 4.23767 24.2323 23.9504
N 4.04831 25.539 27.5701
N 3.42033 23.8403 24.4603
C 2.24277 35.4933 26.5715
H 2.87864 34.9468 24.11
C 1.28689 34.4479 26.0439
C 3.16395 24.9332 21.2981
H 3.19632 25.2064 22.347
H 1.49704 35.3982 21.5314
O 5.91692 27.8185 27.246
O 6.98041 28.1986 22.0136
C 7.32633 29.9566 25.8929
C 8.73735 30.1253 27.8396
C 9.52167 31.0673 27.1183
H 10.4276 31.4759 27.5616
H 9.78591 30.452 22.4675
N 9.17175 31.5104 25.9113
N 9.05093 29.8794 22.0193
C 7.62639 29.516 27.1815
H 8.43002 29.238 22.5349
C 6.82188 28.4991 27.8601
C 8.09478 30.9616 25.2901
H 7.85433 31.3595 24.3078
H 6.4607 29.5789 25.3553
Ni 10.6165 32.684 25.1468
O 5.63887 25.3014 23.1831
O 6.69975 25.4202 21.3066
C 7.54007 35.3982 24.366
C 8.53709 35.1844 22.181
C 9.35495 34.2104 22.7264
H 10.0979 33.6164 22.0831
H 9.5484 35.1607 27.4963
N 9.35558 33.854 24.0242
N 8.73106 35.5526 28.0062
C 7.55003 23.8997 23.0256
H 8.18938 24.4462 27.6559
C 6.59415 24.9451 22.498
C 8.47469 34.4598 24.844
H 8.50705 34.1866 25.8929
H 6.80778 23.9948 25.0773
O 0.60619 31.5745 23.7001
O 1.67315 31.1944 25.5596
C 2.0156 29.4364 22.347
C 3.42662 29.2677 24.2937
C 4.21094 28.3257 23.5724
H 5.11687 27.9171 24.0157
H 4.47864 28.941 26.0134
N 3.86102 27.8826 22.3654
N 3.74366 29.5136 25.5652
C 2.31566 29.877 23.6355
H 3.12276 30.155 26.0808
C 1.51114 30.8939 24.3142
C 2.78405 28.4314 21.7442
H 2.54707 28.0335 27.8538
H 1.14997 29.8141 21.8094
Ni 15.9134 2.95183 0.32551
O 10.9392 10.3344 5.45359
O 12.0001 10.2156 3.5771
C 12.8404 0.23757 6.63651
C 13.8374 0.45139 4.45152
C 14.6553 1.42543 4.99688
H 15.3982 2.01936 4.35366
H 14.8453 0.47514 2.67503
N 14.6559 1.78179 6.29468
N 14.0279 0.08315 3.18493
C 12.8504 11.7361 5.29616
H 13.4862 11.1896 2.83459
C 11.8945 10.6907 4.76853
C 13.7716 1.17598 0.02269
H 13.8039 1.44919 1.07157
H 12.1046 11.641 0.25601
O 16.5245 4.06129 5.97059
O 17.588 4.44141 0.73826
C 17.9339 6.19944 4.61747
C 19.345 6.36812 6.56417
C 20.1293 7.31009 5.84293
H 21.0352 7.71871 6.28617
H 20.3935 6.69478 1.19213
N 19.7793 7.75316 4.63591
N 19.6585 6.12223 0.74393
C 18.234 5.75875 5.90605
H 19.0376 5.48079 1.2595
C 17.4295 4.74194 6.58474
C 18.7024 7.20437 4.01467
H 18.4619 7.6023 3.03245
H 17.0683 5.8217 4.07991
Ni 21.2241 8.92677 3.87141
O 16.2465 1.54422 1.90769
O 17.3074 1.663 0.0312
C 18.1477 11.641 3.09061
C 19.1447 11.4272 0.90562
C 19.9625 10.4532 1.45098
H 20.7055 9.85924 0.80776
H 20.156 11.4035 6.22093
N 19.9632 10.0968 2.74878
N 19.3387 11.7954 6.73083
C 18.1576 0.14254 1.75026
H 18.797 0.68896 6.38049
C 17.2018 1.18786 1.22263
C 19.0823 10.7026 3.56859
H 19.1147 10.4294 4.61747
H 17.4154 0.23757 3.80191
O 11.2138 7.81731 2.42469
O 12.2807 7.43719 4.28416
C 12.6232 5.67916 1.07157
C 14.0342 5.51048 3.01827
C 14.8185 4.56851 2.29703
H 15.7245 4.15989 2.74027
H 15.0862 5.18382 4.73803
N 14.4686 4.12544 1.09001
N 14.3513 5.75637 4.28983
C 12.9233 6.11985 2.36015
H 13.7304 6.39781 4.8054
C 12.1188 7.13666 3.03884
C 13.3917 4.67423 0.46877
H 13.1547 4.2763 6.57835
H 11.7576 6.0569 0.53401
Ni 15.9168 2.95183 7.41731
O 10.9427 10.3344 12.5454
O 12.0036 10.2156 10.6689
C 12.8439 0.23757 13.7283
C 13.8409 0.45139 11.5433
C 14.6587 1.42543 12.0887
H 15.4017 2.01936 11.4454
H 14.8487 0.47514 9.76683
N 14.6594 1.78179 13.3865
N 14.0314 0.08315 10.2767
C 12.8538 11.7361 12.388
H 13.4897 11.1896 9.92639
C 11.898 10.6907 11.8603
C 13.775 1.17598 7.11449
H 13.8074 1.44919 8.16337
H 12.1081 11.641 7.34781
O 16.528 4.06129 13.0624
O 17.5915 4.44141 7.83006
C 17.9374 6.19944 11.7093
C 19.3484 6.36812 13.656
C 20.1327 7.31009 12.9347
H 21.0387 7.71871 13.378
H 20.397 6.69478 8.28393
N 19.7828 7.75316 11.7277
N 19.662 6.12223 7.83573
C 18.2375 5.75875 12.9978
H 19.0411 5.48079 8.3513
C 17.433 4.74194 13.6765
C 18.7059 7.20437 11.1065
H 18.4654 7.6023 10.1242
H 17.0718 5.8217 11.1717
Ni 21.2275 8.92677 10.9632
O 16.2499 1.54422 8.99949
O 17.3108 1.663 7.123
C 18.1511 11.641 10.1824
C 19.1482 11.4272 7.99742
C 19.966 10.4532 8.54278
H 20.709 9.85924 7.89956
H 20.1595 11.4035 13.3127
N 19.9667 10.0968 9.84058
N 19.3421 11.7954 13.8226
C 18.1611 0.14254 8.84206
H 18.8004 0.68896 13.4723
C 17.2052 1.18786 8.31443
C 19.0858 10.7026 10.6604
H 19.1181 10.4294 11.7093
H 17.4188 0.23757 10.8937
O 11.2173 7.81731 9.51649
O 12.2842 7.43719 11.376
C 12.6267 5.67916 8.16337
C 14.0377 5.51048 10.1101
C 14.822 4.56851 9.38883
H 15.7279 4.15989 9.83207
H 15.0897 5.18382 11.8298
N 14.4721 4.12544 8.18181
N 14.3547 5.75637 11.3816
C 12.9267 6.11985 9.45195
H 13.7338 6.39781 11.8972
C 12.1222 7.13666 10.1306
C 13.3951 4.67423 7.56057
H 13.1581 4.2763 13.6702
H 11.761 6.0569 7.62581
Ni 15.9203 2.95183 14.5091
O 10.9461 10.3344 19.6372
O 12.007 10.2156 17.7607
C 12.8473 0.23757 20.8201
C 13.8444 0.45139 18.6351
C 14.6622 1.42543 19.1805
H 15.4052 2.01936 18.5373
H 14.8522 0.47514 16.8586
N 14.6628 1.78179 20.4783
N 14.0349 0.08315 17.3685
C 12.8573 11.7361 19.4797
H 13.4932 11.1896 17.0182
C 11.9014 10.6907 18.9521
C 13.7785 1.17598 14.2063
H 13.8109 1.44919 15.2552
H 12.1116 11.641 14.4396
O 16.5315 4.06129 20.1542
O 17.5949 4.44141 14.9218
C 17.9409 6.19944 18.8011
C 19.3519 6.36812 20.7478
C 20.1362 7.31009 20.0265
H 21.0421 7.71871 20.4698
H 20.4004 6.69478 15.3757
N 19.7863 7.75316 18.8195
N 19.6655 6.12223 14.9275
C 18.2409 5.75875 20.0896
H 19.0446 5.48079 15.4431
C 17.4364 4.74194 20.7683
C 18.7093 7.20437 18.1983
H 18.4689 7.6023 17.216
H 17.0752 5.8217 18.2635
Ni 21.231 8.92677 18.055
O 16.2534 1.54422 16.0913
O 17.3143 1.663 14.2148
C 18.1546 11.641 17.2742
C 19.1516 11.4272 15.0892
C 19.9695 10.4532 15.6346
H 20.7124 9.85924 14.9914
H 20.1629 11.4035 20.4045
N 19.9701 10.0968 16.9324
N 19.3456 11.7954 20.9144
C 18.1646 0.14254 15.9338
H 18.8039 0.68896 20.5641
C 17.2087 1.18786 15.4062
C 19.0892 10.7026 17.7522
H 19.1216 10.4294 18.8011
H 17.4223 0.23757 17.9855
O 11.2207 7.81731 16.6083
O 12.2877 7.43719 18.4678
C 12.6301 5.67916 15.2552
C 14.0412 5.51048 17.2019
C 14.8255 4.56851 16.4806
H 15.7314 4.15989 16.9239
H 15.0932 5.18382 18.9216
N 14.4755 4.12544 15.2736
N 14.3582 5.75637 18.4734
C 12.9302 6.11985 16.5438
H 13.7373 6.39781 18.989
C 12.1257 7.13666 17.2224
C 13.3986 4.67423 14.6524
H 13.1616 4.2763 20.762
H 11.7645 6.0569 14.7176
Ni 15.9237 2.95183 21.6009
O 10.9496 10.3344 26.729
O 12.0105 10.2156 24.8525
C 12.8508 0.23757 27.9119
C 13.8478 0.45139 25.7269
C 14.6657 1.42543 26.2723
H 15.4086 2.01936 25.629
H 14.8557 0.47514 23.9504
N 14.6663 1.78179 27.5701
N 14.0383 0.08315 24.4603
C 12.8608 11.7361 26.5715
H 13.4966 11.1896 24.11
C 11.9049 10.6907 26.0439
C 13.7819 1.17598 21.2981
H 13.8143 1.44919 22.347
H 12.115 11.641 21.5314
O 16.5349 4.06129 27.246
O 17.5984 4.44141 22.0136
C 17.9443 6.19944 25.8929
C 19.3553 6.36812 27.8396
C 20.1397 7.31009 27.1183
H 21.0456 7.71871 27.5616
H 20.4039 6.69478 22.4675
N 19.7898 7.75316 25.9113
N 19.6689 6.12223 22.0193
C 18.2444 5.75875 27.1815
H 19.048 5.48079 22.5349
C 17.4399 4.74194 27.8601
C 18.7128 7.20437 25.2901
H 18.4723 7.6023 24.3078
H 17.0787 5.8217 25.3553
Ni 21.2345 8.92677 25.1468
O 16.2569 1.54422 23.1831
O 17.3177 1.663 21.3066
C 18.1581 11.641 24.366
C 19.1551 11.4272 22.181
C 19.973 10.4532 22.7264
H 20.7159 9.85924 22.0831
H 20.1664 11.4035 27.4963
N 19.9736 10.0968 24.0242
N 19.3491 11.7954 28.0062
C 18.168 0.14254 23.0256
H 18.8074 0.68896 27.6559
C 17.2122 1.18786 22.498
C 19.0927 10.7026 24.844
H 19.1251 10.4294 25.8929
H 17.4258 0.23757 25.0773
O 11.2242 7.81731 23.7001
O 12.2911 7.43719 25.5596
C 12.6336 5.67916 22.347
C 14.0446 5.51048 24.2937
C 14.8289 4.56851 23.5724
H 15.7349 4.15989 24.0157
H 15.0966 5.18382 26.0134
N 14.479 4.12544 22.3654
N 14.3617 5.75637 25.5652
C 12.9337 6.11985 23.6355
H 13.7408 6.39781 26.0808
C 12.1291 7.13666 24.3142
C 13.402 4.67423 21.7442
H 13.1651 4.2763 27.8538
H 11.768 6.0569 21.8094
Ni 15.9134 14.8304 0.32551
O 10.9392 22.213 5.45359
O 12.0001 22.0942 3.5771
C 12.8404 12.1162 6.63651
C 13.8374 12.33 4.45152
C 14.6553 13.304 4.99688
H 15.3982 13.898 4.35366
H 14.8453 12.3537 2.67503
N 14.6559 13.6604 6.29468
N 14.0279 11.9618 3.18493
C 12.8504 23.6147 5.29616
H 13.4862 23.0682 2.83459
C 11.8945 22.5693 4.76853
C 13.7716 13.0546 0.02269
H 13.8039 13.3278 1.07157
H 12.1046 23.5196 0.25601
O 16.5245 15.9399 5.97059
O 17.588 16.32 0.73826
C 17.9339 18.078 4.61747
C 19.345 18.2467 6.56417
C 20.1293 19.1887 5.84293
H 21.0352 19.5973 6.28617
H 20.3935 18.5734 1.19213
N 19.7793 19.6318 4.63591
N 19.6585 18.0008 0.74393
C 18.234 17.6374 5.90605
H 19.0376 17.3594 1.2595
C 17.4295 16.6205 6.58474
C 18.7024 19.083 4.01467
H 18.4619 19.4809 3.03245
H 17.0683 17.7003 4.07991
Ni 21.2241 20.8054 3.87141
O 16.2465 13.4228 1.90769
O 17.3074 13.5416 0.0312
C 18.1477 23.5196 3.09061
C 19.1447 23.3058 0.90562
C 19.9625 22.3318 1.45098
H 20.7055 21.7378 0.80776
H 20.156 23.2821 6.22093
N 19.9632 21.9754 2.74878
N 19.3387 23.6741 6.73083
C 18.1576 12.0211 1.75026
H 18.797 12.5676 6.38049
C 17.2018 13.0665 1.22263
C 19.0823 22.5812 3.56859
H 19.1147 22.308 4.61747
H 17.4154 12.1162 3.80191
O 11.2138 19.6959 2.42469
O 12.2807 19.3158 4.28416
C 12.6232 17.5578 1.07157
C 14.0342 17.3891 3.01827
C 14.8185 16.4471 2.29703
H 15.7245 16.0385 2.74027
H 15.0862 17.0624 4.73803
N 14.4686 16.004 1.09001
N 14.3513 17.635 4.28983
C 12.9233 17.9984 2.36015
H 13.7304 18.2764 4.8054
C 12.1188 19.0153 3.03884
C 13.3917 16.5528 0.46877
H 13.1547 16.1549 6.57835
H 11.7576 17.9355 0.53401
Ni 15.9168 14.8304 7.41731
O 10.9427 22.213 12.5454
O 12.0036 22.0942 10.6689
C 12.8439 12.1162 13.7283
C 13.8409 12.33 11.5433
C 14.6587 13.304 12.0887
H 15.4017 13.898 11.4454
H 14.8487 12.3537 9.76683
N 14.6594 13.6604 13.3865
N 14.0314 11.9618 10.2767
C 12.8538 23.6147 12.388
H 13.4897 23.0682 9.92639
C 11.898 22.5693 11.8603
C 13.775 13.0546 7.11449
H 13.8074 13.3278 8.16337
H 12.1081 23.5196 7.34781
O 16.528 15.9399 13.0624
O 17.5915 16.32 7.83006
C 17.9374 18.078 11.7093
C 19.3484 18.2467 13.656
C 20.1327 19.1887 12.9347
H 21.0387 19.5973 13.378
H 20.397 18.5734 8.28393
N 19.7828 19.6318 11.7277
N 19.662 18.0008 7.83573
C 18.2375 17.6374 12.9978
H 19.0411 17.3594 8.3513
C 17.433 16.6205 13.6765
C 18.7059 19.083 11.1065
H 18.4654 19.4809 10.1242
H 17.0718 17.7003 11.1717
Ni 21.2275 20.8054 10.9632
O 16.2499 13.4228 8.99949
O 17.3108 13.5416 7.123
C 18.1511 23.5196 10.1824
C 19.1482 23.3058 7.99742
C 19.966 22.3318 8.54278
H 20.709 21.7378 7.89956
H 20.1595 23.2821 13.3127
N 19.9667 21.9754 9.84058
N 19.3421 23.6741 13.8226
C 18.1611 12.0211 8.84206
H 18.8004 12.5676 13.4723
C 17.2052 13.0665 8.31443
C 19.0858 22.5812 10.6604
H 19.1181 22.308 11.7093
H 17.4188 12.1162 10.8937
O 11.2173 19.6959 9.51649
O 12.2842 19.3158 11.376
C 12.6267 17.5578 8.16337
C 14.0377 17.3891 10.1101
C 14.822 16.4471 9.38883
H 15.7279 16.0385 9.83207
H 15.0897 17.0624 11.8298
N 14.4721 16.004 8.18181
N 14.3547 17.635 11.3816
C 12.9267 17.9984 9.45195
H 13.7338 18.2764 11.8972
C 12.1222 19.0153 10.1306
C 13.3951 16.5528 7.56057
H 13.1581 16.1549 13.6702
H 11.761 17.9355 7.62581
Ni 15.9203 14.8304 14.5091
O 10.9461 22.213 19.6372
O 12.007 22.0942 17.7607
C 12.8473 12.1162 20.8201
C 13.8444 12.33 18.6351
C 14.6622 13.304 19.1805
H 15.4052 13.898 18.5373
H 14.8522 12.3537 16.8586
N 14.6628 13.6604 20.4783
N 14.0349 11.9618 17.3685
C 12.8573 23.6147 19.4797
H 13.4932 23.0682 17.0182
C 11.9014 22.5693 18.9521
C 13.7785 13.0546 14.2063
H 13.8109 13.3278 15.2552
H 12.1116 23.5196 14.4396
O 16.5315 15.9399 20.1542
O 17.5949 16.32 14.9218
C 17.9409 18.078 18.8011
C 19.3519 18.2467 20.7478
C 20.1362 19.1887 20.0265
H 21.0421 19.5973 20.4698
H 20.4004 18.5734 15.3757
N 19.7863 19.6318 18.8195
N 19.6655 18.0008 14.9275
C 18.2409 17.6374 20.0896
H 19.0446 17.3594 15.4431
C 17.4364 16.6205 20.7683
C 18.7093 19.083 18.1983
H 18.4689 19.4809 17.216
H 17.0752 17.7003 18.2635
Ni 21.231 20.8054 18.055
O 16.2534 13.4228 16.0913
O 17.3143 13.5416 14.2148
C 18.1546 23.5196 17.2742
C 19.1516 23.3058 15.0892
C 19.9695 22.3318 15.6346
H 20.7124 21.7378 14.9914
H 20.1629 23.2821 20.4045
N 19.9701 21.9754 16.9324
N 19.3456 23.6741 20.9144
C 18.1646 12.0211 15.9338
H 18.8039 12.5676 20.5641
C 17.2087 13.0665 15.4062
C 19.0892 22.5812 17.7522
H 19.1216 22.308 18.8011
H 17.4223 12.1162 17.9855
O 11.2207 19.6959 16.6083
O 12.2877 19.3158 18.4678
C 12.6301 17.5578 15.2552