Created on Wed Aug 12 11:12:34 2020 

         140 atoms
         160 bonds
         300 angles
         296 dihedrals
         168 impropers

           7 atom types
          10 bond types
          18 angle types
           5 dihedral types
           1 improper types
           0.000000  12.505600 xlo xhi
           0.000000  12.523400 ylo yhi
           0.000000  10.274279 zlo zhi
           0.000000  -0.227594   0.000000 xy xz yz

Masses

    1    58.693400000 # Ni4+2
    2    15.999400000 # O_R
    3    14.006700000 # N_R
    4    12.010700000 # C_R
    5     1.007940000 # H_
    6    32.065000000 # S_3+6
    7    12.010700000 # C_3

Bond Coeffs

    1      321.720028        1.793457  # Ni4+2 O_R
    2      328.673665        1.841585  # Ni4+2 N_R
    3      646.680887        1.311940  # O_R C_R
    4      663.718927        1.345073  # N_R C_R
    5      462.655054        1.379256  # C_R C_R
    6      357.440381        1.081418  # C_R H_
    7      391.669513        1.458000  # C_R C_R
    8      320.755144        1.749010  # C_R S_3+6
    9      305.918964        1.776839  # S_3+6 C_3
   10      331.069389        1.109401  # C_3 H_

Angle Coeffs

    1              cosine/periodic      322.980216               1               4 # O_R Ni4+2 O_R
    2              cosine/periodic      343.030950               1               4 # O_R Ni4+2 N_R
    3              cosine/periodic      364.965660               1               4 # N_R Ni4+2 N_R
    4              cosine/periodic      238.346347              -1               3 # C_R O_R Ni4+2
    5              cosine/periodic      177.809033              -1               3 # Ni4+2 N_R C_R
    6              cosine/periodic      240.001032              -1               3 # C_R N_R C_R
    7              cosine/periodic      114.578032              -1               3 # C_R C_R H_
    8              cosine/periodic      222.595017              -1               3 # C_R C_R C_R
    9              cosine/periodic      204.366560              -1               3 # C_R C_R C_R
   10              cosine/periodic      307.398705              -1               3 # N_R C_R C_R
   11              cosine/periodic      290.210495              -1               3 # N_R C_R S_3+6
   12              cosine/periodic      211.886013              -1               3 # C_R C_R S_3+6
   13              cosine/periodic      159.573934              -1               3 # N_R C_R H_
   14              cosine/periodic      263.511421              -1               3 # O_R C_R C_R
   15              cosine/periodic      374.272657              -1               3 # O_R C_R O_R
   16                      fourier      135.665451        0.343737        0.374972        0.281246 # C_R S_3+6 C_3
   17                      fourier      117.828454        0.343737        0.374972        0.281246 # S_3+6 C_3 H_
   18                      fourier       75.498766        0.343737        0.374972        0.281246 # H_ C_3 H_

Dihedral Coeffs

    1        2.245703              -1               2 # Ni4+2 O_R C_R C_R
    2        1.497136              -1               2 # Ni4+2 N_R C_R C_R
    3        0.555556              -1               2 # C_R C_R C_R O_R
    4        0.658808               1               2 # N_R C_R S_3+6 C_3
    5        0.237247               1               2 # C_R S_3+6 C_3 H_

Improper Coeffs

    1        2.000000        1.000000       -1.000000        0.000000               0 # Ni4+2 N_R C_R C_R

Pair Coeffs

    1        0.015000        2.524807 # Ni4+2 Ni4+2
    2        0.060000        3.118146 # O_R O_R
    3        0.069000        3.260689 # N_R N_R
    4        0.105000        3.430851 # C_R C_R
    5        0.044000        2.571134 # H_ H_
    6        0.274000        3.594776 # S_3+6 S_3+6
    7        0.105000        3.430851 # C_3 C_3

Atoms

       1      444        1     0.00000    2.89857    9.41116    8.59265
       2      444        1     0.00000    6.17525    3.10579    3.48481
       3      444        2     0.00000    1.44827    4.35425    3.93374
       4      444        2     0.00000    4.44160    8.15245    9.05464
       5      444        2     0.00000    4.63665    1.84729    3.87523
       6      444        2     0.00000    1.36499   10.67435    9.00295
       7      444        2     0.00000    5.80609    4.46033    4.96242
       8      444        2     0.00000    2.54244    8.03270   10.06753
       9      444        2     0.00000    0.25117    1.69264    4.94273
      10      444        2     0.00000    3.23722   10.80466   10.06262
      11      444        3     0.00000    3.69677   10.66058    7.24160
      12      444        3     0.00000    0.71256    1.86420    2.11704
      13      444        3     0.00000    2.17217    8.14409    7.25198
      14      444        3     0.00000    5.44023    4.39481    2.13747
      15      444        4     0.00000    3.48546   12.14832    5.36301
      16      444        4     0.00000    0.47488    0.38955    0.22920
      17      444        5     0.00000    2.86453   12.51808    4.55267
      18      444        5     0.00000    5.86971    0.03371    9.69377
      19      444        4     0.00000    4.76073    0.14740    5.61481
      20      444        4     0.00000    1.74333   12.36991    0.47412
      21      444        4     0.00000    5.50345   12.15023    6.68209
      22      444        4     0.00000    2.49852    0.35508    1.54004
      23      444        5     0.00000    0.24768   12.50843    6.91993
      24      444        5     0.00000    3.49155   12.50668    1.77336
      25      444        4     0.00000    2.48363    6.63370    5.40822
      26      444        4     0.00000    5.72803    5.90364    0.28669
      27      444        5     0.00000    3.13294    6.27291    4.61605
      28      444        5     0.00000   -0.10828    6.26667    9.76620
      29      444        4     0.00000    2.92756    7.68099    6.23068
      30      444        4     0.00000    6.18830    4.86756    1.11596
      31      444        4     0.00000    2.98256   11.13588    6.19748
      32      444        4     0.00000   -0.01036    1.40553    1.07106
      33      444        5     0.00000    5.26093    1.85011    0.92351
      34      444        4     0.00000    4.93641   11.13810    7.47507
      35      444        4     0.00000    1.94823    1.37190    2.34060
      36      444        5     0.00000    5.48559   10.70967    8.30944
      37      444        4     0.00000    0.94573    7.62654    7.47302
      38      444        4     0.00000    4.21083    4.90458    2.35686
      39      444        5     0.00000    0.36328    8.05184    8.28732
      40      444        4     0.00000    0.43859    6.57577    6.69176
      41      444        4     0.00000    3.68763    5.94500    1.56944
      42      444        5     0.00000    5.70774    6.17693    6.91975
      43      444        5     0.00000    2.69824    6.32683    1.80071
      44      444        4     0.00000    1.22745    6.06471    5.65205
      45      444        4     0.00000    4.46338    6.45777    0.52027
      46      444        4     0.00000    5.31260    1.24381    4.79419
      47      444        4     0.00000    2.05020   11.26755    9.92158
      48      444        4     0.00000    0.73548    4.94016    4.83586
      49      444        4     0.00000    3.73174    7.56629    9.95688
      50      444        1     0.00000    9.15137    9.41116    8.59265
      51      444        1     0.00000   12.42805    3.10579    3.48481
      52      444        2     0.00000    7.70109    4.35425    3.93374
      53      444        2     0.00000   10.69440    8.15245    9.05464
      54      444        2     0.00000   10.88945    1.84729    3.87523
      55      444        2     0.00000    7.61779   10.67435    9.00295
      56      444        2     0.00000   12.05889    4.46033    4.96242
      57      444        2     0.00000    8.79524    8.03270   10.06753
      58      444        2     0.00000    6.50397    1.69264    4.94273
      59      444        2     0.00000    9.49002   10.80466   10.06262
      60      444        3     0.00000    9.94957   10.66058    7.24160
      61      444        3     0.00000    6.96536    1.86420    2.11704
      62      444        3     0.00000    8.42499    8.14409    7.25198
      63      444        3     0.00000   11.69303    4.39481    2.13747
      64      444        4     0.00000    9.73826   12.14832    5.36301
      65      444        4     0.00000    6.72768    0.38955    0.22920
      66      444        5     0.00000    9.11733   12.51808    4.55267
      67      444        5     0.00000   12.12251    0.03371    9.69377
      68      444        4     0.00000   11.01353    0.14740    5.61481
      69      444        4     0.00000    7.99613   12.36991    0.47412
      70      444        4     0.00000   11.75625   12.15023    6.68209
      71      444        4     0.00000    8.75132    0.35508    1.54004
      72      444        5     0.00000    6.50047   12.50843    6.91993
      73      444        5     0.00000    9.74435   12.50668    1.77336
      74      444        4     0.00000    8.73644    6.63370    5.40822
      75      444        4     0.00000   11.98084    5.90364    0.28669
      76      444        5     0.00000    9.38574    6.27291    4.61605
      77      444        5     0.00000    6.14452    6.26667    9.76620
      78      444        4     0.00000    9.18036    7.68099    6.23068
      79      444        4     0.00000   12.44110    4.86756    1.11596
      80      444        5     0.00000    7.16869    4.41889    0.97634
      81      444        4     0.00000    9.23536   11.13588    6.19748
      82      444        4     0.00000    6.24244    1.40553    1.07106
      83      444        5     0.00000    8.24672   10.70905    6.04703
      84      444        5     0.00000   11.51373    1.85011    0.92351
      85      444        4     0.00000   11.18921   11.13810    7.47507
      86      444        4     0.00000    8.20102    1.37190    2.34060
      87      444        4     0.00000    7.19853    7.62654    7.47302
      88      444        4     0.00000   10.46363    4.90458    2.35686
      89      444        5     0.00000    6.61608    8.05184    8.28732
      90      444        5     0.00000    9.88885    4.47744    3.17528
      91      444        4     0.00000    6.69139    6.57577    6.69176
      92      444        4     0.00000    9.94043    5.94500    1.56944
      93      444        5     0.00000   11.96054    6.17693    6.91975
      94      444        5     0.00000    8.95104    6.32683    1.80071
      95      444        4     0.00000    7.48025    6.06471    5.65205
      96      444        4     0.00000   10.71618    6.45777    0.52027
      97      444        4     0.00000   11.56540    1.24381    4.79419
      98      444        4     0.00000    8.30300   11.26755    9.92158
      99      444        4     0.00000    6.98827    4.94016    4.83586
     100      444        4     0.00000    9.98454    7.56629    9.95688
     101      444        6     0.00000    1.33216   10.39797    5.91745
     102      444        7     0.00000   12.33053    9.67257    5.67990
     103      444        5     0.00000   11.62675   10.32191    5.12020
     104      444        5     0.00000   12.31222    8.66530    5.21396
     105      444        5     0.00000   11.99452    9.64184    6.73742
     106      444        6     0.00000    2.88256    2.08779    3.74433
     107      444        7     0.00000    3.69851    2.75878    5.06278
     108      444        5     0.00000    4.79994    2.65668    4.98125
     109      444        5     0.00000    3.39741    2.42548    6.07781
     110      444        5     0.00000    3.44363    3.82500    4.88840
     111      444        6     0.00000    4.54974    8.48363    5.96857
     112      444        7     0.00000    6.02929    9.26824    5.74577
     113      444        5     0.00000    6.77090    8.63934    5.21217
     114      444        5     0.00000    6.01416   10.26660    5.26091
     115      444        5     0.00000    6.34268    9.33283    6.80869
     116      444        6     0.00000    3.24886    4.17963    3.73703
     117      444        7     0.00000    2.40681    3.49916    5.03405
     118      444        5     0.00000    1.30830    3.62209    4.94257
     119      444        5     0.00000    2.70241    3.80854    6.05823
     120      444        5     0.00000    2.64503    2.43198    4.84278
     121      444        6     0.00000   12.10529   10.40691    8.88324
     122      444        7     0.00000    0.39867    9.72254   10.20522
     123      444        5     0.00000    1.50174    9.81220   10.13164
     124      444        5     0.00000    0.32195   10.05616    0.94489
     125      444        5     0.00000    0.13277    8.65986   10.02571
     126      444        6     0.00000    9.13850    2.09342    3.73934
     127      444        7     0.00000    9.97650    2.80388    5.02283
     128      444        5     0.00000   10.76596    2.14340    5.43606
     129      444        5     0.00000   10.42181    3.80650    4.85411
     130      444        5     0.00000    9.14709    2.84180    5.75960
     131      444        6     0.00000   10.80601    8.47822    5.97358
     132      444        7     0.00000   12.30988    9.22490    5.78596
     133      444        5     0.00000    0.20199    9.13261    4.75469
     134      444        5     0.00000    0.61191    8.93940    6.49182
     135      444        5     0.00000   11.98994   10.27772    5.93236
     136      444        6     0.00000    1.57321    4.09355    0.86026
     137      444        7     0.00000    3.06728    3.33506    0.64400
     138      444        5     0.00000    3.79848    3.97503    0.10921
     139      444        5     0.00000    3.07137    2.33449    0.16349
     140      444        5     0.00000    3.37949    3.28081    1.70785

Bonds

       1        1        1        4
       2        1        1        6
       3        1        1        8
       4        1        1       10
       5        2        1       11
       6        2        1       13
       7        1        2        5
       8        1        2        7
       9        2        2       14
      10        1        2       52
      11        1        2       58
      12        2        2       61
      13        3        3       48
      14        1        3       51
      15        3        4       49
      16        3        5       46
      17        3        6       47
      18        3        7       99
      19        3        8       49
      20        1        9       51
      21        3        9       97
      22        3       10       47
      23        4       11       31
      24        4       11       34
      25        4       12       32
      26        4       12       35
      27        2       12       51
      28        4       13       29
      29        4       13       37
      30        4       14       30
      31        4       14       38
      32        6       15       17
      33        5       15       19
      34        5       15       31
      35        5       16       20
      36        5       16       32
      37        6       16       67
      38        6       18       65
      39        5       19       21
      40        7       19       46
      41        5       20       22
      42        7       20       47
      43        5       21       34
      44        6       21       72
      45        6       22       24
      46        5       22       35
      47        6       23       70
      48        6       25       27
      49        5       25       29
      50        5       25       44
      51        5       26       30
      52        5       26       45
      53        6       26       77
      54        6       28       75
      55        8       29      111
      56        6       30       80
      57        8       31      101
      58        6       32       84
      59        6       33       82
      60        6       34       36
      61        8       35      106
      62        6       37       39
      63        5       37       40
      64        5       38       41
      65        8       38      116
      66        5       40       44
      67        6       40       93
      68        6       41       43
      69        5       41       45
      70        6       42       91
      71        7       44       48
      72        7       45       49
      73        3       46       58
      74        3       48       56
      75        1       50       53
      76        1       50       55
      77        1       50       57
      78        1       50       59
      79        2       50       60
      80        2       50       62
      81        1       51       54
      82        1       51       56
      83        2       51       63
      84        3       52       99
      85        3       53      100
      86        3       54       97
      87        3       55       98
      88        3       57      100
      89        3       59       98
      90        4       60       81
      91        4       60       85
      92        4       61       82
      93        4       61       86
      94        4       62       78
      95        4       62       87
      96        4       63       79
      97        4       63       88
      98        6       64       66
      99        5       64       68
     100        5       64       81
     101        5       65       69
     102        5       65       82
     103        5       68       70
     104        7       68       97
     105        5       69       71
     106        7       69       98
     107        5       70       85
     108        6       71       73
     109        5       71       86
     110        6       74       76
     111        5       74       78
     112        5       74       95
     113        5       75       79
     114        5       75       96
     115        8       78      131
     116        8       79      136
     117        6       81       83
     118        8       85      121
     119        8       86      126
     120        6       87       89
     121        5       87       91
     122        6       88       90
     123        5       88       92
     124        5       91       95
     125        6       92       94
     126        5       92       96
     127        7       95       99
     128        7       96      100
     129        9      101      102
     130       10      102      103
     131       10      102      104
     132       10      102      105
     133        9      106      107
     134       10      107      108
     135       10      107      109
     136       10      107      110
     137        9      111      112
     138       10      112      113
     139       10      112      114
     140       10      112      115
     141        9      116      117
     142       10      117      118
     143       10      117      119
     144       10      117      120
     145        9      121      122
     146       10      122      123
     147       10      122      124
     148       10      122      125
     149        9      126      127
     150       10      127      128
     151       10      127      129
     152       10      127      130
     153        9      131      132
     154       10      132      133
     155       10      132      134
     156       10      132      135
     157        9      136      137
     158       10      137      138
     159       10      137      139
     160       10      137      140

Angles

       1        1        4        1        6
       2        1        4        1        8
       3        1        4        1       10
       4        2        4        1       11
       5        2        4        1       13
       6        1        6        1        8
       7        1        6        1       10
       8        2        6        1       11
       9        2        6        1       13
      10        1        8        1       10
      11        2        8        1       11
      12        2        8        1       13
      13        2       10        1       11
      14        2       10        1       13
      15        3       11        1       13
      16        2       14        2        5
      17        2       14        2        7
      18        2       14        2       52
      19        2       14        2       58
      20        3       14        2       61
      21        1        5        2        7
      22        1        5        2       52
      23        1        5        2       58
      24        2        5        2       61
      25        1        7        2       52
      26        1        7        2       58
      27        2        7        2       61
      28        1       52        2       58
      29        2       52        2       61
      30        2       58        2       61
      31        4       48        3       51
      32        4        1        4       49
      33        4        2        5       46
      34        4        1        6       47
      35        4        2        7       99
      36        4        1        8       49
      37        4       51        9       97
      38        4        1       10       47
      39        5        1       11       31
      40        5        1       11       34
      41        6       31       11       34
      42        6       32       12       35
      43        5       32       12       51
      44        5       35       12       51
      45        5        1       13       29
      46        5        1       13       37
      47        6       29       13       37
      48        5        2       14       30
      49        5        2       14       38
      50        6       30       14       38
      51        7       19       15       17
      52        8       19       15       31
      53        7       17       15       31
      54        8       20       16       32
      55        7       20       16       67
      56        7       32       16       67
      57        8       15       19       21
      58        9       15       19       46
      59        9       21       19       46
      60        8       16       20       22
      61        9       16       20       47
      62        9       22       20       47
      63        8       19       21       34
      64        7       19       21       72
      65        7       34       21       72
      66        8       20       22       35
      67        7       20       22       24
      68        7       35       22       24
      69        8       29       25       44
      70        7       29       25       27
      71        7       44       25       27
      72        8       30       26       45
      73        7       30       26       77
      74        7       45       26       77
      75       10       13       29       25
      76       11       13       29      111
      77       12       25       29      111
      78       10       14       30       26
      79       13       14       30       80
      80        7       26       30       80
      81       10       11       31       15
      82       11       11       31      101
      83       12       15       31      101
      84       10       12       32       16
      85       13       12       32       84
      86        7       16       32       84
      87       10       21       34       11
      88        7       21       34       36
      89       13       11       34       36
      90       10       12       35       22
      91       11       12       35      106
      92       12       22       35      106
      93       10       13       37       40
      94       13       13       37       39
      95        7       40       37       39
      96       10       14       38       41
      97       11       14       38      116
      98       12       41       38      116
      99        8       37       40       44
     100        7       37       40       93
     101        7       44       40       93
     102        8       38       41       45
     103        7       38       41       43
     104        7       45       41       43
     105        8       25       44       40
     106        9       25       44       48
     107        9       40       44       48
     108        8       26       45       41
     109        9       26       45       49
     110        9       41       45       49
     111       14        5       46       19
     112       15        5       46       58
     113       14       19       46       58
     114       14       10       47       20
     115       15       10       47        6
     116       14       20       47        6
     117       14        3       48       44
     118       15        3       48       56
     119       14       44       48       56
     120       14        8       49       45
     121       15        8       49        4
     122       14       45       49        4
     123        1       53       50       55
     124        1       53       50       57
     125        1       53       50       59
     126        2       53       50       60
     127        2       53       50       62
     128        1       55       50       57
     129        1       55       50       59
     130        2       55       50       60
     131        2       55       50       62
     132        1       57       50       59
     133        2       57       50       60
     134        2       57       50       62
     135        2       59       50       60
     136        2       59       50       62
     137        3       60       50       62
     138        2        9       51       12
     139        1        9       51       54
     140        1        9       51        3
     141        1        9       51       56
     142        2        9       51       63
     143        2       12       51       54
     144        2       12       51        3
     145        2       12       51       56
     146        3       12       51       63
     147        1       54       51        3
     148        1       54       51       56
     149        2       54       51       63
     150        1        3       51       56
     151        2        3       51       63
     152        2       56       51       63
     153        4        2       52       99
     154        4       50       53      100
     155        4       51       54       97
     156        4       50       55       98
     157        4       48       56       51
     158        4       50       57      100
     159        4        2       58       46
     160        4       50       59       98
     161        5       50       60       81
     162        5       50       60       85
     163        6       81       60       85
     164        5        2       61       86
     165        5        2       61       82
     166        6       86       61       82
     167        5       50       62       78
     168        5       50       62       87
     169        6       78       62       87
     170        5       88       63       51
     171        6       88       63       79
     172        5       51       63       79
     173        7       68       64       66
     174        8       68       64       81
     175        7       66       64       81
     176        7       69       65       18
     177        8       69       65       82
     178        7       18       65       82
     179        9       64       68       97
     180        8       64       68       70
     181        9       97       68       70
     182        8       65       69       71
     183        9       65       69       98
     184        9       71       69       98
     185        7       85       70       23
     186        8       85       70       68
     187        7       23       70       68
     188        7       69       71       73
     189        8       69       71       86
     190        7       73       71       86
     191        8       78       74       95
     192        7       78       74       76
     193        7       95       74       76
     194        7       28       75       79
     195        7       28       75       96
     196        8       79       75       96
     197       10       62       78       74
     198       11       62       78      131
     199       12       74       78      131
     200       10       63       79       75
     201       11       63       79      136
     202       12       75       79      136
     203       10       60       81       64
     204       13       60       81       83
     205        7       64       81       83
     206        7       65       82       33
     207       10       65       82       61
     208       13       33       82       61
     209       10       70       85       60
     210       12       70       85      121
     211       11       60       85      121
     212       10       61       86       71
     213       11       61       86      126
     214       12       71       86      126
     215       13       62       87       89
     216       10       62       87       91
     217        7       89       87       91
     218       10       63       88       92
     219       13       63       88       90
     220        7       92       88       90
     221        7       95       91       42
     222        8       95       91       87
     223        7       42       91       87
     224        8       88       92       96
     225        7       88       92       94
     226        7       96       92       94
     227        8       74       95       91
     228        9       74       95       99