units           real
atom_style      full
boundary        p p p

pair_style      lj/cut 5.000
bond_style      harmonic
angle_style     hybrid fourier cosine/periodic
dihedral_style  harmonic
improper_style  fourier

dielectric      1.0
special_bonds   lj/coul 0.0 0.0 1.0
pair_modify     tail yes mix arithmetic
box tilt        large
read_data       data.NiPyC2_relax_sc211_meta_functionalized_S-CH3
  triclinic box = (0 0 0) to (12.5056 12.5234 10.2743) with tilt (0 -0.227594 0)
  1 by 1 by 1 MPI processor grid
  reading atoms ...
  140 atoms
  scanning bonds ...
  6 = max bonds/atom
  scanning angles ...
  15 = max angles/atom
  scanning dihedrals ...
  10 = max dihedrals/atom
  scanning impropers ...
  3 = max impropers/atom
  reading bonds ...
  160 bonds
  reading angles ...
  300 angles
  reading dihedrals ...
  296 dihedrals
  reading impropers ...
  168 impropers
  6 = max # of 1-2 neighbors
  9 = max # of 1-3 neighbors
  12 = max # of special neighbors
  special bonds CPU = 0.000163362 secs
  read_data CPU = 0.00718117 secs

#### Atom Groupings ####
group           fram     id   1:140
140 atoms in group fram
#### END Atom Groupings ####

dump            NiPyC2_relax_sc211_meta_functionalized_S-CH3_xyzmov all xyz 20000 NiPyC2_relax_sc211_meta_functionalized_S-CH3_mov.xyz
dump_modify     NiPyC2_relax_sc211_meta_functionalized_S-CH3_xyzmov element Ni O N C H S C
min_style       cg
print           "MinStep,CellMinStep,AtomMinStep,FinalStep,Energy,EDiff" file NiPyC2_relax_sc211_meta_functionalized_S-CH3.min.csv screen no
variable        min_eval   equal 1.00e-06
variable        prev_E     equal 50000.00
variable        iter       loop 100000
label           loop_min
min_style       cg
fix             1 all box/relax aniso 0.0 vmax 0.01
minimize        1.0e-15 1.0e-15 10000 100000
WARNING: Using 'neigh_modify every 1 delay 0 check yes' setting during minimization (src/min.cpp:190)
Neighbor list info ...
  update every 1 steps, delay 0 steps, check yes
  max neighbors/atom: 2000, page size: 100000
  master list distance cutoff = 7
  ghost atom cutoff = 7
  binsize = 3.5, bins = 4 4 3
  1 neighbor lists, perpetual/occasional/extra = 1 0 0
  (1) pair lj/cut, perpetual
      attributes: half, newton on
      pair build: half/bin/newton/tri
      stencil: half/bin/3d/newton/tri
      bin: standard
WARNING: Inconsistent image flags (src/domain.cpp:785)
WARNING: Bond/angle/dihedral extent > half of periodic box length (src/domain.cpp:906)
Per MPI rank memory allocation (min/avg/max) = 17.53 | 17.53 | 17.53 Mbytes
Step Temp E_pair E_mol TotEng Press Volume 
       0            0 1.5556995e+10     2551.429 1.5556998e+10 2.6517553e+12    1609.0819 
     460            0    93.291613    1556.2019    1649.4935   -407.36198    1615.9576 
WARNING: Bond/angle/dihedral extent > half of periodic box length (src/domain.cpp:906)
Loop time of 0.135653 on 1 procs for 460 steps with 140 atoms

99.7% CPU use with 1 MPI tasks x 1 OpenMP threads

Minimization stats:
  Stopping criterion = linesearch alpha is zero
  Energy initial, next-to-last, final = 
         15556997630.1      1649.49351484      1649.49351484
  Force two-norm initial, final = 3.86112e+11 93.4971
  Force max component initial, final = 1.52997e+11 82.0369
  Final line search alpha, max atom move = 1.12352e-12 9.21698e-11
  Iterations, force evaluations = 460 729

MPI task timing breakdown:
Section |  min time  |  avg time  |  max time  |%varavg| %total
---------------------------------------------------------------
Pair    | 0.060808   | 0.060808   | 0.060808   |   0.0 | 44.83
Bond    | 0.043754   | 0.043754   | 0.043754   |   0.0 | 32.25
Neigh   | 0.012756   | 0.012756   | 0.012756   |   0.0 |  9.40
Comm    | 0.0041794  | 0.0041794  | 0.0041794  |   0.0 |  3.08
Output  | 0          | 0          | 0          |   0.0 |  0.00
Modify  | 0          | 0          | 0          |   0.0 |  0.00
Other   |            | 0.01416    |            |       | 10.44

Nlocal:    140 ave 140 max 140 min
Histogram: 1 0 0 0 0 0 0 0 0 0
Nghost:    1390 ave 1390 max 1390 min
Histogram: 1 0 0 0 0 0 0 0 0 0
Neighs:    8153 ave 8153 max 8153 min
Histogram: 1 0 0 0 0 0 0 0 0 0

Total # of neighbors = 8153
Ave neighs/atom = 58.2357
Ave special neighs/atom = 6.34286
Neighbor list builds = 25
Dangerous builds = 0
unfix           1
min_style       fire
variable        tempstp    equal $(step)
variable        tempstp    equal 460
variable        CellMinStep equal ${tempstp}
variable        CellMinStep equal 460
minimize        1.0e-15 1.0e-15 10000 100000
WARNING: Using 'neigh_modify every 1 delay 0 check yes' setting during minimization (src/min.cpp:190)
  Parameters for fire: 
    dmax delaystep dtgrow dtshrink alpha0 alphashrink tmax tmin    integrator halfstepback 
     0.1        20    1.1      0.5   0.25        0.99   10 0.02 eulerimplicit          yes 
WARNING: Inconsistent image flags (src/domain.cpp:785)
WARNING: Bond/angle/dihedral extent > half of periodic box length (src/domain.cpp:906)
Per MPI rank memory allocation (min/avg/max) = 16.41 | 16.41 | 16.41 Mbytes
Step Temp E_pair E_mol TotEng Press 
     460            0    93.291613    1556.2019    1649.4935   -407.36198 
   10460 3.980454e-05    42.798389    1532.9885    1575.7869     -16576.5 
WARNING: Bond/angle/dihedral extent > half of periodic box length (src/domain.cpp:906)
Loop time of 1.48498 on 1 procs for 10000 steps with 140 atoms

99.9% CPU use with 1 MPI tasks x 1 OpenMP threads

Minimization stats:
  Stopping criterion = max iterations
  Energy initial, next-to-last, final = 
         1649.49351484      1575.78685774       1575.7868568
  Force two-norm initial, final = 34.3366 0.0160789
  Force max component initial, final = 7.42445 0.00360113
  Final line search alpha, max atom move = 0 0
  Iterations, force evaluations = 10000 10000

MPI task timing breakdown:
Section |  min time  |  avg time  |  max time  |%varavg| %total
---------------------------------------------------------------
Pair    | 0.85449    | 0.85449    | 0.85449    |   0.0 | 57.54
Bond    | 0.53267    | 0.53267    | 0.53267    |   0.0 | 35.87
Neigh   | 0.0060965  | 0.0060965  | 0.0060965  |   0.0 |  0.41
Comm    | 0.052588   | 0.052588   | 0.052588   |   0.0 |  3.54
Output  | 2.7186e-05 | 2.7186e-05 | 2.7186e-05 |   0.0 |  0.00
Modify  | 0          | 0          | 0          |   0.0 |  0.00
Other   |            | 0.0391     |            |       |  2.63

Nlocal:    140 ave 140 max 140 min
Histogram: 1 0 0 0 0 0 0 0 0 0
Nghost:    1376 ave 1376 max 1376 min
Histogram: 1 0 0 0 0 0 0 0 0 0
Neighs:    8098 ave 8098 max 8098 min
Histogram: 1 0 0 0 0 0 0 0 0 0

Total # of neighbors = 8098
Ave neighs/atom = 57.8429
Ave special neighs/atom = 6.34286
Neighbor list builds = 11
Dangerous builds = 0
variable        AtomMinStep equal ${tempstp}
variable        AtomMinStep equal 460
variable        temppe     equal $(pe)
variable        temppe     equal 1575.7868567958862513
variable        min_E      equal abs(${prev_E}-${temppe})
variable        min_E      equal abs(50000-${temppe})
variable        min_E      equal abs(50000-1575.78685679589)
print           "${iter},${CellMinStep},${AtomMinStep},${AtomMinStep},$(pe),${min_E}" append NiPyC2_relax_sc211_meta_functionalized_S-CH3.min.csv screen no
if              "${min_E} < ${min_eval}" then "jump SELF break_min"
variable        prev_E     equal ${temppe}
variable        prev_E     equal 1575.78685679589
next            iter
jump            SELF loop_min
min_style       cg
fix             1 all box/relax aniso 0.0 vmax 0.01
minimize        1.0e-15 1.0e-15 10000 100000
WARNING: Using 'neigh_modify every 1 delay 0 check yes' setting during minimization (src/min.cpp:190)
WARNING: Inconsistent image flags (src/domain.cpp:785)
WARNING: Bond/angle/dihedral extent > half of periodic box length (src/domain.cpp:906)
Per MPI rank memory allocation (min/avg/max) = 17.53 | 17.53 | 17.53 Mbytes
Step Temp E_pair E_mol TotEng Press Volume 
   10460 3.980454e-05    42.798389    1532.9885    1575.7869     -16576.5    1615.9576 
   10474 3.980454e-05    62.183637    1508.3245    1570.5082    6.0624238    1581.6089 
WARNING: Bond/angle/dihedral extent > half of periodic box length (src/domain.cpp:906)
Loop time of 0.0154527 on 1 procs for 14 steps with 140 atoms

100.0% CPU use with 1 MPI tasks x 1 OpenMP threads

Minimization stats:
  Stopping criterion = linesearch alpha is zero
  Energy initial, next-to-last, final = 
          1575.7868568      1570.50817322      1570.50817322
  Force two-norm initial, final = 693.944 28.2025
  Force max component initial, final = 477.038 5.80019
  Final line search alpha, max atom move = 1.00918e-11 5.85343e-11
  Iterations, force evaluations = 14 81

MPI task timing breakdown:
Section |  min time  |  avg time  |  max time  |%varavg| %total
---------------------------------------------------------------
Pair    | 0.0081111  | 0.0081111  | 0.0081111  |   0.0 | 52.49
Bond    | 0.0050694  | 0.0050694  | 0.0050694  |   0.0 | 32.81
Neigh   | 0          | 0          | 0          |   0.0 |  0.00
Comm    | 0.0004912  | 0.0004912  | 0.0004912  |   0.0 |  3.18
Output  | 0          | 0          | 0          |   0.0 |  0.00
Modify  | 0          | 0          | 0          |   0.0 |  0.00
Other   |            | 0.001781   |            |       | 11.53

Nlocal:    140 ave 140 max 140 min
Histogram: 1 0 0 0 0 0 0 0 0 0
Nghost:    1382 ave 1382 max 1382 min
Histogram: 1 0 0 0 0 0 0 0 0 0
Neighs:    8092 ave 8092 max 8092 min
Histogram: 1 0 0 0 0 0 0 0 0 0

Total # of neighbors = 8092
Ave neighs/atom = 57.8
Ave special neighs/atom = 6.34286
Neighbor list builds = 0
Dangerous builds = 0
unfix           1
min_style       fire
variable        tempstp    equal $(step)
variable        tempstp    equal 10474
variable        CellMinStep equal ${tempstp}
variable        CellMinStep equal 10474
minimize        1.0e-15 1.0e-15 10000 100000
WARNING: Using 'neigh_modify every 1 delay 0 check yes' setting during minimization (src/min.cpp:190)
  Parameters for fire: 
    dmax delaystep dtgrow dtshrink alpha0 alphashrink tmax tmin    integrator halfstepback 
     0.1        20    1.1      0.5   0.25        0.99   10 0.02 eulerimplicit          yes 
WARNING: Inconsistent image flags (src/domain.cpp:785)
WARNING: Bond/angle/dihedral extent > half of periodic box length (src/domain.cpp:906)
Per MPI rank memory allocation (min/avg/max) = 16.41 | 16.41 | 16.41 Mbytes
Step Temp E_pair E_mol TotEng Press 
   10474            0    62.183637    1508.3245    1570.5082    6.0619471 
   19437 9.1657545e-11    44.247919    1522.0553    1566.3033   -9024.9984 
WARNING: Bond/angle/dihedral extent > half of periodic box length (src/domain.cpp:906)
Loop time of 1.35115 on 1 procs for 8963 steps with 140 atoms

99.9% CPU use with 1 MPI tasks x 1 OpenMP threads

Minimization stats:
  Stopping criterion = energy tolerance
  Energy initial, next-to-last, final = 
         1570.50817322      1566.30325892      1566.30325892
  Force two-norm initial, final = 27.2506 3.17346e-05
  Force max component initial, final = 5.73077 1.26052e-05
  Final line search alpha, max atom move = 0 0
  Iterations, force evaluations = 8963 8963

MPI task timing breakdown:
Section |  min time  |  avg time  |  max time  |%varavg| %total
---------------------------------------------------------------
Pair    | 0.78955    | 0.78955    | 0.78955    |   0.0 | 58.44
Bond    | 0.47824    | 0.47824    | 0.47824    |   0.0 | 35.40
Neigh   | 0.00060526 | 0.00060526 | 0.00060526 |   0.0 |  0.04
Comm    | 0.047273   | 0.047273   | 0.047273   |   0.0 |  3.50
Output  | 0          | 0          | 0          |   0.0 |  0.00
Modify  | 0          | 0          | 0          |   0.0 |  0.00
Other   |            | 0.03548    |            |       |  2.63

Nlocal:    140 ave 140 max 140 min
Histogram: 1 0 0 0 0 0 0 0 0 0
Nghost:    1382 ave 1382 max 1382 min
Histogram: 1 0 0 0 0 0 0 0 0 0
Neighs:    8322 ave 8322 max 8322 min
Histogram: 1 0 0 0 0 0 0 0 0 0

Total # of neighbors = 8322
Ave neighs/atom = 59.4429
Ave special neighs/atom = 6.34286
Neighbor list builds = 1
Dangerous builds = 0
variable        AtomMinStep equal ${tempstp}
variable        AtomMinStep equal 10474
variable        temppe     equal $(pe)
variable        temppe     equal 1566.3032589235049272
variable        min_E      equal abs(${prev_E}-${temppe})
variable        min_E      equal abs(1575.78685679589-${temppe})
variable        min_E      equal abs(1575.78685679589-1566.3032589235)
print           "${iter},${CellMinStep},${AtomMinStep},${AtomMinStep},$(pe),${min_E}" append NiPyC2_relax_sc211_meta_functionalized_S-CH3.min.csv screen no
if              "${min_E} < ${min_eval}" then "jump SELF break_min"
variable        prev_E     equal ${temppe}
variable        prev_E     equal 1566.3032589235
next            iter
jump            SELF loop_min
min_style       cg
fix             1 all box/relax aniso 0.0 vmax 0.01
minimize        1.0e-15 1.0e-15 10000 100000
WARNING: Using 'neigh_modify every 1 delay 0 check yes' setting during minimization (src/min.cpp:190)
WARNING: Inconsistent image flags (src/domain.cpp:785)
WARNING: Bond/angle/dihedral extent > half of periodic box length (src/domain.cpp:906)
Per MPI rank memory allocation (min/avg/max) = 17.53 | 17.53 | 17.53 Mbytes
Step Temp E_pair E_mol TotEng Press Volume 
   19437 9.1657545e-11    44.247919    1522.0553    1566.3033   -9024.9984    1581.6089 
   19440 9.1657545e-11    49.628442    1515.7442    1565.3726   -325.08874    1572.7425 
WARNING: Bond/angle/dihedral extent > half of periodic box length (src/domain.cpp:906)
Loop time of 0.0113683 on 1 procs for 3 steps with 140 atoms

100.0% CPU use with 1 MPI tasks x 1 OpenMP threads

Minimization stats:
  Stopping criterion = linesearch alpha is zero
  Energy initial, next-to-last, final = 
         1566.30325892      1565.37262277      1565.37262277
  Force two-norm initial, final = 431.737 38.9116
  Force max component initial, final = 384.419 23.6365
  Final line search alpha, max atom move = 5.22715e-12 1.23552e-10
  Iterations, force evaluations = 3 59

MPI task timing breakdown:
Section |  min time  |  avg time  |  max time  |%varavg| %total
---------------------------------------------------------------
Pair    | 0.0060481  | 0.0060481  | 0.0060481  |   0.0 | 53.20
Bond    | 0.0036933  | 0.0036933  | 0.0036933  |   0.0 | 32.49
Neigh   | 0          | 0          | 0          |   0.0 |  0.00
Comm    | 0.00033605 | 0.00033605 | 0.00033605 |   0.0 |  2.96
Output  | 0          | 0          | 0          |   0.0 |  0.00
Modify  | 0          | 0          | 0          |   0.0 |  0.00
Other   |            | 0.001291   |            |       | 11.36

Nlocal:    140 ave 140 max 140 min
Histogram: 1 0 0 0 0 0 0 0 0 0
Nghost:    1382 ave 1382 max 1382 min
Histogram: 1 0 0 0 0 0 0 0 0 0
Neighs:    8321 ave 8321 max 8321 min
Histogram: 1 0 0 0 0 0 0 0 0 0

Total # of neighbors = 8321
Ave neighs/atom = 59.4357
Ave special neighs/atom = 6.34286
Neighbor list builds = 0
Dangerous builds = 0
unfix           1
min_style       fire
variable        tempstp    equal $(step)
variable        tempstp    equal 19440
variable        CellMinStep equal ${tempstp}
variable        CellMinStep equal 19440
minimize        1.0e-15 1.0e-15 10000 100000
WARNING: Using 'neigh_modify every 1 delay 0 check yes' setting during minimization (src/min.cpp:190)
  Parameters for fire: 
    dmax delaystep dtgrow dtshrink alpha0 alphashrink tmax tmin    integrator halfstepback 
     0.1        20    1.1      0.5   0.25        0.99   10 0.02 eulerimplicit          yes 
WARNING: Inconsistent image flags (src/domain.cpp:785)
WARNING: Bond/angle/dihedral extent > half of periodic box length (src/domain.cpp:906)
Per MPI rank memory allocation (min/avg/max) = 16.41 | 16.41 | 16.41 Mbytes
Step Temp E_pair E_mol TotEng Press 
   19440            0    49.628442    1515.7442    1565.3726   -325.08874 
   22747 1.1478322e-10    46.525661    1518.2279    1564.7535   -6353.4495 
WARNING: Bond/angle/dihedral extent > half of periodic box length (src/domain.cpp:906)
Loop time of 0.502059 on 1 procs for 3307 steps with 140 atoms

99.7% CPU use with 1 MPI tasks x 1 OpenMP threads

Minimization stats:
  Stopping criterion = energy tolerance
  Energy initial, next-to-last, final = 
         1565.37262277      1564.75352775      1564.75352775
  Force two-norm initial, final = 30.8221 3.50612e-05
  Force max component initial, final = 5.86724 1.42902e-05
  Final line search alpha, max atom move = 0 0
  Iterations, force evaluations = 3307 3307

MPI task timing breakdown:
Section |  min time  |  avg time  |  max time  |%varavg| %total
---------------------------------------------------------------
Pair    | 0.29414    | 0.29414    | 0.29414    |   0.0 | 58.59
Bond    | 0.17709    | 0.17709    | 0.17709    |   0.0 | 35.27
Neigh   | 0          | 0          | 0          |   0.0 |  0.00
Comm    | 0.01743    | 0.01743    | 0.01743    |   0.0 |  3.47
Output  | 0.00013665 | 0.00013665 | 0.00013665 |   0.0 |  0.03
Modify  | 0          | 0          | 0          |   0.0 |  0.00
Other   |            | 0.01327    |            |       |  2.64

Nlocal:    140 ave 140 max 140 min
Histogram: 1 0 0 0 0 0 0 0 0 0
Nghost:    1382 ave 1382 max 1382 min
Histogram: 1 0 0 0 0 0 0 0 0 0
Neighs:    8376 ave 8376 max 8376 min
Histogram: 1 0 0 0 0 0 0 0 0 0

Total # of neighbors = 8376
Ave neighs/atom = 59.8286
Ave special neighs/atom = 6.34286
Neighbor list builds = 0
Dangerous builds = 0
variable        AtomMinStep equal ${tempstp}
variable        AtomMinStep equal 19440
variable        temppe     equal $(pe)
variable        temppe     equal 1564.7535277461645364
variable        min_E      equal abs(${prev_E}-${temppe})
variable        min_E      equal abs(1566.3032589235-${temppe})
variable        min_E      equal abs(1566.3032589235-1564.75352774616)
print           "${iter},${CellMinStep},${AtomMinStep},${AtomMinStep},$(pe),${min_E}" append NiPyC2_relax_sc211_meta_functionalized_S-CH3.min.csv screen no
if              "${min_E} < ${min_eval}" then "jump SELF break_min"
variable        prev_E     equal ${temppe}
variable        prev_E     equal 1564.75352774616
next            iter
jump            SELF loop_min
min_style       cg
fix             1 all box/relax aniso 0.0 vmax 0.01
minimize        1.0e-15 1.0e-15 10000 100000
WARNING: Using 'neigh_modify every 1 delay 0 check yes' setting during minimization (src/min.cpp:190)
WARNING: Inconsistent image flags (src/domain.cpp:785)
WARNING: Bond/angle/dihedral extent > half of periodic box length (src/domain.cpp:906)
Per MPI rank memory allocation (min/avg/max) = 17.53 | 17.53 | 17.53 Mbytes
Step Temp E_pair E_mol TotEng Press Volume 
   22747 1.1478322e-10    46.525661    1518.2279    1564.7535   -6353.4495    1572.7425 
   22758 1.1478322e-10    54.916467    1508.3781    1563.2945    539.69739    1557.2699 
WARNING: Bond/angle/dihedral extent > half of periodic box length (src/domain.cpp:906)
Loop time of 0.0145518 on 1 procs for 11 steps with 140 atoms

99.9% CPU use with 1 MPI tasks x 1 OpenMP threads

Minimization stats:
  Stopping criterion = linesearch alpha is zero
  Energy initial, next-to-last, final = 
         1564.75352775      1563.29453718      1563.29453718
  Force two-norm initial, final = 353.479 47.3222
  Force max component initial, final = 333.493 29.5213
  Final line search alpha, max atom move = 2.91131e-12 8.59458e-11
  Iterations, force evaluations = 11 75

MPI task timing breakdown:
Section |  min time  |  avg time  |  max time  |%varavg| %total
---------------------------------------------------------------
Pair    | 0.0077496  | 0.0077496  | 0.0077496  |   0.0 | 53.25
Bond    | 0.0046921  | 0.0046921  | 0.0046921  |   0.0 | 32.24
Neigh   | 0          | 0          | 0          |   0.0 |  0.00
Comm    | 0.00043726 | 0.00043726 | 0.00043726 |   0.0 |  3.00
Output  | 0          | 0          | 0          |   0.0 |  0.00
Modify  | 0          | 0          | 0          |   0.0 |  0.00
Other   |            | 0.001673   |            |       | 11.50

Nlocal:    140 ave 140 max 140 min
Histogram: 1 0 0 0 0 0 0 0 0 0
Nghost:    1382 ave 1382 max 1382 min
Histogram: 1 0 0 0 0 0 0 0 0 0
Neighs:    8375 ave 8375 max 8375 min
Histogram: 1 0 0 0 0 0 0 0 0 0

Total # of neighbors = 8375
Ave neighs/atom = 59.8214
Ave special neighs/atom = 6.34286
Neighbor list builds = 0
Dangerous builds = 0
unfix           1
min_style       fire
variable        tempstp    equal $(step)
variable        tempstp    equal 22758
variable        CellMinStep equal ${tempstp}
variable        CellMinStep equal 22758
minimize        1.0e-15 1.0e-15 10000 100000
WARNING: Using 'neigh_modify every 1 delay 0 check yes' setting during minimization (src/min.cpp:190)
  Parameters for fire: 
    dmax delaystep dtgrow dtshrink alpha0 alphashrink tmax tmin    integrator halfstepback 
     0.1        20    1.1      0.5   0.25        0.99   10 0.02 eulerimplicit          yes 
WARNING: Inconsistent image flags (src/domain.cpp:785)
WARNING: Bond/angle/dihedral extent > half of periodic box length (src/domain.cpp:906)
Per MPI rank memory allocation (min/avg/max) = 16.41 | 16.41 | 16.41 Mbytes
Step Temp E_pair E_mol TotEng Press 
   22758            0    54.916467    1508.3781    1563.2945    539.69739 
   25557 1.3073995e-10    49.508496    1512.7691    1562.2776   -2799.3161 
WARNING: Bond/angle/dihedral extent > half of periodic box length (src/domain.cpp:906)
Loop time of 0.425773 on 1 procs for 2799 steps with 140 atoms

100.0% CPU use with 1 MPI tasks x 1 OpenMP threads

Minimization stats:
  Stopping criterion = energy tolerance
  Energy initial, next-to-last, final = 
         1563.29453718      1562.27758082      1562.27758082
  Force two-norm initial, final = 34.6478 3.4459e-05
  Force max component initial, final = 4.86149 1.2212e-05
  Final line search alpha, max atom move = 0 0
  Iterations, force evaluations = 2799 2799

MPI task timing breakdown:
Section |  min time  |  avg time  |  max time  |%varavg| %total
---------------------------------------------------------------
Pair    | 0.25026    | 0.25026    | 0.25026    |   0.0 | 58.78
Bond    | 0.14949    | 0.14949    | 0.14949    |   0.0 | 35.11
Neigh   | 0          | 0          | 0          |   0.0 |  0.00
Comm    | 0.014825   | 0.014825   | 0.014825   |   0.0 |  3.48
Output  | 0          | 0          | 0          |   0.0 |  0.00
Modify  | 0          | 0          | 0          |   0.0 |  0.00
Other   |            | 0.01119    |            |       |  2.63

Nlocal:    140 ave 140 max 140 min
Histogram: 1 0 0 0 0 0 0 0 0 0
Nghost:    1390 ave 1390 max 1390 min
Histogram: 1 0 0 0 0 0 0 0 0 0
Neighs:    8464 ave 8464 max 8464 min
Histogram: 1 0 0 0 0 0 0 0 0 0

Total # of neighbors = 8464
Ave neighs/atom = 60.4571
Ave special neighs/atom = 6.34286
Neighbor list builds = 0
Dangerous builds = 0
variable        AtomMinStep equal ${tempstp}
variable        AtomMinStep equal 22758
variable        temppe     equal $(pe)
variable        temppe     equal 1562.277580816402633
variable        min_E      equal abs(${prev_E}-${temppe})
variable        min_E      equal abs(1564.75352774616-${temppe})
variable        min_E      equal abs(1564.75352774616-1562.2775808164)
print           "${iter},${CellMinStep},${AtomMinStep},${AtomMinStep},$(pe),${min_E}" append NiPyC2_relax_sc211_meta_functionalized_S-CH3.min.csv screen no
if              "${min_E} < ${min_eval}" then "jump SELF break_min"
variable        prev_E     equal ${temppe}
variable        prev_E     equal 1562.2775808164
next            iter
jump            SELF loop_min
min_style       cg
fix             1 all box/relax aniso 0.0 vmax 0.01
minimize        1.0e-15 1.0e-15 10000 100000
WARNING: Using 'neigh_modify every 1 delay 0 check yes' setting during minimization (src/min.cpp:190)
WARNING: Inconsistent image flags (src/domain.cpp:785)
WARNING: Bond/angle/dihedral extent > half of periodic box length (src/domain.cpp:906)
Per MPI rank memory allocation (min/avg/max) = 17.53 | 17.53 | 17.53 Mbytes
Step Temp E_pair E_mol TotEng Press Volume 
   25557 1.3073995e-10    49.508496    1512.7691    1562.2776   -2799.3161    1557.2699 
   25564 1.3073995e-10    51.999397     1509.555    1561.5544   -106.39701    1551.9193 
WARNING: Bond/angle/dihedral extent > half of periodic box length (src/domain.cpp:906)
Loop time of 0.0125932 on 1 procs for 7 steps with 140 atoms

99.9% CPU use with 1 MPI tasks x 1 OpenMP threads

Minimization stats:
  Stopping criterion = linesearch alpha is zero
  Energy initial, next-to-last, final = 
         1562.27758082      1561.55436278      1561.55436278
  Force two-norm initial, final = 244.975 25.3817
  Force max component initial, final = 234.235 6.92982
  Final line search alpha, max atom move = 1.60805e-11 1.11435e-10
  Iterations, force evaluations = 7 65

MPI task timing breakdown:
Section |  min time  |  avg time  |  max time  |%varavg| %total
---------------------------------------------------------------
Pair    | 0.0066901  | 0.0066901  | 0.0066901  |   0.0 | 53.12
Bond    | 0.0040843  | 0.0040843  | 0.0040843  |   0.0 | 32.43
Neigh   | 0          | 0          | 0          |   0.0 |  0.00
Comm    | 0.00038581 | 0.00038581 | 0.00038581 |   0.0 |  3.06
Output  | 0          | 0          | 0          |   0.0 |  0.00
Modify  | 0          | 0          | 0          |   0.0 |  0.00
Other   |            | 0.001433   |            |       | 11.38

Nlocal:    140 ave 140 max 140 min
Histogram: 1 0 0 0 0 0 0 0 0 0
Nghost:    1394 ave 1394 max 1394 min
Histogram: 1 0 0 0 0 0 0 0 0 0
Neighs:    8468 ave 8468 max 8468 min
Histogram: 1 0 0 0 0 0 0 0 0 0

Total # of neighbors = 8468
Ave neighs/atom = 60.4857
Ave special neighs/atom = 6.34286
Neighbor list builds = 0
Dangerous builds = 0
unfix           1
min_style       fire
variable        tempstp    equal $(step)
variable        tempstp    equal 25564
variable        CellMinStep equal ${tempstp}
variable        CellMinStep equal 25564
minimize        1.0e-15 1.0e-15 10000 100000
WARNING: Using 'neigh_modify every 1 delay 0 check yes' setting during minimization (src/min.cpp:190)
  Parameters for fire: 
    dmax delaystep dtgrow dtshrink alpha0 alphashrink tmax tmin    integrator halfstepback 
     0.1        20    1.1      0.5   0.25        0.99   10 0.02 eulerimplicit          yes 
WARNING: Inconsistent image flags (src/domain.cpp:785)
WARNING: Bond/angle/dihedral extent > half of periodic box length (src/domain.cpp:906)
Per MPI rank memory allocation (min/avg/max) = 16.41 | 16.41 | 16.41 Mbytes
Step Temp E_pair E_mol TotEng Press 
   25564            0    51.999397     1509.555    1561.5544   -106.39701 
   28188 2.3092661e-10    49.431997    1511.4941    1560.9261   -2256.7734 
WARNING: Bond/angle/dihedral extent > half of periodic box length (src/domain.cpp:906)
Loop time of 0.399302 on 1 procs for 2624 steps with 140 atoms

99.8% CPU use with 1 MPI tasks x 1 OpenMP threads

Minimization stats:
  Stopping criterion = energy tolerance
  Energy initial, next-to-last, final = 
         1561.55436278      1560.92605628      1560.92605628
  Force two-norm initial, final = 23.4916 4.18247e-05
  Force max component initial, final = 3.71848 1.96926e-05
  Final line search alpha, max atom move = 0 0
  Iterations, force evaluations = 2624 2624

MPI task timing breakdown:
Section |  min time  |  avg time  |  max time  |%varavg| %total
---------------------------------------------------------------
Pair    | 0.23536    | 0.23536    | 0.23536    |   0.0 | 58.94
Bond    | 0.13926    | 0.13926    | 0.13926    |   0.0 | 34.88
Neigh   | 0          | 0          | 0          |   0.0 |  0.00
Comm    | 0.014242   | 0.014242   | 0.014242   |   0.0 |  3.57
Output  | 0          | 0          | 0          |   0.0 |  0.00
Modify  | 0          | 0          | 0          |   0.0 |  0.00
Other   |            | 0.01043    |            |       |  2.61

Nlocal:    140 ave 140 max 140 min
Histogram: 1 0 0 0 0 0 0 0 0 0
Nghost:    1394 ave 1394 max 1394 min
Histogram: 1 0 0 0 0 0 0 0 0 0
Neighs:    8495 ave 8495 max 8495 min
Histogram: 1 0 0 0 0 0 0 0 0 0

Total # of neighbors = 8495
Ave neighs/atom = 60.6786
Ave special neighs/atom = 6.34286
Neighbor list builds = 0
Dangerous builds = 0
variable        AtomMinStep equal ${tempstp}
variable        AtomMinStep equal 25564
variable        temppe     equal $(pe)
variable        temppe     equal 1560.9260562822566953
variable        min_E      equal abs(${prev_E}-${temppe})
variable        min_E      equal abs(1562.2775808164-${temppe})
variable        min_E      equal abs(1562.2775808164-1560.92605628226)
print           "${iter},${CellMinStep},${AtomMinStep},${AtomMinStep},$(pe),${min_E}" append NiPyC2_relax_sc211_meta_functionalized_S-CH3.min.csv screen no
if              "${min_E} < ${min_eval}" then "jump SELF break_min"
variable        prev_E     equal ${temppe}
variable        prev_E     equal 1560.92605628226
next            iter
jump            SELF loop_min
min_style       cg
fix             1 all box/relax aniso 0.0 vmax 0.01
minimize        1.0e-15 1.0e-15 10000 100000
WARNING: Using 'neigh_modify every 1 delay 0 check yes' setting during minimization (src/min.cpp:190)
WARNING: Inconsistent image flags (src/domain.cpp:785)
WARNING: Bond/angle/dihedral extent > half of periodic box length (src/domain.cpp:906)
Per MPI rank memory allocation (min/avg/max) = 17.53 | 17.53 | 17.53 Mbytes
Step Temp E_pair E_mol TotEng Press Volume 
   28188 2.3092661e-10    49.431997    1511.4941    1560.9261   -2256.7734    1551.9193 
   28199 2.3092661e-10    51.312819    1509.0232     1560.336   -478.09293    1547.3356 
WARNING: Bond/angle/dihedral extent > half of periodic box length (src/domain.cpp:906)
Loop time of 0.0143999 on 1 procs for 11 steps with 140 atoms

100.0% CPU use with 1 MPI tasks x 1 OpenMP threads

Minimization stats:
  Stopping criterion = linesearch alpha is zero
  Energy initial, next-to-last, final = 
         1560.92605628       1560.3360218       1560.3360218
  Force two-norm initial, final = 204.8 29.7872
  Force max component initial, final = 196.581 12.9113
  Final line search alpha, max atom move = 1.04106e-11 1.34414e-10
  Iterations, force evaluations = 11 73

MPI task timing breakdown:
Section |  min time  |  avg time  |  max time  |%varavg| %total
---------------------------------------------------------------
Pair    | 0.0077608  | 0.0077608  | 0.0077608  |   0.0 | 53.89
Bond    | 0.0045916  | 0.0045916  | 0.0045916  |   0.0 | 31.89
Neigh   | 0          | 0          | 0          |   0.0 |  0.00
Comm    | 0.00043857 | 0.00043857 | 0.00043857 |   0.0 |  3.05
Output  | 0          | 0          | 0          |   0.0 |  0.00
Modify  | 0          | 0          | 0          |   0.0 |  0.00
Other   |            | 0.001609   |            |       | 11.17

Nlocal:    140 ave 140 max 140 min
Histogram: 1 0 0 0 0 0 0 0 0 0
Nghost:    1394 ave 1394 max 1394 min
Histogram: 1 0 0 0 0 0 0 0 0 0
Neighs:    8493 ave 8493 max 8493 min
Histogram: 1 0 0 0 0 0 0 0 0 0

Total # of neighbors = 8493
Ave neighs/atom = 60.6643
Ave special neighs/atom = 6.34286
Neighbor list builds = 0
Dangerous builds = 0
unfix           1
min_style       fire
variable        tempstp    equal $(step)
variable        tempstp    equal 28199
variable        CellMinStep equal ${tempstp}
variable        CellMinStep equal 28199
minimize        1.0e-15 1.0e-15 10000 100000
WARNING: Using 'neigh_modify every 1 delay 0 check yes' setting during minimization (src/min.cpp:190)
  Parameters for fire: 
    dmax delaystep dtgrow dtshrink alpha0 alphashrink tmax tmin    integrator halfstepback 
     0.1        20    1.1      0.5   0.25        0.99   10 0.02 eulerimplicit          yes 
WARNING: Inconsistent image flags (src/domain.cpp:785)
WARNING: Bond/angle/dihedral extent > half of periodic box length (src/domain.cpp:906)
Per MPI rank memory allocation (min/avg/max) = 16.41 | 16.41 | 16.41 Mbytes
Step Temp E_pair E_mol TotEng Press 
   28199            0    51.312819    1509.0232     1560.336   -478.09293 
   30922 9.7018671e-11    49.340903     1510.735    1560.0759   -2071.6588 
WARNING: Bond/angle/dihedral extent > half of periodic box length (src/domain.cpp:906)
Loop time of 0.421021 on 1 procs for 2723 steps with 140 atoms

100.0% CPU use with 1 MPI tasks x 1 OpenMP threads

Minimization stats:
  Stopping criterion = energy tolerance
  Energy initial, next-to-last, final = 
          1560.3360218      1560.07586967      1560.07586967
  Force two-norm initial, final = 23.0398 3.14889e-05
  Force max component initial, final = 4.56669 1.29312e-05
  Final line search alpha, max atom move = 0 0
  Iterations, force evaluations = 2723 2723

MPI task timing breakdown:
Section |  min time  |  avg time  |  max time  |%varavg| %total
---------------------------------------------------------------
Pair    | 0.24864    | 0.24864    | 0.24864    |   0.0 | 59.06
Bond    | 0.14677    | 0.14677    | 0.14677    |   0.0 | 34.86
Neigh   | 0          | 0          | 0          |   0.0 |  0.00
Comm    | 0.014597   | 0.014597   | 0.014597   |   0.0 |  3.47
Output  | 0          | 0          | 0          |   0.0 |  0.00
Modify  | 0          | 0          | 0          |   0.0 |  0.00
Other   |            | 0.01102    |            |       |  2.62

Nlocal:    140 ave 140 max 140 min
Histogram: 1 0 0 0 0 0 0 0 0 0
Nghost:    1390 ave 1390 max 1390 min
Histogram: 1 0 0 0 0 0 0 0 0 0
Neighs:    8520 ave 8520 max 8520 min
Histogram: 1 0 0 0 0 0 0 0 0 0

Total # of neighbors = 8520
Ave neighs/atom = 60.8571
Ave special neighs/atom = 6.34286
Neighbor list builds = 0
Dangerous builds = 0
variable        AtomMinStep equal ${tempstp}
variable        AtomMinStep equal 28199
variable        temppe     equal $(pe)
variable        temppe     equal 1560.0758696737148057
variable        min_E      equal abs(${prev_E}-${temppe})
variable        min_E      equal abs(1560.92605628226-${temppe})
variable        min_E      equal abs(1560.92605628226-1560.07586967371)
print           "${iter},${CellMinStep},${AtomMinStep},${AtomMinStep},$(pe),${min_E}" append NiPyC2_relax_sc211_meta_functionalized_S-CH3.min.csv screen no
if              "${min_E} < ${min_eval}" then "jump SELF break_min"
variable        prev_E     equal ${temppe}
variable        prev_E     equal 1560.07586967371
next            iter
jump            SELF loop_min
min_style       cg
fix             1 all box/relax aniso 0.0 vmax 0.01
minimize        1.0e-15 1.0e-15 10000 100000
WARNING: Using 'neigh_modify every 1 delay 0 check yes' setting during minimization (src/min.cpp:190)
WARNING: Inconsistent image flags (src/domain.cpp:785)
WARNING: Bond/angle/dihedral extent > half of periodic box length (src/domain.cpp:906)
Per MPI rank memory allocation (min/avg/max) = 17.53 | 17.53 | 17.53 Mbytes
Step Temp E_pair E_mol TotEng Press Volume 
   30922 9.7018671e-11    49.340903     1510.735    1560.0759   -2071.6588    1547.3356 
   30928 9.7018671e-11    50.897535    1508.8649    1559.7625    212.81065    1544.2092 
WARNING: Bond/angle/dihedral extent > half of periodic box length (src/domain.cpp:906)
Loop time of 0.0125991 on 1 procs for 6 steps with 140 atoms

99.7% CPU use with 1 MPI tasks x 1 OpenMP threads

Minimization stats:
  Stopping criterion = linesearch alpha is zero
  Energy initial, next-to-last, final = 
         1560.07586967      1559.76248048      1559.76248048
  Force two-norm initial, final = 163.298 20.8792
  Force max component initial, final = 159.741 10.1711
  Final line search alpha, max atom move = 2.10586e-11 2.14189e-10
  Iterations, force evaluations = 6 65

MPI task timing breakdown:
Section |  min time  |  avg time  |  max time  |%varavg| %total
---------------------------------------------------------------
Pair    | 0.006717   | 0.006717   | 0.006717   |   0.0 | 53.31
Bond    | 0.004002   | 0.004002   | 0.004002   |   0.0 | 31.76
Neigh   | 0          | 0          | 0          |   0.0 |  0.00
Comm    | 0.00039096 | 0.00039096 | 0.00039096 |   0.0 |  3.10
Output  | 0          | 0          | 0          |   0.0 |  0.00
Modify  | 0          | 0          | 0          |   0.0 |  0.00
Other   |            | 0.001489   |            |       | 11.82

Nlocal:    140 ave 140 max 140 min
Histogram: 1 0 0 0 0 0 0 0 0 0
Nghost:    1390 ave 1390 max 1390 min
Histogram: 1 0 0 0 0 0 0 0 0 0
Neighs:    8519 ave 8519 max 8519 min
Histogram: 1 0 0 0 0 0 0 0 0 0

Total # of neighbors = 8519
Ave neighs/atom = 60.85
Ave special neighs/atom = 6.34286
Neighbor list builds = 0
Dangerous builds = 0
unfix           1
min_style       fire
variable        tempstp    equal $(step)
variable        tempstp    equal 30928
variable        CellMinStep equal ${tempstp}
variable        CellMinStep equal 30928
minimize        1.0e-15 1.0e-15 10000 100000
WARNING: Using 'neigh_modify every 1 delay 0 check yes' setting during minimization (src/min.cpp:190)
  Parameters for fire: 
    dmax delaystep dtgrow dtshrink alpha0 alphashrink tmax tmin    integrator halfstepback 
     0.1        20    1.1      0.5   0.25        0.99   10 0.02 eulerimplicit          yes 
WARNING: Inconsistent image flags (src/domain.cpp:785)
WARNING: Bond/angle/dihedral extent > half of periodic box length (src/domain.cpp:906)
Per MPI rank memory allocation (min/avg/max) = 16.41 | 16.41 | 16.41 Mbytes
Step Temp E_pair E_mol TotEng Press 
   30928            0    50.897535    1508.8649    1559.7625    212.81065 
   33423 1.0024558e-10    49.639798    1510.0745    1559.7143   -1646.0326 
WARNING: Bond/angle/dihedral extent > half of periodic box length (src/domain.cpp:906)
Loop time of 0.387631 on 1 procs for 2495 steps with 140 atoms

99.9% CPU use with 1 MPI tasks x 1 OpenMP threads

Minimization stats:
  Stopping criterion = energy tolerance
  Energy initial, next-to-last, final = 
         1559.76248048      1559.71429869      1559.71429869
  Force two-norm initial, final = 16.642 3.10472e-05
  Force max component initial, final = 2.75915 1.18679e-05
  Final line search alpha, max atom move = 0 0
  Iterations, force evaluations = 2495 2495

MPI task timing breakdown:
Section |  min time  |  avg time  |  max time  |%varavg| %total
---------------------------------------------------------------
Pair    | 0.22894    | 0.22894    | 0.22894    |   0.0 | 59.06
Bond    | 0.13514    | 0.13514    | 0.13514    |   0.0 | 34.86
Neigh   | 0          | 0          | 0          |   0.0 |  0.00
Comm    | 0.013347   | 0.013347   | 0.013347   |   0.0 |  3.44
Output  | 0          | 0          | 0          |   0.0 |  0.00
Modify  | 0          | 0          | 0          |   0.0 |  0.00
Other   |            | 0.01021    |            |       |  2.63

Nlocal:    140 ave 140 max 140 min
Histogram: 1 0 0 0 0 0 0 0 0 0
Nghost:    1386 ave 1386 max 1386 min
Histogram: 1 0 0 0 0 0 0 0 0 0
Neighs:    8544 ave 8544 max 8544 min
Histogram: 1 0 0 0 0 0 0 0 0 0

Total # of neighbors = 8544
Ave neighs/atom = 61.0286
Ave special neighs/atom = 6.34286
Neighbor list builds = 0
Dangerous builds = 0
variable        AtomMinStep equal ${tempstp}
variable        AtomMinStep equal 30928
variable        temppe     equal $(pe)
variable        temppe     equal 1559.7142986887861298
variable        min_E      equal abs(${prev_E}-${temppe})
variable        min_E      equal abs(1560.07586967371-${temppe})
variable        min_E      equal abs(1560.07586967371-1559.71429868879)
print           "${iter},${CellMinStep},${AtomMinStep},${AtomMinStep},$(pe),${min_E}" append NiPyC2_relax_sc211_meta_functionalized_S-CH3.min.csv screen no
if              "${min_E} < ${min_eval}" then "jump SELF break_min"
variable        prev_E     equal ${temppe}
variable        prev_E     equal 1559.71429868879
next            iter
jump            SELF loop_min
min_style       cg
fix             1 all box/relax aniso 0.0 vmax 0.01
minimize        1.0e-15 1.0e-15 10000 100000
WARNING: Using 'neigh_modify every 1 delay 0 check yes' setting during minimization (src/min.cpp:190)
WARNING: Inconsistent image flags (src/domain.cpp:785)
WARNING: Bond/angle/dihedral extent > half of periodic box length (src/domain.cpp:906)
Per MPI rank memory allocation (min/avg/max) = 17.53 | 17.53 | 17.53 Mbytes
Step Temp E_pair E_mol TotEng Press Volume 
   33423 1.0024558e-10    49.639798    1510.0745    1559.7143   -1646.0326    1544.2092 
   33426 1.0024558e-10    50.137647    1509.4695    1559.6072    -215.6787    1543.1806 
WARNING: Bond/angle/dihedral extent > half of periodic box length (src/domain.cpp:906)
Loop time of 0.0166463 on 1 procs for 3 steps with 140 atoms

100.0% CPU use with 1 MPI tasks x 1 OpenMP threads

Minimization stats:
  Stopping criterion = linesearch alpha is zero
  Energy initial, next-to-last, final = 
         1559.71429869      1559.60715943      1559.60715943
  Force two-norm initial, final = 140.456 15.4306
  Force max component initial, final = 137.245 9.95681
  Final line search alpha, max atom move = 2.80114e-11 2.78904e-10
  Iterations, force evaluations = 3 57

MPI task timing breakdown:
Section |  min time  |  avg time  |  max time  |%varavg| %total
---------------------------------------------------------------
Pair    | 0.0088944  | 0.0088944  | 0.0088944  |   0.0 | 53.43
Bond    | 0.005351   | 0.005351   | 0.005351   |   0.0 | 32.14
Neigh   | 0          | 0          | 0          |   0.0 |  0.00
Comm    | 0.00049607 | 0.00049607 | 0.00049607 |   0.0 |  2.98
Output  | 0          | 0          | 0          |   0.0 |  0.00
Modify  | 0          | 0          | 0          |   0.0 |  0.00
Other   |            | 0.001905   |            |       | 11.44

Nlocal:    140 ave 140 max 140 min
Histogram: 1 0 0 0 0 0 0 0 0 0
Nghost:    1390 ave 1390 max 1390 min
Histogram: 1 0 0 0 0 0 0 0 0 0
Neighs:    8550 ave 8550 max 8550 min
Histogram: 1 0 0 0 0 0 0 0 0 0

Total # of neighbors = 8550
Ave neighs/atom = 61.0714
Ave special neighs/atom = 6.34286
Neighbor list builds = 0
Dangerous builds = 0
unfix           1
min_style       fire
variable        tempstp    equal $(step)
variable        tempstp    equal 33426
variable        CellMinStep equal ${tempstp}
variable        CellMinStep equal 33426
minimize        1.0e-15 1.0e-15 10000 100000
WARNING: Using 'neigh_modify every 1 delay 0 check yes' setting during minimization (src/min.cpp:190)
  Parameters for fire: 
    dmax delaystep dtgrow dtshrink alpha0 alphashrink tmax tmin    integrator halfstepback 
     0.1        20    1.1      0.5   0.25        0.99   10 0.02 eulerimplicit          yes 
WARNING: Inconsistent image flags (src/domain.cpp:785)
WARNING: Bond/angle/dihedral extent > half of periodic box length (src/domain.cpp:906)
Per MPI rank memory allocation (min/avg/max) = 16.41 | 16.41 | 16.41 Mbytes
Step Temp E_pair E_mol TotEng Press 
   33426            0    50.137647    1509.4695    1559.6072    -215.6787 
   35502 1.0443059e-10    49.549262    1509.9867     1559.536   -1665.1899 
WARNING: Bond/angle/dihedral extent > half of periodic box length (src/domain.cpp:906)
Loop time of 0.321209 on 1 procs for 2076 steps with 140 atoms

100.0% CPU use with 1 MPI tasks x 1 OpenMP threads

Minimization stats:
  Stopping criterion = energy tolerance
  Energy initial, next-to-last, final = 
         1559.60715943      1559.53599612      1559.53599612
  Force two-norm initial, final = 11.3243 3.24709e-05
  Force max component initial, final = 2.09602 1.17968e-05
  Final line search alpha, max atom move = 0 0
  Iterations, force evaluations = 2076 2076

MPI task timing breakdown:
Section |  min time  |  avg time  |  max time  |%varavg| %total
---------------------------------------------------------------
Pair    | 0.18995    | 0.18995    | 0.18995    |   0.0 | 59.14
Bond    | 0.11175    | 0.11175    | 0.11175    |   0.0 | 34.79
Neigh   | 0          | 0          | 0          |   0.0 |  0.00
Comm    | 0.011078   | 0.011078   | 0.011078   |   0.0 |  3.45
Output  | 0          | 0          | 0          |   0.0 |  0.00
Modify  | 0          | 0          | 0          |   0.0 |  0.00
Other   |            | 0.008428   |            |       |  2.62

Nlocal:    140 ave 140 max 140 min
Histogram: 1 0 0 0 0 0 0 0 0 0
Nghost:    1386 ave 1386 max 1386 min
Histogram: 1 0 0 0 0 0 0 0 0 0
Neighs:    8557 ave 8557 max 8557 min
Histogram: 1 0 0 0 0 0 0 0 0 0

Total # of neighbors = 8557
Ave neighs/atom = 61.1214
Ave special neighs/atom = 6.34286
Neighbor list builds = 0
Dangerous builds = 0
variable        AtomMinStep equal ${tempstp}
variable        AtomMinStep equal 33426
variable        temppe     equal $(pe)
variable        temppe     equal 1559.5359961224644394
variable        min_E      equal abs(${prev_E}-${temppe})
variable        min_E      equal abs(1559.71429868879-${temppe})
variable        min_E      equal abs(1559.71429868879-1559.53599612246)
print           "${iter},${CellMinStep},${AtomMinStep},${AtomMinStep},$(pe),${min_E}" append NiPyC2_relax_sc211_meta_functionalized_S-CH3.min.csv screen no
if              "${min_E} < ${min_eval}" then "jump SELF break_min"
variable        prev_E     equal ${temppe}
variable        prev_E     equal 1559.53599612246
next            iter
jump            SELF loop_min
min_style       cg
fix             1 all box/relax aniso 0.0 vmax 0.01
minimize        1.0e-15 1.0e-15 10000 100000
WARNING: Using 'neigh_modify every 1 delay 0 check yes' setting during minimization (src/min.cpp:190)
WARNING: Inconsistent image flags (src/domain.cpp:785)
WARNING: Bond/angle/dihedral extent > half of periodic box length (src/domain.cpp:906)
Per MPI rank memory allocation (min/avg/max) = 17.53 | 17.53 | 17.53 Mbytes
Step Temp E_pair E_mol TotEng Press Volume 
   35502 1.0443059e-10    49.549262    1509.9867     1559.536   -1665.1899    1543.1806 
   35505 1.0443059e-10    50.149637    1509.3311    1559.4808   -196.41911    1542.1015 
WARNING: Bond/angle/dihedral extent > half of periodic box length (src/domain.cpp:906)
Loop time of 0.0109141 on 1 procs for 3 steps with 140 atoms

100.0% CPU use with 1 MPI tasks x 1 OpenMP threads

Minimization stats:
  Stopping criterion = linesearch alpha is zero
  Energy initial, next-to-last, final = 
         1559.53599612        1559.480769        1559.480769
  Force two-norm initial, final = 130.171 14.4103
  Force max component initial, final = 128.396 9.47889
  Final line search alpha, max atom move = 5.84273e-11 5.53826e-10
  Iterations, force evaluations = 3 55

MPI task timing breakdown:
Section |  min time  |  avg time  |  max time  |%varavg| %total
---------------------------------------------------------------
Pair    | 0.0058087  | 0.0058087  | 0.0058087  |   0.0 | 53.22
Bond    | 0.0035048  | 0.0035048  | 0.0035048  |   0.0 | 32.11
Neigh   | 0          | 0          | 0          |   0.0 |  0.00
Comm    | 0.00032103 | 0.00032103 | 0.00032103 |   0.0 |  2.94
Output  | 0          | 0          | 0          |   0.0 |  0.00
Modify  | 0          | 0          | 0          |   0.0 |  0.00
Other   |            | 0.00128    |            |       | 11.72

Nlocal:    140 ave 140 max 140 min
Histogram: 1 0 0 0 0 0 0 0 0 0
Nghost:    1386 ave 1386 max 1386 min
Histogram: 1 0 0 0 0 0 0 0 0 0
Neighs:    8563 ave 8563 max 8563 min
Histogram: 1 0 0 0 0 0 0 0 0 0

Total # of neighbors = 8563
Ave neighs/atom = 61.1643
Ave special neighs/atom = 6.34286
Neighbor list builds = 0
Dangerous builds = 0
unfix           1
min_style       fire
variable        tempstp    equal $(step)
variable        tempstp    equal 35505
variable        CellMinStep equal ${tempstp}
variable        CellMinStep equal 35505
minimize        1.0e-15 1.0e-15 10000 100000
WARNING: Using 'neigh_modify every 1 delay 0 check yes' setting during minimization (src/min.cpp:190)
  Parameters for fire: 
    dmax delaystep dtgrow dtshrink alpha0 alphashrink tmax tmin    integrator halfstepback 
     0.1        20    1.1      0.5   0.25        0.99   10 0.02 eulerimplicit          yes 
WARNING: Inconsistent image flags (src/domain.cpp:785)
WARNING: Bond/angle/dihedral extent > half of periodic box length (src/domain.cpp:906)
Per MPI rank memory allocation (min/avg/max) = 16.41 | 16.41 | 16.41 Mbytes
Step Temp E_pair E_mol TotEng Press 
   35505            0    50.149637    1509.3311    1559.4808   -196.41911 
   37773 1.2448975e-10    49.537438    1509.8577    1559.3951    -1621.231 
WARNING: Bond/angle/dihedral extent > half of periodic box length (src/domain.cpp:906)
Loop time of 0.351574 on 1 procs for 2268 steps with 140 atoms

100.0% CPU use with 1 MPI tasks x 1 OpenMP threads

Minimization stats:
  Stopping criterion = energy tolerance
  Energy initial, next-to-last, final = 
           1559.480769      1559.39512398      1559.39512398
  Force two-norm initial, final = 10.5201 3.02634e-05
  Force max component initial, final = 1.95244 1.27527e-05
  Final line search alpha, max atom move = 0 0
  Iterations, force evaluations = 2268 2268

MPI task timing breakdown:
Section |  min time  |  avg time  |  max time  |%varavg| %total
---------------------------------------------------------------
Pair    | 0.20786    | 0.20786    | 0.20786    |   0.0 | 59.12
Bond    | 0.1222     | 0.1222     | 0.1222     |   0.0 | 34.76
Neigh   | 0          | 0          | 0          |   0.0 |  0.00
Comm    | 0.012238   | 0.012238   | 0.012238   |   0.0 |  3.48
Output  | 0          | 0          | 0          |   0.0 |  0.00
Modify  | 0          | 0          | 0          |   0.0 |  0.00
Other   |            | 0.009274   |            |       |  2.64

Nlocal:    140 ave 140 max 140 min
Histogram: 1 0 0 0 0 0 0 0 0 0
Nghost:    1396 ave 1396 max 1396 min
Histogram: 1 0 0 0 0 0 0 0 0 0
Neighs:    8569 ave 8569 max 8569 min
Histogram: 1 0 0 0 0 0 0 0 0 0

Total # of neighbors = 8569
Ave neighs/atom = 61.2071
Ave special neighs/atom = 6.34286
Neighbor list builds = 0
Dangerous builds = 0
variable        AtomMinStep equal ${tempstp}
variable        AtomMinStep equal 35505
variable        temppe     equal $(pe)
variable        temppe     equal 1559.3951239765920036
variable        min_E      equal abs(${prev_E}-${temppe})
variable        min_E      equal abs(1559.53599612246-${temppe})
variable        min_E      equal abs(1559.53599612246-1559.39512397659)
print           "${iter},${CellMinStep},${AtomMinStep},${AtomMinStep},$(pe),${min_E}" append NiPyC2_relax_sc211_meta_functionalized_S-CH3.min.csv screen no
if              "${min_E} < ${min_eval}" then "jump SELF break_min"
variable        prev_E     equal ${temppe}
variable        prev_E     equal 1559.39512397659
next            iter
jump            SELF loop_min
min_style       cg
fix             1 all box/relax aniso 0.0 vmax 0.01
minimize        1.0e-15 1.0e-15 10000 100000
WARNING: Using 'neigh_modify every 1 delay 0 check yes' setting during minimization (src/min.cpp:190)
WARNING: Inconsistent image flags (src/domain.cpp:785)
WARNING: Bond/angle/dihedral extent > half of periodic box length (src/domain.cpp:906)
Per MPI rank memory allocation (min/avg/max) = 17.53 | 17.53 | 17.53 Mbytes
Step Temp E_pair E_mol TotEng Press Volume 
   37773 1.2448975e-10    49.537438    1509.8577    1559.3951    -1621.231    1542.1015 
   37778 1.2448975e-10    50.597388    1508.7022    1559.2996   -278.09748    1540.2059 
WARNING: Bond/angle/dihedral extent > half of periodic box length (src/domain.cpp:906)
Loop time of 0.011324 on 1 procs for 5 steps with 140 atoms

100.0% CPU use with 1 MPI tasks x 1 OpenMP threads

Minimization stats:
  Stopping criterion = linesearch alpha is zero
  Energy initial, next-to-last, final = 
         1559.39512398      1559.29956582      1559.29956582
  Force two-norm initial, final = 120.432 27.8568
  Force max component initial, final = 119.406 24.3703
  Final line search alpha, max atom move = 1.05811e-11 2.57865e-10
  Iterations, force evaluations = 5 59

MPI task timing breakdown:
Section |  min time  |  avg time  |  max time  |%varavg| %total
---------------------------------------------------------------
Pair    | 0.0061189  | 0.0061189  | 0.0061189  |   0.0 | 54.03
Bond    | 0.0036021  | 0.0036021  | 0.0036021  |   0.0 | 31.81
Neigh   | 0          | 0          | 0          |   0.0 |  0.00
Comm    | 0.00033679 | 0.00033679 | 0.00033679 |   0.0 |  2.97
Output  | 0          | 0          | 0          |   0.0 |  0.00
Modify  | 0          | 0          | 0          |   0.0 |  0.00
Other   |            | 0.001266   |            |       | 11.18

Nlocal:    140 ave 140 max 140 min
Histogram: 1 0 0 0 0 0 0 0 0 0
Nghost:    1396 ave 1396 max 1396 min
Histogram: 1 0 0 0 0 0 0 0 0 0
Neighs:    8567 ave 8567 max 8567 min
Histogram: 1 0 0 0 0 0 0 0 0 0

Total # of neighbors = 8567
Ave neighs/atom = 61.1929
Ave special neighs/atom = 6.34286
Neighbor list builds = 0
Dangerous builds = 0
unfix           1
min_style       fire
variable        tempstp    equal $(step)
variable        tempstp    equal 37778
variable        CellMinStep equal ${tempstp}
variable        CellMinStep equal 37778
minimize        1.0e-15 1.0e-15 10000 100000
WARNING: Using 'neigh_modify every 1 delay 0 check yes' setting during minimization (src/min.cpp:190)
  Parameters for fire: 
    dmax delaystep dtgrow dtshrink alpha0 alphashrink tmax tmin    integrator halfstepback 
     0.1        20    1.1      0.5   0.25        0.99   10 0.02 eulerimplicit          yes 
WARNING: Inconsistent image flags (src/domain.cpp:785)
WARNING: Bond/angle/dihedral extent > half of periodic box length (src/domain.cpp:906)
Per MPI rank memory allocation (min/avg/max) = 16.41 | 16.41 | 16.41 Mbytes
Step Temp E_pair E_mol TotEng Press 
   37778            0    50.597388    1508.7022    1559.2996   -278.09748 
   40216 1.0421177e-10    49.672608    1509.4891    1559.1617   -1343.2038 
WARNING: Bond/angle/dihedral extent > half of periodic box length (src/domain.cpp:906)
Loop time of 0.379615 on 1 procs for 2438 steps with 140 atoms

99.9% CPU use with 1 MPI tasks x 1 OpenMP threads

Minimization stats:
  Stopping criterion = energy tolerance
  Energy initial, next-to-last, final = 
         1559.29956582      1559.16174003      1559.16174003
  Force two-norm initial, final = 11.9038 0.000111718
  Force max component initial, final = 1.93044 2.7761e-05
  Final line search alpha, max atom move = 0 0
  Iterations, force evaluations = 2438 2438

MPI task timing breakdown:
Section |  min time  |  avg time  |  max time  |%varavg| %total
---------------------------------------------------------------
Pair    | 0.22517    | 0.22517    | 0.22517    |   0.0 | 59.32
Bond    | 0.1314     | 0.1314     | 0.1314     |   0.0 | 34.61
Neigh   | 0          | 0          | 0          |   0.0 |  0.00
Comm    | 0.013127   | 0.013127   | 0.013127   |   0.0 |  3.46
Output  | 0.00013564 | 0.00013564 | 0.00013564 |   0.0 |  0.04
Modify  | 0          | 0          | 0          |   0.0 |  0.00
Other   |            | 0.009784   |            |       |  2.58

Nlocal:    140 ave 140 max 140 min
Histogram: 1 0 0 0 0 0 0 0 0 0
Nghost:    1396 ave 1396 max 1396 min
Histogram: 1 0 0 0 0 0 0 0 0 0
Neighs:    8581 ave 8581 max 8581 min
Histogram: 1 0 0 0 0 0 0 0 0 0

Total # of neighbors = 8581
Ave neighs/atom = 61.2929
Ave special neighs/atom = 6.34286
Neighbor list builds = 0
Dangerous builds = 0
variable        AtomMinStep equal ${tempstp}
variable        AtomMinStep equal 37778
variable        temppe     equal $(pe)
variable        temppe     equal 1559.1617400295381231
variable        min_E      equal abs(${prev_E}-${temppe})
variable        min_E      equal abs(1559.39512397659-${temppe})
variable        min_E      equal abs(1559.39512397659-1559.16174002954)
print           "${iter},${CellMinStep},${AtomMinStep},${AtomMinStep},$(pe),${min_E}" append NiPyC2_relax_sc211_meta_functionalized_S-CH3.min.csv screen no
if              "${min_E} < ${min_eval}" then "jump SELF break_min"
variable        prev_E     equal ${temppe}
variable        prev_E     equal 1559.16174002954
next            iter
jump            SELF loop_min
min_style       cg
fix             1 all box/relax aniso 0.0 vmax 0.01
minimize        1.0e-15 1.0e-15 10000 100000
WARNING: Using 'neigh_modify every 1 delay 0 check yes' setting during minimization (src/min.cpp:190)
WARNING: Inconsistent image flags (src/domain.cpp:785)
WARNING: Bond/angle/dihedral extent > half of periodic box length (src/domain.cpp:906)
Per MPI rank memory allocation (min/avg/max) = 17.53 | 17.53 | 17.53 Mbytes
Step Temp E_pair E_mol TotEng Press Volume 
   40216 1.0421177e-10    49.672608    1509.4891    1559.1617   -1343.2038    1540.2059 
   40219 1.0421177e-10    49.983627    1508.9976    1558.9812   -181.34029    1539.3827 
WARNING: Bond/angle/dihedral extent > half of periodic box length (src/domain.cpp:906)
Loop time of 0.010979 on 1 procs for 3 steps with 140 atoms

99.9% CPU use with 1 MPI tasks x 1 OpenMP threads

Minimization stats:
  Stopping criterion = linesearch alpha is zero
  Energy initial, next-to-last, final = 
         1559.16174003      1558.98123032      1558.98123032
  Force two-norm initial, final = 106.504 12.3121
  Force max component initial, final = 105.393 8.20153
  Final line search alpha, max atom move = 5.92593e-11 4.86017e-10
  Iterations, force evaluations = 3 55

MPI task timing breakdown:
Section |  min time  |  avg time  |  max time  |%varavg| %total
---------------------------------------------------------------
Pair    | 0.0059124  | 0.0059124  | 0.0059124  |   0.0 | 53.85
Bond    | 0.0034978  | 0.0034978  | 0.0034978  |   0.0 | 31.86
Neigh   | 0          | 0          | 0          |   0.0 |  0.00
Comm    | 0.00033504 | 0.00033504 | 0.00033504 |   0.0 |  3.05
Output  | 0          | 0          | 0          |   0.0 |  0.00
Modify  | 0          | 0          | 0          |   0.0 |  0.00
Other   |            | 0.001234   |            |       | 11.24

Nlocal:    140 ave 140 max 140 min
Histogram: 1 0 0 0 0 0 0 0 0 0
Nghost:    1396 ave 1396 max 1396 min
Histogram: 1 0 0 0 0 0 0 0 0 0
Neighs:    8582 ave 8582 max 8582 min
Histogram: 1 0 0 0 0 0 0 0 0 0

Total # of neighbors = 8582
Ave neighs/atom = 61.3
Ave special neighs/atom = 6.34286
Neighbor list builds = 0
Dangerous builds = 0
unfix           1
min_style       fire
variable        tempstp    equal $(step)
variable        tempstp    equal 40219
variable        CellMinStep equal ${tempstp}
variable        CellMinStep equal 40219
minimize        1.0e-15 1.0e-15 10000 100000
WARNING: Using 'neigh_modify every 1 delay 0 check yes' setting during minimization (src/min.cpp:190)
  Parameters for fire: 
    dmax delaystep dtgrow dtshrink alpha0 alphashrink tmax tmin    integrator halfstepback 
     0.1        20    1.1      0.5   0.25        0.99   10 0.02 eulerimplicit          yes 
WARNING: Inconsistent image flags (src/domain.cpp:785)
WARNING: Bond/angle/dihedral extent > half of periodic box length (src/domain.cpp:906)
Per MPI rank memory allocation (min/avg/max) = 16.41 | 16.41 | 16.41 Mbytes
Step Temp E_pair E_mol TotEng Press 
   40219            0    49.983627    1508.9976    1558.9812   -181.34029 
   42707 1.0065522e-10     49.49212    1509.4403    1558.9324   -1356.7074 
WARNING: Bond/angle/dihedral extent > half of periodic box length (src/domain.cpp:906)
Loop time of 0.385478 on 1 procs for 2488 steps with 140 atoms

100.0% CPU use with 1 MPI tasks x 1 OpenMP threads

Minimization stats:
  Stopping criterion = energy tolerance
  Energy initial, next-to-last, final = 
         1558.98123032      1558.93237508      1558.93237508
  Force two-norm initial, final = 8.73109 2.86396e-05
  Force max component initial, final = 1.60214 9.09098e-06
  Final line search alpha, max atom move = 0 0
  Iterations, force evaluations = 2488 2488

MPI task timing breakdown:
Section |  min time  |  avg time  |  max time  |%varavg| %total
---------------------------------------------------------------
Pair    | 0.22826    | 0.22826    | 0.22826    |   0.0 | 59.22
Bond    | 0.13362    | 0.13362    | 0.13362    |   0.0 | 34.66
Neigh   | 0          | 0          | 0          |   0.0 |  0.00
Comm    | 0.013409   | 0.013409   | 0.013409   |   0.0 |  3.48
Output  | 0          | 0          | 0          |   0.0 |  0.00
Modify  | 0          | 0          | 0          |   0.0 |  0.00
Other   |            | 0.01019    |            |       |  2.64

Nlocal:    140 ave 140 max 140 min
Histogram: 1 0 0 0 0 0 0 0 0 0
Nghost:    1396 ave 1396 max 1396 min
Histogram: 1 0 0 0 0 0 0 0 0 0
Neighs:    8590 ave 8590 max 8590 min
Histogram: 1 0 0 0 0 0 0 0 0 0

Total # of neighbors = 8590
Ave neighs/atom = 61.3571
Ave special neighs/atom = 6.34286
Neighbor list builds = 0
Dangerous builds = 0
variable        AtomMinStep equal ${tempstp}
variable        AtomMinStep equal 40219
variable        temppe     equal $(pe)
variable        temppe     equal 1558.9323750766964167
variable        min_E      equal abs(${prev_E}-${temppe})
variable        min_E      equal abs(1559.16174002954-${temppe})
variable        min_E      equal abs(1559.16174002954-1558.9323750767)
print           "${iter},${CellMinStep},${AtomMinStep},${AtomMinStep},$(pe),${min_E}" append NiPyC2_relax_sc211_meta_functionalized_S-CH3.min.csv screen no
if              "${min_E} < ${min_eval}" then "jump SELF break_min"
variable        prev_E     equal ${temppe}
variable        prev_E     equal 1558.9323750767
next            iter
jump            SELF loop_min
min_style       cg
fix             1 all box/relax aniso 0.0 vmax 0.01
minimize        1.0e-15 1.0e-15 10000 100000
WARNING: Using 'neigh_modify every 1 delay 0 check yes' setting during minimization (src/min.cpp:190)
WARNING: Inconsistent image flags (src/domain.cpp:785)
WARNING: Bond/angle/dihedral extent > half of periodic box length (src/domain.cpp:906)
Per MPI rank memory allocation (min/avg/max) = 17.53 | 17.53 | 17.53 Mbytes
Step Temp E_pair E_mol TotEng Press Volume 
   42707 1.0065522e-10     49.49212    1509.4403    1558.9324   -1356.7074    1539.3827 
   42710 1.0065522e-10    49.946451    1508.9097    1558.8562   -161.25474     1538.521 
WARNING: Bond/angle/dihedral extent > half of periodic box length (src/domain.cpp:906)
Loop time of 0.0110762 on 1 procs for 3 steps with 140 atoms

100.0% CPU use with 1 MPI tasks x 1 OpenMP threads

Minimization stats:
  Stopping criterion = linesearch alpha is zero
  Energy initial, next-to-last, final = 
         1558.93237508       1558.8561575       1558.8561575
  Force two-norm initial, final = 99.7613 11.4958
  Force max component initial, final = 99.293 7.76152
  Final line search alpha, max atom move = 6.36406e-11 4.93948e-10
  Iterations, force evaluations = 3 55

MPI task timing breakdown:
Section |  min time  |  avg time  |  max time  |%varavg| %total
---------------------------------------------------------------
Pair    | 0.0059464  | 0.0059464  | 0.0059464  |   0.0 | 53.69
Bond    | 0.0035566  | 0.0035566  | 0.0035566  |   0.0 | 32.11
Neigh   | 0          | 0          | 0          |   0.0 |  0.00
Comm    | 0.00032193 | 0.00032193 | 0.00032193 |   0.0 |  2.91
Output  | 0          | 0          | 0          |   0.0 |  0.00
Modify  | 0          | 0          | 0          |   0.0 |  0.00
Other   |            | 0.001251   |            |       | 11.30

Nlocal:    140 ave 140 max 140 min
Histogram: 1 0 0 0 0 0 0 0 0 0
Nghost:    1396 ave 1396 max 1396 min
Histogram: 1 0 0 0 0 0 0 0 0 0
Neighs:    8594 ave 8594 max 8594 min
Histogram: 1 0 0 0 0 0 0 0 0 0

Total # of neighbors = 8594
Ave neighs/atom = 61.3857
Ave special neighs/atom = 6.34286
Neighbor list builds = 0
Dangerous builds = 0
unfix           1
min_style       fire
variable        tempstp    equal $(step)
variable        tempstp    equal 42710
variable        CellMinStep equal ${tempstp}
variable        CellMinStep equal 42710
minimize        1.0e-15 1.0e-15 10000 100000
WARNING: Using 'neigh_modify every 1 delay 0 check yes' setting during minimization (src/min.cpp:190)
  Parameters for fire: 
    dmax delaystep dtgrow dtshrink alpha0 alphashrink tmax tmin    integrator halfstepback 
     0.1        20    1.1      0.5   0.25        0.99   10 0.02 eulerimplicit          yes 
WARNING: Inconsistent image flags (src/domain.cpp:785)
WARNING: Bond/angle/dihedral extent > half of periodic box length (src/domain.cpp:906)
Per MPI rank memory allocation (min/avg/max) = 16.41 | 16.41 | 16.41 Mbytes
Step Temp E_pair E_mol TotEng Press 
   42710            0    49.946451    1508.9097    1558.8562   -161.25474 
   44839 9.7707333e-11    49.458037    1509.3334    1558.7914   -1298.5935 
WARNING: Bond/angle/dihedral extent > half of periodic box length (src/domain.cpp:906)
Loop time of 0.331416 on 1 procs for 2129 steps with 140 atoms

99.9% CPU use with 1 MPI tasks x 1 OpenMP threads

Minimization stats:
  Stopping criterion = energy tolerance
  Energy initial, next-to-last, final = 
          1558.8561575      1558.79140587      1558.79140587
  Force two-norm initial, final = 8.1848 3.33574e-05
  Force max component initial, final = 1.50268 1.30602e-05
  Final line search alpha, max atom move = 0 0
  Iterations, force evaluations = 2129 2129

MPI task timing breakdown:
Section |  min time  |  avg time  |  max time  |%varavg| %total
---------------------------------------------------------------
Pair    | 0.1964     | 0.1964     | 0.1964     |   0.0 | 59.26
Bond    | 0.11478    | 0.11478    | 0.11478    |   0.0 | 34.63
Neigh   | 0          | 0          | 0          |   0.0 |  0.00
Comm    | 0.011516   | 0.011516   | 0.011516   |   0.0 |  3.47
Output  | 0          | 0          | 0          |   0.0 |  0.00
Modify  | 0          | 0          | 0          |   0.0 |  0.00
Other   |            | 0.008718   |            |       |  2.63

Nlocal:    140 ave 140 max 140 min
Histogram: 1 0 0 0 0 0 0 0 0 0
Nghost:    1396 ave 1396 max 1396 min
Histogram: 1 0 0 0 0 0 0 0 0 0
Neighs:    8596 ave 8596 max 8596 min
Histogram: 1 0 0 0 0 0 0 0 0 0

Total # of neighbors = 8596
Ave neighs/atom = 61.4
Ave special neighs/atom = 6.34286
Neighbor list builds = 0
Dangerous builds = 0
variable        AtomMinStep equal ${tempstp}
variable        AtomMinStep equal 42710
variable        temppe     equal $(pe)
variable        temppe     equal 1558.7914058695564563
variable        min_E      equal abs(${prev_E}-${temppe})
variable        min_E      equal abs(1558.9323750767-${temppe})
variable        min_E      equal abs(1558.9323750767-1558.79140586956)
print           "${iter},${CellMinStep},${AtomMinStep},${AtomMinStep},$(pe),${min_E}" append NiPyC2_relax_sc211_meta_functionalized_S-CH3.min.csv screen no
if              "${min_E} < ${min_eval}" then "jump SELF break_min"
variable        prev_E     equal ${temppe}
variable        prev_E     equal 1558.79140586956
next            iter
jump            SELF loop_min
min_style       cg
fix             1 all box/relax aniso 0.0 vmax 0.01
minimize        1.0e-15 1.0e-15 10000 100000
WARNING: Using 'neigh_modify every 1 delay 0 check yes' setting during minimization (src/min.cpp:190)
WARNING: Inconsistent image flags (src/domain.cpp:785)
WARNING: Bond/angle/dihedral extent > half of periodic box length (src/domain.cpp:906)
Per MPI rank memory allocation (min/avg/max) = 17.53 | 17.53 | 17.53 Mbytes
Step Temp E_pair E_mol TotEng Press Volume 
   44839 9.7707333e-11    49.458037    1509.3334    1558.7914   -1298.5935     1538.521 
   44840 9.7707333e-11    49.458037    1509.3334    1558.7914   -1298.5935     1538.521 
WARNING: Bond/angle/dihedral extent > half of periodic box length (src/domain.cpp:906)
Loop time of 0.0109829 on 1 procs for 1 steps with 140 atoms

100.0% CPU use with 1 MPI tasks x 1 OpenMP threads

Minimization stats:
  Stopping criterion = linesearch alpha is zero
  Energy initial, next-to-last, final = 
         1558.79140587      1558.79140587      1558.79140587
  Force two-norm initial, final = 92.4843 92.4843
  Force max component initial, final = 92.2809 92.2809
  Final line search alpha, max atom move = 8.07381e-13 7.45058e-11
  Iterations, force evaluations = 1 55

MPI task timing breakdown:
Section |  min time  |  avg time  |  max time  |%varavg| %total
---------------------------------------------------------------
Pair    | 0.0059378  | 0.0059378  | 0.0059378  |   0.0 | 54.06
Bond    | 0.0034789  | 0.0034789  | 0.0034789  |   0.0 | 31.68
Neigh   | 0          | 0          | 0          |   0.0 |  0.00
Comm    | 0.00033462 | 0.00033462 | 0.00033462 |   0.0 |  3.05
Output  | 0          | 0          | 0          |   0.0 |  0.00
Modify  | 0          | 0          | 0          |   0.0 |  0.00
Other   |            | 0.001232   |            |       | 11.21

Nlocal:    140 ave 140 max 140 min
Histogram: 1 0 0 0 0 0 0 0 0 0
Nghost:    1396 ave 1396 max 1396 min
Histogram: 1 0 0 0 0 0 0 0 0 0
Neighs:    8600 ave 8600 max 8600 min
Histogram: 1 0 0 0 0 0 0 0 0 0

Total # of neighbors = 8600
Ave neighs/atom = 61.4286
Ave special neighs/atom = 6.34286
Neighbor list builds = 0
Dangerous builds = 0
unfix           1
min_style       fire
variable        tempstp    equal $(step)
variable        tempstp    equal 44840
variable        CellMinStep equal ${tempstp}
variable        CellMinStep equal 44840
minimize        1.0e-15 1.0e-15 10000 100000
WARNING: Using 'neigh_modify every 1 delay 0 check yes' setting during minimization (src/min.cpp:190)
  Parameters for fire: 
    dmax delaystep dtgrow dtshrink alpha0 alphashrink tmax tmin    integrator halfstepback 
     0.1        20    1.1      0.5   0.25        0.99   10 0.02 eulerimplicit          yes 
WARNING: Inconsistent image flags (src/domain.cpp:785)
WARNING: Bond/angle/dihedral extent > half of periodic box length (src/domain.cpp:906)
Per MPI rank memory allocation (min/avg/max) = 16.41 | 16.41 | 16.41 Mbytes
Step Temp E_pair E_mol TotEng Press 
   44840            0    49.458037    1509.3334    1558.7914   -1298.5935 
   44896 9.3755077e-11    49.458035    1509.3334    1558.7914    -1298.596 
WARNING: Bond/angle/dihedral extent > half of periodic box length (src/domain.cpp:906)
Loop time of 0.00895617 on 1 procs for 56 steps with 140 atoms

100.0% CPU use with 1 MPI tasks x 1 OpenMP threads

Minimization stats:
  Stopping criterion = energy tolerance
  Energy initial, next-to-last, final = 
         1558.79140587      1558.79140587      1558.79140587
  Force two-norm initial, final = 3.33574e-05 2.94434e-05
  Force max component initial, final = 1.30602e-05 1.14586e-05
  Final line search alpha, max atom move = 0 0
  Iterations, force evaluations = 56 56

MPI task timing breakdown:
Section |  min time  |  avg time  |  max time  |%varavg| %total
---------------------------------------------------------------
Pair    | 0.0052564  | 0.0052564  | 0.0052564  |   0.0 | 58.69
Bond    | 0.0030142  | 0.0030142  | 0.0030142  |   0.0 | 33.65
Neigh   | 0          | 0          | 0          |   0.0 |  0.00
Comm    | 0.00030801 | 0.00030801 | 0.00030801 |   0.0 |  3.44
Output  | 0          | 0          | 0          |   0.0 |  0.00
Modify  | 0          | 0          | 0          |   0.0 |  0.00
Other   |            | 0.0003775  |            |       |  4.22

Nlocal:    140 ave 140 max 140 min
Histogram: 1 0 0 0 0 0 0 0 0 0
Nghost:    1396 ave 1396 max 1396 min
Histogram: 1 0 0 0 0 0 0 0 0 0
Neighs:    8600 ave 8600 max 8600 min
Histogram: 1 0 0 0 0 0 0 0 0 0

Total # of neighbors = 8600
Ave neighs/atom = 61.4286
Ave special neighs/atom = 6.34286
Neighbor list builds = 0
Dangerous builds = 0
variable        AtomMinStep equal ${tempstp}
variable        AtomMinStep equal 44840
variable        temppe     equal $(pe)
variable        temppe     equal 1558.7914058694352661
variable        min_E      equal abs(${prev_E}-${temppe})
variable        min_E      equal abs(1558.79140586956-${temppe})
variable        min_E      equal abs(1558.79140586956-1558.79140586944)
print           "${iter},${CellMinStep},${AtomMinStep},${AtomMinStep},$(pe),${min_E}" append NiPyC2_relax_sc211_meta_functionalized_S-CH3.min.csv screen no
if              "${min_E} < ${min_eval}" then "jump SELF break_min"
jump SELF break_min
undump          NiPyC2_relax_sc211_meta_functionalized_S-CH3_xyzmov

# Dump last snapshot for restart
variable curr_lx equal lx
variable curr_ly equal ly
variable curr_lz equal lz
change_box all x final 0 ${curr_lx} y final 0 ${curr_ly} z final 0 ${curr_lz}
change_box all x final 0 13.4512845927552 y final 0 ${curr_ly} z final 0 ${curr_lz}
change_box all x final 0 13.4512845927552 y final 0 10.392058763611 z final 0 ${curr_lz}
change_box all x final 0 13.4512845927552 y final 0 10.392058763611 z final 0 11.0062167121648
  triclinic box = (0 1.06567 -0.365969) to (13.4513 11.4577 10.6402) with tilt (0 -0.243808 0)
  triclinic box = (0 0 -0.365969) to (13.4513 10.3921 10.6402) with tilt (0 -0.243808 0)
  triclinic box = (0 0 0) to (13.4513 10.3921 11.0062) with tilt (0 -0.243808 0)

reset_timestep 0
dump            NiPyC2_relax_sc211_meta_functionalized_S-CH3_restart all atom 1 NiPyC2_relax_sc211_meta_functionalized_S-CH3_restart.lammpstrj
dump_modify     NiPyC2_relax_sc211_meta_functionalized_S-CH3_restart scale no sort id
run 0
WARNING: No fixes defined, atoms won't move (src/verlet.cpp:52)
WARNING: Inconsistent image flags (src/domain.cpp:785)
WARNING: Bond/angle/dihedral extent > half of periodic box length (src/domain.cpp:906)
Per MPI rank memory allocation (min/avg/max) = 16.41 | 16.41 | 16.41 Mbytes
Step Temp E_pair E_mol TotEng Press 
       0 9.3755077e-11    49.458035    1509.3334    1558.7914    -1298.596 
WARNING: Bond/angle/dihedral extent > half of periodic box length (src/domain.cpp:906)
Loop time of 1.026e-06 on 1 procs for 0 steps with 140 atoms

194.9% CPU use with 1 MPI tasks x 1 OpenMP threads

MPI task timing breakdown:
Section |  min time  |  avg time  |  max time  |%varavg| %total
---------------------------------------------------------------
Pair    | 0          | 0          | 0          |   0.0 |  0.00
Bond    | 0          | 0          | 0          |   0.0 |  0.00
Neigh   | 0          | 0          | 0          |   0.0 |  0.00
Comm    | 0          | 0          | 0          |   0.0 |  0.00
Output  | 0          | 0          | 0          |   0.0 |  0.00
Modify  | 0          | 0          | 0          |   0.0 |  0.00
Other   |            | 1.026e-06  |            |       |100.00

Nlocal:    140 ave 140 max 140 min
Histogram: 1 0 0 0 0 0 0 0 0 0
Nghost:    1378 ave 1378 max 1378 min
Histogram: 1 0 0 0 0 0 0 0 0 0
Neighs:    8600 ave 8600 max 8600 min
Histogram: 1 0 0 0 0 0 0 0 0 0

Total # of neighbors = 8600
Ave neighs/atom = 61.4286
Ave special neighs/atom = 6.34286
Neighbor list builds = 0
Dangerous builds = 0
undump          NiPyC2_relax_sc211_meta_functionalized_S-CH3_restart
Total wall time: 0:00:07
