units           real
atom_style      full
boundary        p p p

pair_style      lj/cut 5.000
bond_style      harmonic
angle_style     hybrid fourier cosine/periodic
dihedral_style  harmonic
improper_style  fourier

pair_modify     tail yes mix arithmetic
special_bonds   lj/coul 0.0 0.0 1.0
dielectric      1.0
box tilt        large
read_data       data.NiPyC2_relax_sc211_ortho_functionalized_S-CH3
  triclinic box = (0 0 0) to (12.5056 12.5234 10.2743) with tilt (0 -0.227594 0)
  1 by 1 by 1 MPI processor grid
  reading atoms ...
  140 atoms
  scanning bonds ...
  6 = max bonds/atom
  scanning angles ...
  15 = max angles/atom
  scanning dihedrals ...
  8 = max dihedrals/atom
  scanning impropers ...
  3 = max impropers/atom
  reading bonds ...
  160 bonds
  reading angles ...
  300 angles
  reading dihedrals ...
  296 dihedrals
  reading impropers ...
  168 impropers
  6 = max # of 1-2 neighbors
  9 = max # of 1-3 neighbors
  12 = max # of special neighbors
  special bonds CPU = 0.000176796 secs
  read_data CPU = 0.00577514 secs

#### Atom Groupings ####
group           fram     id   1:140
140 atoms in group fram
#### END Atom Groupings ####

dump            NiPyC2_relax_sc211_ortho_functionalized_S-CH3_xyzmov all xyz 20000 NiPyC2_relax_sc211_ortho_functionalized_S-CH3_mov.xyz
dump_modify     NiPyC2_relax_sc211_ortho_functionalized_S-CH3_xyzmov element Ni O N C H S C
min_style       cg
print           "MinStep,CellMinStep,AtomMinStep,FinalStep,Energy,EDiff" file NiPyC2_relax_sc211_ortho_functionalized_S-CH3.min.csv screen no
variable        min_eval   equal 1.00e-06
variable        prev_E     equal 50000.00
variable        iter       loop 100000
label           loop_min
min_style       cg
fix             1 all box/relax aniso 0.0 vmax 0.01
minimize        1.0e-15 1.0e-15 10000 100000
WARNING: Using 'neigh_modify every 1 delay 0 check yes' setting during minimization (src/min.cpp:190)
Neighbor list info ...
  update every 1 steps, delay 0 steps, check yes
  max neighbors/atom: 2000, page size: 100000
  master list distance cutoff = 7
  ghost atom cutoff = 7
  binsize = 3.5, bins = 4 4 3
  1 neighbor lists, perpetual/occasional/extra = 1 0 0
  (1) pair lj/cut, perpetual
      attributes: half, newton on
      pair build: half/bin/newton/tri
      stencil: half/bin/3d/newton/tri
      bin: standard
WARNING: Inconsistent image flags (src/domain.cpp:785)
WARNING: Bond/angle/dihedral extent > half of periodic box length (src/domain.cpp:906)
Per MPI rank memory allocation (min/avg/max) = 16.91 | 16.91 | 16.91 Mbytes
Step Temp E_pair E_mol TotEng Press Volume 
       0            0 1.2283451e+10    2559.2846 1.2283454e+10 2.0937638e+12    1609.0819 
     400            0    106.80413    1663.0178    1769.8219     1176.194    1590.6207 
WARNING: Bond/angle/dihedral extent > half of periodic box length (src/domain.cpp:906)
Loop time of 0.12512 on 1 procs for 400 steps with 140 atoms

99.9% CPU use with 1 MPI tasks x 1 OpenMP threads

Minimization stats:
  Stopping criterion = linesearch alpha is zero
  Energy initial, next-to-last, final = 
         12283453566.6      1769.82193103      1769.82193103
  Force two-norm initial, final = 4.73307e+11 78.3491
  Force max component initial, final = 3.10907e+11 36.7095
  Final line search alpha, max atom move = 1.33568e-12 4.90321e-11
  Iterations, force evaluations = 400 662

MPI task timing breakdown:
Section |  min time  |  avg time  |  max time  |%varavg| %total
---------------------------------------------------------------
Pair    | 0.057277   | 0.057277   | 0.057277   |   0.0 | 45.78
Bond    | 0.038811   | 0.038811   | 0.038811   |   0.0 | 31.02
Neigh   | 0.011955   | 0.011955   | 0.011955   |   0.0 |  9.55
Comm    | 0.0039135  | 0.0039135  | 0.0039135  |   0.0 |  3.13
Output  | 0          | 0          | 0          |   0.0 |  0.00
Modify  | 0          | 0          | 0          |   0.0 |  0.00
Other   |            | 0.01316    |            |       | 10.52

Nlocal:    140 ave 140 max 140 min
Histogram: 1 0 0 0 0 0 0 0 0 0
Nghost:    1383 ave 1383 max 1383 min
Histogram: 1 0 0 0 0 0 0 0 0 0
Neighs:    8338 ave 8338 max 8338 min
Histogram: 1 0 0 0 0 0 0 0 0 0

Total # of neighbors = 8338
Ave neighs/atom = 59.5571
Ave special neighs/atom = 6.34286
Neighbor list builds = 23
Dangerous builds = 0
unfix           1
min_style       fire
variable        tempstp    equal $(step)
variable        tempstp    equal 400
variable        CellMinStep equal ${tempstp}
variable        CellMinStep equal 400
minimize        1.0e-15 1.0e-15 10000 100000
WARNING: Using 'neigh_modify every 1 delay 0 check yes' setting during minimization (src/min.cpp:190)
  Parameters for fire: 
    dmax delaystep dtgrow dtshrink alpha0 alphashrink tmax tmin    integrator halfstepback 
     0.1        20    1.1      0.5   0.25        0.99   10 0.02 eulerimplicit          yes 
WARNING: Inconsistent image flags (src/domain.cpp:785)
WARNING: Bond/angle/dihedral extent > half of periodic box length (src/domain.cpp:906)
Per MPI rank memory allocation (min/avg/max) = 15.78 | 15.78 | 15.78 Mbytes
Step Temp E_pair E_mol TotEng Press 
     400            0    106.80413    1663.0178    1769.8219     1176.194 
    6797 1.4763417e-10    99.446399    1646.5694    1746.0158    62.577286 
WARNING: Bond/angle/dihedral extent > half of periodic box length (src/domain.cpp:906)
Loop time of 0.959765 on 1 procs for 6397 steps with 140 atoms

99.9% CPU use with 1 MPI tasks x 1 OpenMP threads

Minimization stats:
  Stopping criterion = energy tolerance
  Energy initial, next-to-last, final = 
         1769.82193103      1746.01582178      1746.01582178
  Force two-norm initial, final = 60.8735 4.05921e-05
  Force max component initial, final = 8.60122 8.54313e-06
  Final line search alpha, max atom move = 0 0
  Iterations, force evaluations = 6397 6397

MPI task timing breakdown:
Section |  min time  |  avg time  |  max time  |%varavg| %total
---------------------------------------------------------------
Pair    | 0.55794    | 0.55794    | 0.55794    |   0.0 | 58.13
Bond    | 0.34114    | 0.34114    | 0.34114    |   0.0 | 35.54
Neigh   | 0.00060897 | 0.00060897 | 0.00060897 |   0.0 |  0.06
Comm    | 0.033903   | 0.033903   | 0.033903   |   0.0 |  3.53
Output  | 0          | 0          | 0          |   0.0 |  0.00
Modify  | 0          | 0          | 0          |   0.0 |  0.00
Other   |            | 0.02618    |            |       |  2.73

Nlocal:    140 ave 140 max 140 min
Histogram: 1 0 0 0 0 0 0 0 0 0
Nghost:    1389 ave 1389 max 1389 min
Histogram: 1 0 0 0 0 0 0 0 0 0
Neighs:    8377 ave 8377 max 8377 min
Histogram: 1 0 0 0 0 0 0 0 0 0

Total # of neighbors = 8377
Ave neighs/atom = 59.8357
Ave special neighs/atom = 6.34286
Neighbor list builds = 1
Dangerous builds = 0
variable        AtomMinStep equal ${tempstp}
variable        AtomMinStep equal 400
variable        temppe     equal $(pe)
variable        temppe     equal 1746.0158217770069768
variable        min_E      equal abs(${prev_E}-${temppe})
variable        min_E      equal abs(50000-${temppe})
variable        min_E      equal abs(50000-1746.01582177701)
print           "${iter},${CellMinStep},${AtomMinStep},${AtomMinStep},$(pe),${min_E}" append NiPyC2_relax_sc211_ortho_functionalized_S-CH3.min.csv screen no
if              "${min_E} < ${min_eval}" then "jump SELF break_min"
variable        prev_E     equal ${temppe}
variable        prev_E     equal 1746.01582177701
next            iter
jump            SELF loop_min
min_style       cg
fix             1 all box/relax aniso 0.0 vmax 0.01
minimize        1.0e-15 1.0e-15 10000 100000
WARNING: Using 'neigh_modify every 1 delay 0 check yes' setting during minimization (src/min.cpp:190)
WARNING: Inconsistent image flags (src/domain.cpp:785)
WARNING: Bond/angle/dihedral extent > half of periodic box length (src/domain.cpp:906)
Per MPI rank memory allocation (min/avg/max) = 16.91 | 16.91 | 16.91 Mbytes
Step Temp E_pair E_mol TotEng Press Volume 
    6797 1.4763417e-10    99.446399    1646.5694    1746.0158    62.577286    1590.6207 
    6800 1.4763417e-10    99.971318    1646.0169    1745.9882    163.12068    1590.2582 
WARNING: Bond/angle/dihedral extent > half of periodic box length (src/domain.cpp:906)
Loop time of 0.0106141 on 1 procs for 3 steps with 140 atoms

100.0% CPU use with 1 MPI tasks x 1 OpenMP threads

Minimization stats:
  Stopping criterion = linesearch alpha is zero
  Energy initial, next-to-last, final = 
         1746.01582178      1745.98820275      1745.98820275
  Force two-norm initial, final = 72.4811 9.87036
  Force max component initial, final = 57.6449 5.31471
  Final line search alpha, max atom move = 1.46825e-10 7.80332e-10
  Iterations, force evaluations = 3 59

MPI task timing breakdown:
Section |  min time  |  avg time  |  max time  |%varavg| %total
---------------------------------------------------------------
Pair    | 0.0056008  | 0.0056008  | 0.0056008  |   0.0 | 52.77
Bond    | 0.0034739  | 0.0034739  | 0.0034739  |   0.0 | 32.73
Neigh   | 0          | 0          | 0          |   0.0 |  0.00
Comm    | 0.00032098 | 0.00032098 | 0.00032098 |   0.0 |  3.02
Output  | 0          | 0          | 0          |   0.0 |  0.00
Modify  | 0          | 0          | 0          |   0.0 |  0.00
Other   |            | 0.001218   |            |       | 11.48

Nlocal:    140 ave 140 max 140 min
Histogram: 1 0 0 0 0 0 0 0 0 0
Nghost:    1381 ave 1381 max 1381 min
Histogram: 1 0 0 0 0 0 0 0 0 0
Neighs:    8363 ave 8363 max 8363 min
Histogram: 1 0 0 0 0 0 0 0 0 0

Total # of neighbors = 8363
Ave neighs/atom = 59.7357
Ave special neighs/atom = 6.34286
Neighbor list builds = 0
Dangerous builds = 0
unfix           1
min_style       fire
variable        tempstp    equal $(step)
variable        tempstp    equal 6800
variable        CellMinStep equal ${tempstp}
variable        CellMinStep equal 6800
minimize        1.0e-15 1.0e-15 10000 100000
WARNING: Using 'neigh_modify every 1 delay 0 check yes' setting during minimization (src/min.cpp:190)
  Parameters for fire: 
    dmax delaystep dtgrow dtshrink alpha0 alphashrink tmax tmin    integrator halfstepback 
     0.1        20    1.1      0.5   0.25        0.99   10 0.02 eulerimplicit          yes 
WARNING: Inconsistent image flags (src/domain.cpp:785)
WARNING: Bond/angle/dihedral extent > half of periodic box length (src/domain.cpp:906)
Per MPI rank memory allocation (min/avg/max) = 15.78 | 15.78 | 15.78 Mbytes
Step Temp E_pair E_mol TotEng Press 
    6800            0    99.971318    1646.0169    1745.9882    163.12068 
   13611 1.8073765e-10    99.734369    1646.1028    1745.8371    448.13716 
WARNING: Bond/angle/dihedral extent > half of periodic box length (src/domain.cpp:906)
Loop time of 1.01739 on 1 procs for 6811 steps with 140 atoms

99.9% CPU use with 1 MPI tasks x 1 OpenMP threads

Minimization stats:
  Stopping criterion = energy tolerance
  Energy initial, next-to-last, final = 
         1745.98820275      1745.83712909      1745.83712909
  Force two-norm initial, final = 6.98698 4.57092e-05
  Force max component initial, final = 0.962799 8.84507e-06
  Final line search alpha, max atom move = 0 0
  Iterations, force evaluations = 6811 6811

MPI task timing breakdown:
Section |  min time  |  avg time  |  max time  |%varavg| %total
---------------------------------------------------------------
Pair    | 0.5905     | 0.5905     | 0.5905     |   0.0 | 58.04
Bond    | 0.36344    | 0.36344    | 0.36344    |   0.0 | 35.72
Neigh   | 0          | 0          | 0          |   0.0 |  0.00
Comm    | 0.035519   | 0.035519   | 0.035519   |   0.0 |  3.49
Output  | 0          | 0          | 0          |   0.0 |  0.00
Modify  | 0          | 0          | 0          |   0.0 |  0.00
Other   |            | 0.02794    |            |       |  2.75

Nlocal:    140 ave 140 max 140 min
Histogram: 1 0 0 0 0 0 0 0 0 0
Nghost:    1381 ave 1381 max 1381 min
Histogram: 1 0 0 0 0 0 0 0 0 0
Neighs:    8367 ave 8367 max 8367 min
Histogram: 1 0 0 0 0 0 0 0 0 0

Total # of neighbors = 8367
Ave neighs/atom = 59.7643
Ave special neighs/atom = 6.34286
Neighbor list builds = 0
Dangerous builds = 0
variable        AtomMinStep equal ${tempstp}
variable        AtomMinStep equal 6800
variable        temppe     equal $(pe)
variable        temppe     equal 1745.837129085298784
variable        min_E      equal abs(${prev_E}-${temppe})
variable        min_E      equal abs(1746.01582177701-${temppe})
variable        min_E      equal abs(1746.01582177701-1745.8371290853)
print           "${iter},${CellMinStep},${AtomMinStep},${AtomMinStep},$(pe),${min_E}" append NiPyC2_relax_sc211_ortho_functionalized_S-CH3.min.csv screen no
if              "${min_E} < ${min_eval}" then "jump SELF break_min"
variable        prev_E     equal ${temppe}
variable        prev_E     equal 1745.8371290853
next            iter
jump            SELF loop_min
min_style       cg
fix             1 all box/relax aniso 0.0 vmax 0.01
minimize        1.0e-15 1.0e-15 10000 100000
WARNING: Using 'neigh_modify every 1 delay 0 check yes' setting during minimization (src/min.cpp:190)
WARNING: Inconsistent image flags (src/domain.cpp:785)
WARNING: Bond/angle/dihedral extent > half of periodic box length (src/domain.cpp:906)
Per MPI rank memory allocation (min/avg/max) = 16.91 | 16.91 | 16.91 Mbytes
Step Temp E_pair E_mol TotEng Press Volume 
   13611 1.8073765e-10    99.734369    1646.1028    1745.8371    448.13716    1590.2582 
   13612 1.8073765e-10    99.734369    1646.1028    1745.8371    448.13716    1590.2582 
WARNING: Bond/angle/dihedral extent > half of periodic box length (src/domain.cpp:906)
Loop time of 0.0102602 on 1 procs for 1 steps with 140 atoms

100.0% CPU use with 1 MPI tasks x 1 OpenMP threads

Minimization stats:
  Stopping criterion = linesearch alpha is zero
  Energy initial, next-to-last, final = 
         1745.83712909      1745.83712909      1745.83712909
  Force two-norm initial, final = 64.4568 64.4568
  Force max component initial, final = 40.0731 40.0731
  Final line search alpha, max atom move = 1.85925e-12 7.45058e-11
  Iterations, force evaluations = 1 55

MPI task timing breakdown:
Section |  min time  |  avg time  |  max time  |%varavg| %total
---------------------------------------------------------------
Pair    | 0.0053567  | 0.0053567  | 0.0053567  |   0.0 | 52.21
Bond    | 0.0033794  | 0.0033794  | 0.0033794  |   0.0 | 32.94
Neigh   | 0          | 0          | 0          |   0.0 |  0.00
Comm    | 0.0003048  | 0.0003048  | 0.0003048  |   0.0 |  2.97
Output  | 0          | 0          | 0          |   0.0 |  0.00
Modify  | 0          | 0          | 0          |   0.0 |  0.00
Other   |            | 0.001219   |            |       | 11.88

Nlocal:    140 ave 140 max 140 min
Histogram: 1 0 0 0 0 0 0 0 0 0
Nghost:    1381 ave 1381 max 1381 min
Histogram: 1 0 0 0 0 0 0 0 0 0
Neighs:    8368 ave 8368 max 8368 min
Histogram: 1 0 0 0 0 0 0 0 0 0

Total # of neighbors = 8368
Ave neighs/atom = 59.7714
Ave special neighs/atom = 6.34286
Neighbor list builds = 0
Dangerous builds = 0
unfix           1
min_style       fire
variable        tempstp    equal $(step)
variable        tempstp    equal 13612
variable        CellMinStep equal ${tempstp}
variable        CellMinStep equal 13612
minimize        1.0e-15 1.0e-15 10000 100000
WARNING: Using 'neigh_modify every 1 delay 0 check yes' setting during minimization (src/min.cpp:190)
  Parameters for fire: 
    dmax delaystep dtgrow dtshrink alpha0 alphashrink tmax tmin    integrator halfstepback 
     0.1        20    1.1      0.5   0.25        0.99   10 0.02 eulerimplicit          yes 
WARNING: Inconsistent image flags (src/domain.cpp:785)
WARNING: Bond/angle/dihedral extent > half of periodic box length (src/domain.cpp:906)
Per MPI rank memory allocation (min/avg/max) = 15.78 | 15.78 | 15.78 Mbytes
Step Temp E_pair E_mol TotEng Press 
   13612            0    99.734369    1646.1028    1745.8371    448.13716 
   13741 1.4543199e-10    99.734409    1646.1027    1745.8371    448.14581 
WARNING: Bond/angle/dihedral extent > half of periodic box length (src/domain.cpp:906)
Loop time of 0.020046 on 1 procs for 129 steps with 140 atoms

100.0% CPU use with 1 MPI tasks x 1 OpenMP threads

Minimization stats:
  Stopping criterion = energy tolerance
  Energy initial, next-to-last, final = 
         1745.83712909      1745.83712908      1745.83712908
  Force two-norm initial, final = 4.57092e-05 3.88403e-05
  Force max component initial, final = 8.84507e-06 7.46537e-06
  Final line search alpha, max atom move = 0 0
  Iterations, force evaluations = 129 129

MPI task timing breakdown:
Section |  min time  |  avg time  |  max time  |%varavg| %total
---------------------------------------------------------------
Pair    | 0.011583   | 0.011583   | 0.011583   |   0.0 | 57.78
Bond    | 0.0070762  | 0.0070762  | 0.0070762  |   0.0 | 35.30
Neigh   | 0          | 0          | 0          |   0.0 |  0.00
Comm    | 0.00068932 | 0.00068932 | 0.00068932 |   0.0 |  3.44
Output  | 0          | 0          | 0          |   0.0 |  0.00
Modify  | 0          | 0          | 0          |   0.0 |  0.00
Other   |            | 0.0006973  |            |       |  3.48

Nlocal:    140 ave 140 max 140 min
Histogram: 1 0 0 0 0 0 0 0 0 0
Nghost:    1381 ave 1381 max 1381 min
Histogram: 1 0 0 0 0 0 0 0 0 0
Neighs:    8368 ave 8368 max 8368 min
Histogram: 1 0 0 0 0 0 0 0 0 0

Total # of neighbors = 8368
Ave neighs/atom = 59.7714
Ave special neighs/atom = 6.34286
Neighbor list builds = 0
Dangerous builds = 0
variable        AtomMinStep equal ${tempstp}
variable        AtomMinStep equal 13612
variable        temppe     equal $(pe)
variable        temppe     equal 1745.8371290848360786
variable        min_E      equal abs(${prev_E}-${temppe})
variable        min_E      equal abs(1745.8371290853-${temppe})
variable        min_E      equal abs(1745.8371290853-1745.83712908484)
print           "${iter},${CellMinStep},${AtomMinStep},${AtomMinStep},$(pe),${min_E}" append NiPyC2_relax_sc211_ortho_functionalized_S-CH3.min.csv screen no
if              "${min_E} < ${min_eval}" then "jump SELF break_min"
jump SELF break_min
undump          NiPyC2_relax_sc211_ortho_functionalized_S-CH3_xyzmov

# Dump last snapshot for restart
variable curr_lx equal lx
variable curr_ly equal ly
variable curr_lz equal lz
change_box all x final 0 ${curr_lx} y final 0 ${curr_ly} z final 0 ${curr_lz}
change_box all x final 0 14.4887789828502 y final 0 ${curr_ly} z final 0 ${curr_lz}
change_box all x final 0 14.4887789828502 y final 0 11.6179313050951 z final 0 ${curr_lz}
change_box all x final 0 14.4887789828502 y final 0 11.6179313050951 z final 0 9.44728576654511
  triclinic box = (0 0.452734 0.413497) to (14.4888 12.0707 9.86078) with tilt (0 -0.209275 0)
  triclinic box = (0 0 0.413497) to (14.4888 11.6179 9.86078) with tilt (0 -0.209275 0)
  triclinic box = (0 0 0) to (14.4888 11.6179 9.44729) with tilt (0 -0.209275 0)

reset_timestep 0
dump            NiPyC2_relax_sc211_ortho_functionalized_S-CH3_restart all atom 1 NiPyC2_relax_sc211_ortho_functionalized_S-CH3_restart.lammpstrj
dump_modify     NiPyC2_relax_sc211_ortho_functionalized_S-CH3_restart scale no sort id
run 0
WARNING: No fixes defined, atoms won't move (src/verlet.cpp:52)
WARNING: Inconsistent image flags (src/domain.cpp:785)
WARNING: Bond/angle/dihedral extent > half of periodic box length (src/domain.cpp:906)
Per MPI rank memory allocation (min/avg/max) = 15.78 | 15.78 | 15.78 Mbytes
Step Temp E_pair E_mol TotEng Press 
       0 1.4543199e-10    99.734409    1646.1027    1745.8371    448.14581 
WARNING: Bond/angle/dihedral extent > half of periodic box length (src/domain.cpp:906)
Loop time of 7.59988e-07 on 1 procs for 0 steps with 140 atoms

131.6% CPU use with 1 MPI tasks x 1 OpenMP threads

MPI task timing breakdown:
Section |  min time  |  avg time  |  max time  |%varavg| %total
---------------------------------------------------------------
Pair    | 0          | 0          | 0          |   0.0 |  0.00
Bond    | 0          | 0          | 0          |   0.0 |  0.00
Neigh   | 0          | 0          | 0          |   0.0 |  0.00
Comm    | 0          | 0          | 0          |   0.0 |  0.00
Output  | 0          | 0          | 0          |   0.0 |  0.00
Modify  | 0          | 0          | 0          |   0.0 |  0.00
Other   |            | 7.6e-07    |            |       |100.00

Nlocal:    140 ave 140 max 140 min
Histogram: 1 0 0 0 0 0 0 0 0 0
Nghost:    1398 ave 1398 max 1398 min
Histogram: 1 0 0 0 0 0 0 0 0 0
Neighs:    8368 ave 8368 max 8368 min
Histogram: 1 0 0 0 0 0 0 0 0 0

Total # of neighbors = 8368
Ave neighs/atom = 59.7714
Ave special neighs/atom = 6.34286
Neighbor list builds = 0
Dangerous builds = 0
undump          NiPyC2_relax_sc211_ortho_functionalized_S-CH3_restart
Total wall time: 0:00:02
