140
Atoms. Timestep: 0
Ni 2.89857 9.41116 8.59265
Ni 6.17525 3.10579 3.48481
O 1.44827 4.35425 3.93374
O 4.4416 8.15245 9.05464
O 4.63665 1.84729 3.87523
O 1.36499 10.6744 9.00295
O 5.80609 4.46033 4.96242
O 2.54244 8.0327 10.0675
O 0.25117 1.69264 4.94273
O 3.23722 10.8047 10.0626
N 3.69677 10.6606 7.2416
N 0.71256 1.8642 2.11704
N 2.17217 8.14409 7.25198
N 5.44023 4.39481 2.13747
C 3.48546 12.1483 5.36301
C 0.47488 0.38955 0.2292
C 4.76073 0.1474 5.61481
C 1.74333 12.3699 0.47412
C 5.50345 12.1502 6.68209
C 2.49852 0.35508 1.54004
H 0.24768 12.5084 6.91993
C 2.48363 6.6337 5.40822
C 5.72803 5.90364 0.28669
H -0.10828 6.26667 9.7662
C 2.92756 7.68099 6.23068
C 6.1883 4.86756 1.11596
H 3.89994 8.14655 6.0889
H 0.91589 4.41889 0.97634
C 2.98256 11.1359 6.19748
C -0.01036 1.40553 1.07106
H 1.99392 10.709 6.04703
H 5.26093 1.85011 0.92351
C 4.93641 11.1381 7.47507
C 1.94823 1.3719 2.3406
H 5.48559 10.7097 8.30944
H 2.50886 1.79214 3.17267
C 0.94573 7.62654 7.47302
C 4.21083 4.90458 2.35686
H 0.36328 8.05184 8.28732
H 3.63605 4.47744 3.17528
C 0.43859 6.57577 6.69176
C 3.68763 5.945 1.56944
C 1.22745 6.06471 5.65205
C 4.46338 6.45777 0.52027
C 5.3126 1.24381 4.79419
C 2.0502 11.2675 9.92158
C 0.73548 4.94016 4.83586
C 3.73174 7.56629 9.95688
Ni 9.15137 9.41116 8.59265
Ni 12.4281 3.10579 3.48481
O 7.70109 4.35425 3.93374
O 10.6944 8.15245 9.05464
O 10.8895 1.84729 3.87523
O 7.61779 10.6744 9.00295
O 12.0589 4.46033 4.96242
O 8.79524 8.0327 10.0675
O 6.50397 1.69264 4.94273
O 9.49002 10.8047 10.0626
N 9.94957 10.6606 7.2416
N 6.96536 1.8642 2.11704
N 8.42499 8.14409 7.25198
N 11.693 4.39481 2.13747
C 9.73826 12.1483 5.36301
C 6.72768 0.38955 0.2292
H 12.1225 0.03371 9.69377
C 11.0135 0.1474 5.61481
C 7.99613 12.3699 0.47412
C 11.7562 12.1502 6.68209
C 8.75132 0.35508 1.54004
H 6.50047 12.5084 6.91993
H 9.74435 12.5067 1.77336
C 8.73644 6.6337 5.40822
C 11.9808 5.90364 0.28669
H 9.38574 6.27291 4.61605
H 6.14452 6.26667 9.7662
C 9.18036 7.68099 6.23068
C 12.4411 4.86756 1.11596
H 10.1527 8.14655 6.0889
H 7.16869 4.41889 0.97634
C 9.23536 11.1359 6.19748
C 6.24244 1.40553 1.07106
H 8.24672 10.709 6.04703
H 11.5137 1.85011 0.92351
C 11.1892 11.1381 7.47507
C 8.20102 1.3719 2.3406
H 11.7384 10.7097 8.30944
H 8.76167 1.79214 3.17267
C 7.19853 7.62654 7.47302
C 10.4636 4.90458 2.35686
H 6.61608 8.05184 8.28732
H 9.88885 4.47744 3.17528
C 6.69139 6.57577 6.69176
C 9.94043 5.945 1.56944
H 11.9605 6.17693 6.91975
C 7.48025 6.06471 5.65205
C 10.7162 6.45777 0.52027
C 11.5654 1.24381 4.79419
C 8.303 11.2675 9.92158
C 6.98827 4.94016 4.83586
C 9.98454 7.56629 9.95688
S 2.42604 0.17453 4.008
C 1.42708 0.6548 2.73295
H 1.65398 1.67958 2.37439
H 1.36589 12.5109 1.84806
H 0.46452 0.69459 3.28441
S 4.15824 12.3088 1.95771
C 5.72292 11.809 2.35302
H 5.947 10.7828 1.99668
H 6.56447 12.4676 2.05298
H 5.60802 11.7666 3.45628
S 3.58629 6.1033 4.08176
C 4.62517 5.64103 2.83221
H 4.44706 4.60095 2.49056
H 4.67302 6.29317 1.9353
H 5.57937 5.65225 3.39929
S 2.03793 6.54381 1.98532
C 0.50157 7.10434 2.4093
H -0.02222 7.59683 1.56472
H 0.42266 7.76791 3.29557
H 0.0119 6.12387 2.5857
S 8.67884 0.17453 4.008
C 7.67988 0.6548 2.73295
H 7.90678 1.67958 2.37439
H 7.61869 12.5109 1.84806
H 6.71732 0.69459 3.28441
S 5.4248 12.381 9.15416
C 4.39112 11.8832 7.914
H 4.93338 11.415 7.06724
H 3.5429 11.221 8.18615
H 4.0412 0.3591 7.58069
S 5.04613 5.96163 7.10094
C 3.51331 5.38722 7.5191
H 3.00059 4.88267 6.67484
H 3.43589 4.72941 8.40979
H 3.01166 6.36347 7.68495
S 8.29073 6.54381 1.98532
C 6.75437 7.10434 2.4093
H 6.23058 7.59683 1.56472
H 6.67546 7.76791 3.29557
H 6.2647 6.12387 2.5857
140
Atoms. Timestep: 460
Ni 2.356 9.02175 8.75789
Ni 6.04664 3.68553 3.33729
O 0.440899 4.63 3.51892
O 3.76819 7.99062 8.96934
O 4.63313 2.61379 3.37462
O 0.913915 10.068 8.83569
O 5.50108 4.7649 4.64967
O 1.85362 7.93963 10.0602
O -0.481338 2.46603 4.68067
O 2.82266 10.2048 9.94032
N 3.19031 10.1044 7.37252
N -0.175821 2.38112 2.06561
N 1.60746 7.81722 7.47891
N 5.27791 4.88405 1.99325
C 3.07608 11.3928 5.35834
C -0.286794 1.06161 0.0338636
C 4.50268 11.5405 5.31735
C 1.1177 11.4883 -0.0139344
C 5.22758 10.7268 6.17906
C 1.84011 1.50846 1.03572
H -0.842576 1.27327 7.05344
C 1.68268 6.78339 5.3196
C 5.39633 6.32643 0.0535121
H 12.303 5.58852 9.6726
C 2.23146 7.59963 6.30436
C 5.98489 5.38452 0.934218
H 3.10912 8.1459 6.0722
H -0.48185 4.05746 0.37431
C 2.48736 10.9464 6.56171
C 13.0931 1.71769 1.1229
H 1.41805 11.0268 6.67798
H 5.43829 2.87437 0.505738
C 4.55146 9.95849 7.14753
C 1.18865 2.31191 2.00011
H 5.14314 9.32262 7.77356
H 1.77772 2.7927 2.76607
C 0.360577 7.28184 7.69589
C 3.9075 4.96776 1.93287
H -0.189352 7.54552 8.5874
H 3.31256 4.44699 2.66323
C -0.250781 6.45443 6.72779
C 3.2515 5.75468 0.949133
C 0.409947 6.17958 5.5197
C 4.00055 6.51336 0.0486142
C 5.24895 1.92747 4.34369
C 1.58172 10.739 9.79196
C -0.251567 5.29814 4.46526
C 3.08762 7.38185 9.93481
Ni 9.51514 8.96404 8.89592
Ni 13.0416 3.56793 3.38152
O 7.44147 4.72736 3.5854
O 10.9192 7.91275 9.10016
O 11.6158 2.52951 3.5319
O 8.10571 10.0338 8.95433
O 12.5293 4.74636 4.62422
O 8.9695 7.88305 10.182
O 6.47756 2.47679 4.58664
O 9.9836 10.1758 10.1359
N 10.3255 10.0407 7.53469
N 6.92604 2.6307 1.96039
N 8.76106 7.75486 7.58773
N 12.2852 4.67344 1.9957
C 10.4298 10.8843 5.28141
C 6.90751 1.44371 -0.137037
H 12.8768 11.2384 10.1719
C 11.6314 1.0239 5.55529
C 8.28315 1.12432 -0.0329561
C 12.223 11.3573 6.80571
C 8.9867 1.73633 1.01157
H 6.30666 10.673 6.10667
H 10.0267 1.54263 1.13363
C 8.86176 6.31278 5.64174
C 12.1303 5.53322 -0.26189
H 9.44406 5.89206 4.8411
H 5.76487 6.78979 10.2251
C 9.49345 7.16399 6.58991
C 12.7076 4.66624 0.68526
H 10.5507 7.37643 6.49328
H 6.86982 4.87401 0.60826
C 9.7131 10.283 6.34582
C 6.30497 2.31445 0.800124
H 8.70286 9.93958 6.19877
H 12.0411 1.87887 1.082
C 11.6068 10.4842 7.72623
C 8.29666 2.492 2.00208
H 12.1648 10.1225 8.56864
H 8.85485 2.88261 2.8425
C 7.44154 7.4272 7.73041
C 11.1225 5.31103 2.29728
H 6.87499 7.88088 8.52544
H 10.6067 5.04724 3.20535
C 6.7727 6.61123 6.79499
C 10.4534 6.08709 1.34862
H 12.7622 6.06846 6.90783
C 7.4706 6.06238 5.70846
C 11.0225 6.30912 0.0904754
C 12.2908 1.9272 4.52943
C 8.75506 10.7264 9.91412
C 6.75653 5.3048 4.57502
C 10.19 7.30266 10.0501
S 2.26424 10.8387 3.92491
C 0.72119 9.9574 4.08665
H -0.0894656 10.6603 4.23788
H 0.502176 9.40762 3.15304
H 0.710364 9.27437 4.94637
S 3.56114 1.27096 1.15449
C 4.21906 10.2016 1.52883
H 3.39439 9.4583 1.52415
H 4.97658 9.91143 0.769944
H 4.73183 10.2357 2.51186
S 2.41678 6.8795 3.7526
C 4.04164 7.6298 3.66636
H 4.77952 7.01819 4.18525
H 4.38625 7.68207 2.61992
H 4.04349 8.64003 4.11125
S 1.5116 5.68785 0.80349
C 0.599129 7.1723 1.24865
H -0.0649492 7.4802 0.415658
H 1.29446 8.01198 1.44757
H -0.0229571 6.98743 2.14478
S 10.0081 10.4502 3.64323
C 8.24087 10.4964 3.6109
H 7.97489 11.4293 4.10107
H 7.83352 10.487 2.58657
H 7.81015 9.65852 4.18878
S 5.70889 11.4723 9.45403
C 4.86726 2.33775 8.81956
H 4.45238 2.13492 7.82164
H 4.02417 2.63693 9.47376
H 5.62219 3.14569 8.78029
S 5.04847 6.57357 6.83176
C 4.273 5.17459 7.56502
H 4.49826 4.28014 6.95862
H 4.61974 5.08755 8.60532
H 3.17594 5.31679 7.58734
S 8.76575 6.26288 1.5444
C 8.2905 7.66506 2.44872
H 8.19296 8.48974 1.72527
H 9.06128 7.84931 3.21733
H 7.31178 7.4781 2.92893
140
Atoms. Timestep: 10474
Ni 2.23372 8.90986 8.71641
Ni 5.90462 3.73775 3.32952
O 0.252209 4.48172 3.5293
O 3.68535 7.92879 8.89655
O 4.49129 2.67006 3.39305
O 0.764994 9.89522 8.80678
O 5.34876 4.81598 4.60591
O 1.76282 7.79455 9.97858
O -0.633813 2.27197 4.65892
O 2.66548 10.0609 9.92936
N 3.0185 10.0508 7.38973
N -0.355287 2.26119 2.02974
N 1.51036 7.7182 7.41311
N 5.17075 4.93037 2.00138
C 2.96903 11.2925 5.33422
C -0.42119 11.0442 0.251545
C 4.36498 1.13374 5.41058
C 0.939245 11.2657 -0.0341865
C 5.05724 11 6.47385
C 1.63192 1.72554 0.767715
H 13.0176 11.3519 6.94705
C 1.52449 6.66573 5.25138
C 5.31489 6.58829 0.24224
H 11.5378 5.07905 9.58907
C 2.13421 7.46564 6.23915
C 5.92923 5.78146 1.23458
H 3.08078 7.93426 6.03924
H 13.0088 3.7679 0.315144
C 2.3037 10.6503 6.40554
C 12.8182 1.33719 1.29426
H 1.23551 10.4987 6.35968
H 5.52818 3.28541 0.313625
C 4.3732 10.268 7.4628
C 0.951467 2.49306 1.71147
H 4.93289 9.88513 8.3049
H 1.52932 3.14006 2.32189
C 0.262569 7.19422 7.64619
C 3.82449 4.86396 1.79035
H -0.26318 7.44886 8.55719
H 3.21658 4.3319 2.48767
C -0.359735 6.3415 6.71722
C 3.19798 5.57445 0.757412
C 0.260898 6.05618 5.4995
C 3.93113 6.4764 -0.00607143
C 5.11293 1.99951 4.37817
C 1.41211 10.5477 9.78251
C -0.416804 5.13185 4.49172
C 3.0135 7.29181 9.85663
Ni 9.21544 8.85045 9.00498
Ni 12.7292 3.40299 3.38862
O 7.30807 4.77768 3.56335
O 10.5947 7.77123 9.16352
O 11.3203 2.35523 3.54441
O 7.8289 9.92694 9.10389
O 12.2403 4.55967 4.67647
O 8.64231 7.72628 10.2446
O 6.34898 2.53458 4.58701
O 9.72482 9.98249 10.2786
N 10.0226 9.9673 7.69348
N 6.73929 2.66525 1.95881
N 8.46456 7.72858 7.64645
N 11.9457 4.52725 2.01987
C 9.96836 10.9361 5.50672
C 7.01189 1.88193 -0.320693
H 12.9088 10.275 -0.27294
C 11.3098 11.3778 5.62838
C 8.13703 1.14276 0.0606215
C 11.9916 11.0474 6.80581
C 8.69789 1.42512 1.29423
H 6.1268 11.1115 6.5386
H 9.68517 1.08037 1.51798
C 8.59947 6.48358 5.58304
C 11.5494 5.18812 -0.280494
H 9.16537 6.21949 4.7112
H 5.9092 7.30249 -0.310315
C 9.20414 7.25964 6.59432
C 12.2213 4.39782 0.670912
H 10.2493 7.52115 6.50844
H 6.99984 5.82213 1.36284
C 9.30755 10.4275 6.63494
C 6.32194 2.64678 0.647271
H 8.25191 10.2133 6.58094
H 11.7838 1.17013 1.48873
C 11.3525 10.2714 7.79256
C 7.99497 2.20722 2.23006
H 11.9232 9.89352 8.62231
H 8.47637 2.49847 3.15308
C 7.14717 7.38357 7.75392
C 10.913 5.34055 2.38397
H 6.56645 7.7693 8.57882
H 10.5089 5.27955 3.37224
C 6.53077 6.54549 6.80688
C 10.4486 6.33094 1.51749
H 12.5439 5.92498 6.94523
C 7.24381 6.12735 5.66918
C 10.6734 6.18736 0.145108
C 12.0025 1.72704 4.52264
C 8.52018 10.5673 10.064
C 6.58743 5.36901 4.53232
C 9.84965 7.13728 10.0869
S 2.15578 11.3491 3.82396
C 1.0436 9.99772 3.53379
H 1.27699 9.53218 2.55564
H 1.12176 9.24968 4.34028
H 0.00855763 10.3777 3.52316
S 3.37598 1.82319 0.696053
C 4.18683 10.7739 1.29064
H 3.43705 9.98533 1.50345
H 4.88861 10.4076 0.51231
H 4.76668 10.9669 2.20804
S 2.24289 6.6396 3.67096
C 3.66043 7.70216 3.48603
H 4.53636 7.24495 3.98438
H 3.87428 7.84168 2.41063
H 3.46932 8.69444 3.9312
S 1.48907 5.31333 0.436604
C 0.478465 6.66783 1.00992
H -0.208405 6.96923 0.193269
H 1.09879 7.54295 1.28855
H -0.102896 6.36907 1.8979
S 9.36735 10.4551 3.95731
C 7.7387 9.75109 3.9446
H 7.02379 10.4759 4.36596
H 7.45304 9.51725 2.89716
H 7.72695 8.82683 4.54816
S 6.45769 2.16355 8.90939
C 7.71873 3.22126 8.23341
H 7.48012 3.44006 7.17007
H 7.75509 4.16963 8.81186
H 8.70416 2.70999 8.28949
S 4.84701 6.14552 7.00955
C 4.5701 4.70843 7.99098
H 4.75943 3.81336 7.36432
H 5.22786 4.73527 8.88565
H 3.51256 4.70426 8.32455
S 10.1741 7.91354 2.17899
C 11.7931 8.58952 2.47011
H 12.3566 8.60255 1.51429
H 12.3297 7.97569 3.22661
H 11.7086 9.62149 2.84382
140
Atoms. Timestep: 19437
Ni 2.17021 9.02749 8.68212
Ni 5.89456 3.74515 3.23728
O 0.250917 4.44909 3.58551
O 3.63372 8.04362 8.83513
O 4.48836 2.65628 3.28524
O 0.70405 10.0164 8.79801
O 5.31068 4.82605 4.50576
O 1.71754 7.89709 9.94753
O -0.651764 2.26505 4.76011
O 2.61538 10.1666 9.89421
N 2.93469 10.1855 7.35373
N -0.353287 2.21369 2.14526
N 1.42782 7.84816 7.38174
N 5.16625 4.92931 1.87786
C 2.98797 11.1356 5.14298
C -0.467862 11.2085 0.20156
C 4.32338 1.18175 5.33925
C 0.915228 11.3575 -0.0244387
C 4.94427 11.281 6.54071
C 1.65438 1.67578 0.886672
H -0.829127 11.1808 6.95308
C 1.56093 6.59978 5.334
C 5.28385 6.70459 0.222401
H 11.6492 5.03562 9.64983
C 2.1245 7.46875 6.29032
C 5.90931 5.85262 1.17842
H 3.11058 7.86651 6.14585
H 13.1392 3.80917 0.434876
C 2.27048 10.5894 6.23971
C 12.7877 1.42969 1.29332
H 1.23264 10.3185 6.12105
H 5.66222 3.33646 0.18842
C 4.24462 10.5665 7.53096
C 1.0045 2.30528 1.96648
H 4.76639 10.2856 8.43544
H 1.60347 2.78979 2.71561
C 0.149746 7.38033 7.5749
C 3.82787 4.8159 1.60854
H -0.399741 7.6738 8.45835
H 3.21744 4.19294 2.22243
C -0.457805 6.50426 6.65448
C 3.19104 5.59589 0.638716
C 0.237608 6.08805 5.51451
C 3.90622 6.56091 -0.0664682
C 5.09839 1.99498 4.28171
C 1.36866 10.6674 9.76363
C -0.425625 5.12082 4.53069
C 2.97448 7.4015 9.80801
Ni 9.19403 8.74737 9.02364
Ni 12.7239 3.37718 3.46501
O 7.28501 4.79848 3.49178
O 10.559 7.64302 9.15915
O 11.3084 2.32846 3.62597
O 7.81977 9.84606 9.14339
O 12.2249 4.55783 4.72151
O 8.60999 7.60581 10.2429
O 6.32364 2.55314 4.51035
O 9.72433 9.84787 10.315
N 10.0195 9.87708 7.73565
N 6.77578 2.67001 1.89004
N 8.42296 7.66249 7.64225
N 11.945 4.48011 2.07729
C 9.93553 10.9264 5.5961
C 6.96839 1.97007 10.5302
H 12.5727 10.5866 10.4797
C 11.297 11.3286 5.69692
C 8.20845 1.10337 0.0591471
C 12.0044 10.9215 6.83512
C 8.68422 1.29276 1.34272
H 5.99044 1.06803 6.68282
H 9.61996 11.2855 1.6291
C 8.55503 6.48574 5.5409
C 11.6114 5.13358 -0.233209
H 9.11644 6.27965 4.65095
H 5.86034 7.48277 -0.255646
C 9.15962 7.22791 6.57587
C 12.298 4.39003 0.747471
H 10.2032 7.49873 6.49474
H 6.97399 5.93369 1.34397
C 9.29045 10.4407 6.74006
C 6.4547 2.71073 0.548706
H 8.22189 10.2879 6.72053
H 11.7189 1.40289 1.37875
C 11.3671 10.1172 7.80182
C 7.98159 2.1244 2.23643
H 11.9527 9.661 8.57969
H 8.43107 2.3855 3.18256
C 7.10582 7.29697 7.75033
C 10.8606 5.24437 2.40349
H 6.5251 7.65404 8.58535
H 10.4107 5.14644 3.3714
C 6.49314 6.46376 6.78924
C 10.3794 6.2153 1.51769
H 12.4131 6.14706 6.84249
C 7.20186 6.10596 5.62316
C 10.6475 6.07069 0.152747
C 11.9874 1.71005 4.6111
C 8.53312 10.4611 10.1043
C 6.54952 5.38377 4.45508
C 9.80944 6.9987 10.072
S 2.47402 10.6572 3.55746
C 0.918471 9.79418 3.47412
H 0.652473 9.62703 2.41353
H 0.993756 8.81961 3.9798
H 0.122766 10.388 3.95371
S 3.40367 1.8478 0.693195
C 4.40311 10.8284 1.06189
H 3.76646 9.93727 1.21954
H 5.07729 10.6163 0.20783
H 5.02303 10.9814 1.96242
S 2.5139 6.21675 3.9312
C 3.64126 7.50603 3.4127
H 4.65534 7.09557 3.2846
H 3.29928 7.93806 2.45475
H 3.73303 8.30689 4.15948
S 1.46689 5.39355 0.391548
C 0.548314 6.73251 1.13047
H -0.174538 7.12585 0.388459
H 1.23291 7.54656 1.42981
H 0.00300667 6.39014 2.02437
S 9.32506 10.3528 4.07881
C 7.63611 9.78522 4.08571
H 7.01223 10.4755 4.67516
H 7.25243 9.74486 3.04596
H 7.57658 8.77645 4.52782
S 6.97454 2.46358 8.85296
C 8.21773 3.70911 8.60024
H 8.2935 3.93634 7.51751
H 7.93834 4.62985 9.15248
H 9.19783 3.33717 8.96407
S 4.82189 5.9838 7.02356
C 4.56531 4.61819 8.11734
H 4.74504 3.67436 7.56664
H 5.23936 4.71637 8.98965
H 3.51487 4.62982 8.47298
S 10.0389 7.80154 2.15445
C 11.6109 8.63361 2.23175
H 12.0752 8.6343 1.22618
H 12.2697 8.11158 2.95549
H 11.4876 9.68141 2.55155
140
Atoms. Timestep: 19440
Ni 2.18255 9.0199 8.68327
Ni 5.89543 3.75207 3.23666
O 0.269894 4.45407 3.58498
O 3.64149 8.03872 8.83631
O 4.4936 2.66616 3.28462
O 0.720946 10.0061 8.79917
O 5.31317 4.82998 4.50556
O 1.7311 7.89262 9.94912
O -0.629967 2.27604 4.76
O 2.62633 10.1558 9.89576
N 2.94468 10.1747 7.35447
N -0.332377 2.22479 2.14431
N 1.44264 7.84381 7.38249
N 5.16956 4.93298 1.87683
C 2.99796 11.1222 5.14298
C -0.446455 11.1949 0.199939
C 4.32908 1.1957 5.33931
C 0.932232 11.3435 -0.0261327
C 4.94798 11.2673 6.54117
C 1.66902 1.68837 0.885274
H -0.807018 11.1673 6.95368
C 1.57548 6.59885 5.33406
C 5.28692 6.70339 0.220789
H 11.6311 5.03898 9.6513
C 2.13725 7.46546 6.29067
C 5.91038 5.85377 1.17713
H 3.12016 7.86213 6.14618
H 13.1171 3.81587 0.43333
C 2.2826 10.5775 6.24005
C 12.7666 1.44292 1.29207
H 1.24812 10.3074 6.12136
H 5.66404 3.34452 0.186793
C 4.25048 10.5547 7.53175
C 1.02115 2.31616 1.96545
H 4.77048 10.2746 8.43652
H 1.61812 2.79932 2.71482
C 0.168577 7.37725 7.57571
C 3.83541 4.81985 1.60738
H -0.379196 7.66992 8.45945
H 3.22691 4.19861 2.22148
C -0.436975 6.50357 6.65499
C 3.2007 5.5977 0.637235
C 0.256383 6.08853 5.51463
C 3.91372 6.56009 -0.0681781
C 5.10171 2.00664 4.28145
C 1.38346 10.6553 9.76515
C -0.404667 5.12399 4.53051
C 2.98418 7.39832 9.80954
Ni 9.18391 8.74055 9.0249
Ni 12.7029 3.38509 3.46446
O 7.28154 4.80251 3.49121
O 10.5446 7.63921 9.16044
O 11.2919 2.33925 3.62545
O 7.8139 9.83624 9.14467
O 12.2054 4.56249 4.7214
O 8.6015 7.60214 10.2446
O 6.32316 2.56333 4.51016
O 9.71254 9.83801 10.3167
N 10.0068 9.86715 7.73651
N 6.77391 2.67988 1.88899
N 8.41541 7.65865 7.64309
N 11.9266 4.48499 2.0763
C 9.92329 10.9136 5.59624
C 6.96525 1.98185 10.532
H 12.5517 10.5748 10.4815
C 11.2804 11.3147 5.69709
C 8.20216 1.11752 0.0574688
C 11.9855 10.9087 6.83568
C 8.67637 1.30636 1.34149
H 5.99078 1.08229 6.68333
H 9.60909 11.2717 1.62796
C 8.54724 6.48512 5.54102
C 11.5943 5.13667 -0.234962
H 9.10693 6.27961 4.65079
H 5.86162 7.47944 -0.257414
C 9.14988 7.22527 6.57632
C 12.2786 4.39513 0.746017
H 10.1901 7.49534 6.49518
H 6.97162 5.9346 1.34273
C 9.2801 10.4292 6.74056
C 6.45394 2.72052 0.547183
H 8.21499 10.2768 6.72104
H 11.7013 1.41622 1.37752
C 11.3502 10.1067 7.8027
C 7.97591 2.13573 2.23548
H 11.9339 9.65167 8.58083
H 8.42386 2.39614 3.18193
C 7.10241 7.29412 7.75119
C 10.8456 5.24719 2.4026
H 6.52351 7.65021 8.58649
H 10.3971 5.14951 3.37083
C 6.49177 6.46319 6.78978
C 10.3661 6.21545 1.51651
H 12.3928 6.14736 6.84306
C 7.19838 6.10638 5.62331
C 10.6334 6.07122 0.151103
C 11.9686 1.7225 4.61095
C 8.52501 10.4496 10.1059
C 6.5482 5.38622 4.45488
C 9.79727 6.99663 10.0737
S 2.48583 10.6452 3.55695
C 0.935186 9.78445 3.47356
H 0.670146 9.61779 2.41263
H 1.01022 8.81257 3.97943
H 0.141988 10.3767 3.95334
S 3.41274 1.85996 0.691731
C 4.40893 10.8158 1.06057
H 3.77426 9.92716 1.21826
H 5.08103 10.6044 0.206205
H 5.0268 10.9684 1.96139
S 2.52551 6.21685 3.9308
C 3.64931 7.50265 3.41213
H 4.66021 7.09327 3.28399
H 3.30849 7.93347 2.45386
H 3.74074 8.30129 4.15917
S 1.48207 5.39589 0.389975
C 0.566409 6.73122 1.12917
H -0.154084 7.12349 0.386893
H 1.24883 7.54306 1.42861
H 0.0227773 6.38978 2.02336
S 9.31495 10.3416 4.07847
C 7.63131 9.77553 4.08535
H 7.0094 10.4639 4.67502
H 7.24896 9.7353 3.04527
H 7.57197 8.76953 4.52763
S 6.97148 2.47397 8.85417
C 8.21077 3.71614 8.60134
H 8.28637 3.94273 7.51828
H 7.93221 4.63435 9.1538
H 9.18774 3.34519 8.96533
S 4.82582 5.98455 7.02418
C 4.57006 4.6227 8.11831
H 4.74924 3.68145 7.56742
H 5.24189 4.72062 8.99092
H 3.52288 4.6343 8.47408
S 10.0266 7.79732 2.15348
C 11.5936 8.62712 2.23079
H 12.0565 8.62779 1.22489
H 12.2502 8.10649 2.95479
H 11.4707 9.67204 2.55071
140
Atoms. Timestep: 20000
Ni 2.18216 9.02863 8.67867
Ni 5.89998 3.75667 3.2318
O 0.267742 4.45575 3.5836
O 3.646 8.04564 8.83019
O 4.49602 2.66666 3.27649
O 0.716694 10.0167 8.79542
O 5.31219 4.83271 4.4997
O 1.73039 7.90027 9.94407
O -0.628406 2.27522 4.76414
O 2.62926 10.1671 9.8883
N 2.94329 10.185 7.35041
N -0.332047 2.21673 2.15165
N 1.43977 7.84943 7.38046
N 5.17345 4.94096 1.87444
C 2.99759 11.1213 5.13523
C -0.449635 11.1965 0.199776
C 4.33101 1.19987 5.3321
C 0.931906 11.3502 -0.0285035
C 4.94945 11.283 6.5379
C 1.67298 1.68942 0.887037
H -0.800652 11.1688 6.9572
C 1.57531 6.60184 5.33375
C 5.29354 6.71539 0.219552
H 11.6381 5.03238 9.65442
C 2.13724 7.47062 6.28977
C 5.91757 5.86451 1.17637
H 3.12382 7.86756 6.14713
H 13.1239 3.81004 0.439838
C 2.2796 10.5816 6.23363
C 12.764 1.43616 1.29747
H 1.24319 10.3063 6.11434
H 5.67287 3.35742 0.182406
C 4.251 10.5713 7.52926
C 1.02499 2.31125 1.9716
H 4.77202 10.2956 8.43576
H 1.62433 2.79219 2.72291
C 0.162809 7.37963 7.57444
C 3.83633 4.82584 1.60252
H -0.385585 7.66971 8.45958
H 3.22497 4.20377 2.21611
C -0.444158 6.50506 6.65297
C 3.20205 5.60259 0.630359
C 0.251722 6.09156 5.51243
C 3.91765 6.56763 -0.0734432
C 5.10627 2.00559 4.2726
C 1.38298 10.6678 9.75965
C -0.410844 5.12836 4.5266
C 2.98686 7.40509 9.80407
Ni 9.18185 8.73548 9.02822
Ni 12.6997 3.38101 3.4665
O 7.28799 4.81036 3.48886
O 10.5442 7.62929 9.16156
O 11.2874 2.33059 3.62933
O 7.81013 9.83539 9.14916
O 12.1967 4.56358 4.71839
O 8.59435 7.59469 10.244
O 6.33016 2.56466 4.50261
O 9.71584 9.83059 10.3197
N 10.0067 9.86477 7.74306
N 6.78227 2.68645 1.88546
N 8.41177 7.6561 7.64655
N 11.9199 4.47569 2.07689
C 9.91885 10.9101 5.60351
C 6.97852 1.99205 10.5301
H 12.5458 10.5792 10.4783
C 11.2805 11.3103 5.70189
C 8.21095 1.11935 0.0576076
C 11.9895 10.9064 6.83975
C 8.6826 1.30033 1.3434
H 5.99338 1.10671 6.6829
H 9.60869 11.2488 1.6354
C 8.5517 6.48225 5.54651
C 11.5952 5.128 -0.233371
H 9.11588 6.27849 4.65793
H 5.86897 7.49674 -0.254498
C 9.15224 7.22167 6.58325
C 12.2799 4.38784 0.749122
H 10.1961 7.49239 6.5058
H 6.98174 5.94672 1.34431
C 9.27608 10.4286 6.74893
C 6.46504 2.73212 0.543411
H 8.20753 10.2764 6.73143
H 11.6957 1.41021 1.38293
C 11.354 10.1034 7.80735
C 7.98483 2.13654 2.23426
H 11.9404 9.64543 8.58326
H 8.43379 2.39556 3.18113
C 7.09461 7.29126 7.75114
C 10.8277 5.22973 2.39787
H 6.5115 7.64834 8.58425
H 10.37 5.12261 3.36127
C 6.48635 6.45735 6.78944
C 10.3486 6.20099 1.51295
H 12.3833 6.14566 6.84116
C 7.19859 6.104 5.6243
C 10.6261 6.05985 0.149568
C 11.9682 1.71708 4.61558
C 8.52697 10.4463 10.1098
C 6.54968 5.3916 4.45219
C 9.79181 6.98578 10.0726
S 2.48989 10.6283 3.55188
C 0.927604 9.77763 3.46848
H 0.655279 9.62177 2.40796
H 0.997768 8.7982 3.96456
H 0.138415 10.372 3.95734
S 3.42212 1.86022 0.693006
C 4.42028 10.81 1.05613
H 3.78262 9.91882 1.20854
H 5.09527 10.6014 0.201878
H 5.03914 10.9588 1.9581
S 2.53102 6.21628 3.93374
C 3.66115 7.50324 3.41594
H 4.67267 7.09092 3.28005
H 3.31591 7.94048 2.46163
H 3.76323 8.29846 4.16717
S 1.479 5.4005 0.381966
C 0.564052 6.7385 1.12613
H -0.158782 7.13513 0.385958
H 1.25107 7.55005 1.4267
H 0.0195485 6.39408 2.01969
S 9.30586 10.3322 4.08862
C 7.61535 9.76985 4.09272
H 6.99732 10.4465 4.70305
H 7.2247 9.75641 3.05497
H 7.55556 8.75042 4.50914
S 6.99268 2.48785 8.85345
C 8.23909 3.73089 8.60691
H 8.32214 3.95643 7.5244
H 7.95691 4.65243 9.15616
H 9.21621 3.35797 8.97755
S 4.81717 5.96837 7.02241
C 4.56104 4.61536 8.13159
H 4.73556 3.66528 7.59038
H 5.23874 4.72105 9.00005
H 3.51196 4.63357 8.49083
S 10.0074 7.78643 2.15165
C 11.58 8.61727 2.23085
H 12.0421 8.62356 1.22441
H 12.2396 8.09099 2.95072
H 11.459 9.66334 2.55643
140
Atoms. Timestep: 22747
Ni 2.18198 9.02866 8.67836
Ni 5.89991 3.75644 3.23137
O 0.267739 4.45521 3.58363
O 3.64597 8.04584 8.82996
O 4.49602 2.66635 3.27591
O 0.716398 10.0166 8.79502
O 5.31201 4.83234 4.49937
O 1.73031 7.90036 9.94382
O -0.628611 2.27459 4.76392
O 2.62893 10.1672 9.88789
N 2.94297 10.1851 7.35003
N -0.332257 2.21641 2.15144
N 1.43972 7.84928 7.38023
N 5.17339 4.94083 1.87406
C 2.99774 11.1204 5.13448
C -0.450012 11.1968 0.199124
C 4.33078 1.19997 5.33176
C 0.931577 11.3503 -0.0290265
C 4.94856 11.2848 6.53839
C 1.67274 1.68927 0.886681
H -0.800532 11.1671 6.9562
C 1.57542 6.60128 5.33377
C 5.29345 6.71567 0.219587
H 11.6385 5.03262 9.65459
C 2.13742 7.46996 6.28986
C 5.91749 5.86457 1.17622
H 3.12421 7.86651 6.14748
H 13.1242 3.81022 0.440009
C 2.2796 10.5807 6.23272
C 12.7637 1.43622 1.297
H 1.24341 10.3046 6.11307
H 5.67329 3.35752 0.181745
C 4.25023 10.5726 7.52951
C 1.02481 2.31076 1.97148
H 4.771 10.2976 8.43637
H 1.62421 2.79153 2.72287
C 0.162693 7.37962 7.57413
C 3.83627 4.82573 1.60209
H -0.385743 7.66981 8.4592
H 3.22487 4.20354 2.21555
C -0.444245 6.50496 6.65273
C 3.202 5.60268 0.630078
C 0.251739 6.09117 5.51236
C 3.9176 6.56785 -0.0735574
C 5.10623 2.00524 4.27204
C 1.38265 10.6678 9.75919
C -0.410798 5.1278 4.52668
C 2.98684 7.40532 9.80391
Ni 9.18166 8.7351 9.02813
Ni 12.6995 3.3806 3.46644
O 7.28785 4.81018 3.4886
O 10.544 7.62889 9.16146
O 11.2872 2.33025 3.62915
O 7.80996 9.83509 9.14909
O 12.1967 4.56308 4.71846
O 8.59417 7.59438 10.244
O 6.33009 2.56433 4.5021
O 9.71574 9.83023 10.3196
N 10.0065 9.86432 7.74291
N 6.78235 2.68637 1.88498
N 8.41148 7.6557 7.64648
N 11.9198 4.47552 2.07697
C 9.9184 10.9099 5.60351
C 6.97939 1.99248 10.5296
H 12.5453 10.58 10.4773
C 11.2803 11.3096 5.70153
C 8.21105 1.11912 0.0574049
C 11.9894 10.9052 6.83909
C 8.68249 1.29991 1.34328
H 5.99196 1.11028 6.68435
H 9.60844 11.2482 1.63543
C 8.55132 6.48226 5.54621
C 11.5954 5.12809 -0.233235
H 9.11544 6.27873 4.65752
H 5.86884 7.4972 -0.254215
C 9.15188 7.22159 6.58299
C 12.2801 4.38794 0.749258
H 10.1957 7.49242 6.50549
H 6.98165 5.94679 1.3442
C 9.27581 10.4286 6.74912
C 6.46542 2.73221 0.542836
H 8.20719 10.2769 6.73201
H 11.6954 1.41051 1.38235
C 11.354 10.1024 7.80685
C 7.98484 2.13641 2.23393
H 11.9404 9.64441 8.58271
H 8.43379 2.39554 3.18077
C 7.09439 7.29062 7.75118
C 10.8276 5.22952 2.39797
H 6.51133 7.64744 8.58444
H 10.3699 5.12241 3.3614
C 6.48618 6.45663 6.78948
C 10.3484 6.20072 1.51302
H 12.3832 6.1457 6.84086
C 7.19834 6.10364 5.62415
C 10.626 6.05966 0.149644
C 11.9679 1.71654 4.61529
C 8.5269 10.446 10.1097
C 6.54948 5.39127 4.45198
C 9.79165 6.98548 10.0726
S 2.49054 10.6275 3.55096
C 0.927997 9.77719 3.4673
H 0.655532 9.62186 2.40673
H 0.997938 8.7975 3.96297
H 0.138988 10.3716 3.95643
S 3.42186 1.86043 0.692351
C 4.42048 10.8104 1.05505
H 3.78316 9.91897 1.20752
H 5.09536 10.6021 0.200628
H 5.03949 10.9592 1.95691
S 2.53114 6.21566 3.93379
C 3.66133 7.50264 3.41613
H 4.67283 7.09034 3.28018
H 3.31614 7.94005 2.46186
H 3.76344 8.29773 4.16749
S 1.47893 5.40074 0.381754
C 0.564161 6.73865 1.12628
H -0.158835 7.13541 0.386332
H 1.25131 7.55013 1.42673
H 0.0198669 6.39415 2.01994
S 9.30474 10.3321 4.0888
C 7.61403 9.77026 4.09319
H 6.99687 10.4446 4.70699
H 7.22186 9.76095 3.05598
H 7.55467 8.74912 4.50553
S 6.99687 2.49086 8.85366
C 8.24273 3.73553 8.61253
H 8.32942 3.96218 7.53054
H 7.95752 4.65623 9.16163
H 9.21895 3.36345 8.98637
S 4.81725 5.96682 7.02283
C 4.56191 4.61519 8.1339
H 4.73594 3.66441 7.59379
H 5.24033 4.7219 9.00165
H 3.51313 4.63387 8.49395
S 10.0068 7.78607 2.15173
C 11.5791 8.6175 2.23058
H 12.0411 8.62361 1.22412
H 12.2389 8.09169 2.95058
H 11.4577 9.66364 2.55581
140
Atoms. Timestep: 22758
Ni 2.21616 9.02096 8.68421
Ni 5.90166 3.76556 3.22798
O 0.330556 4.46478 3.58168
O 3.68012 8.03575 8.83828
O 4.49912 2.67176 3.27471
O 0.750722 10.0114 8.80346
O 5.3086 4.83741 4.49501
O 1.75895 7.89466 9.94887
O -0.55719 2.28558 4.75976
O 2.6681 10.1578 9.89253
N 2.97001 10.1749 7.35517
N -0.273148 2.22282 2.14898
N 1.48059 7.84366 7.38606
N 5.18128 4.94925 1.87231
C 3.02145 11.1044 5.13692
C -0.398087 11.1819 0.190554
C 4.3486 1.2163 5.33494
C 0.979499 11.3383 -0.0398498
C 4.96674 11.2734 6.54196
C 1.71965 1.70481 0.87831
H -0.725022 11.1577 6.96015
C 1.61939 6.60243 5.33617
C 5.30987 6.7155 0.210828
H 11.5899 5.03386 9.66659
C 2.17915 7.46977 6.29149
C 5.92899 5.86782 1.17031
H 3.16302 7.8683 6.14742
H 13.07 3.80981 0.430332
C 2.30528 10.5649 6.23402
C 12.6965 1.4473 1.29114
H 1.27175 10.2885 6.11352
H 5.67086 3.37419 0.171045
C 4.27112 10.5629 7.53336
C 1.0759 2.3227 1.96379
H 4.78994 10.2888 8.44245
H 1.6745 2.8009 2.71734
C 0.210066 7.37372 7.57897
C 3.85235 4.8299 1.59453
H -0.335682 7.6623 8.46616
H 3.24148 4.20971 2.20886
C -0.394469 6.5011 6.65705
C 3.22318 5.60145 0.619749
C 0.301173 6.09123 5.5152
C 3.93805 6.56449 -0.0853247
C 5.11806 2.01597 4.27051
C 1.42504 10.6585 9.76617
C -0.355674 5.13246 4.52514
C 3.01248 7.3992 9.81086
Ni 9.15322 8.72807 9.03533
Ni 12.6407 3.38665 3.4631
O 7.28949 4.82088 3.48659
O 10.5152 7.61965 9.17076
O 11.2295 2.33571 3.62749
O 7.78183 9.82923 9.15763
O 12.1317 4.56807 4.71427
O 8.55983 7.58999 10.2507
O 6.33906 2.5747 4.49706
O 9.69269 9.82 10.3265
N 9.97106 9.85587 7.74945
N 6.77687 2.69872 1.8782
N 8.39065 7.65043 7.65263
N 11.8665 4.4782 2.07037
C 9.87959 10.895 5.6063
C 6.96774 2.00846 10.5434
H 12.478 10.5652 10.4879
C 11.2361 11.2961 5.70494
C 8.19489 1.13268 0.0486705
C 11.9457 10.8934 6.84285
C 8.66598 1.31004 1.33549
H 6.00688 1.12975 6.68726
H 9.58695 11.2258 1.62942
C 8.53589 6.48383 5.54883
C 11.5485 5.12799 -0.241486
H 9.0949 6.2817 4.65724
H 5.88041 7.4975 -0.265687
C 9.13298 7.22074 6.58628
C 12.2279 4.38784 0.740609
H 10.1738 7.49285 6.50761
H 6.99061 5.94986 1.33828
C 9.23853 10.4138 6.75136
C 6.46038 2.74901 0.533443
H 8.1718 10.2633 6.73445
H 11.632 1.42402 1.37499
C 11.3126 10.0931 7.81125
C 7.97212 2.1467 2.22614
H 11.896 9.63618 8.59016
H 8.41885 2.40414 3.17514
C 7.07993 7.28592 7.75544
C 10.7804 5.23325 2.39
H 6.49896 7.64088 8.59145
H 10.3274 5.12932 3.35537
C 6.47474 6.45422 6.79266
C 10.3035 6.20355 1.50459
H 12.3134 6.14005 6.84508
C 7.18699 6.10388 5.62613
C 10.5857 6.06332 0.141414
C 11.9182 1.72865 4.61396
C 8.50507 10.4331 10.1201
C 6.54339 5.39561 4.44987
C 9.75622 6.98382 10.083
S 2.52747 10.6153 3.55056
C 0.971112 9.76396 3.46244
H 0.7032 9.61137 2.40041
H 1.04348 8.78667 3.96112
H 0.186934 10.3611 3.95474
S 3.45837 1.87937 0.680189
C 4.4404 10.7949 1.04769
H 3.80043 9.90447 1.19972
H 5.11032 10.5874 0.189968
H 5.05398 10.945 1.95201
S 2.56576 6.21486 3.93284
C 3.68464 7.50269 3.41155
H 4.69394 7.08712 3.27575
H 3.34027 7.93636 2.45553
H 3.7863 8.29403 4.16621
S 1.50946 5.39756 0.367449
C 0.611688 6.73818 1.11932
H -0.10663 7.13522 0.375947
H 1.3 7.54964 1.41938
H 0.0720927 6.39322 2.01496
S 9.28053 10.3191 4.08885
C 7.59539 9.75764 4.08993
H 6.98476 10.434 4.70698
H 7.20946 9.75027 3.05065
H 7.5407 8.73808 4.50463
S 6.98163 2.49741 8.86432
C 8.22324 3.74522 8.61794
H 8.30948 3.96964 7.5347
H 7.93863 4.66451 9.17048
H 9.19793 3.37069 8.99509
S 4.81421 5.96288 7.02532
C 4.57496 4.61788 8.14037
H 4.74785 3.66869 7.59806
H 5.25081 4.72802 9.01059
H 3.52762 4.63828 8.50218
S 9.95974 7.78561 2.14449
C 11.5338 8.61258 2.22411
H 11.9918 8.6174 1.21538
H 12.1889 8.08454 2.94767
H 11.4112 9.65742 2.55056
140
Atoms. Timestep: 25557
Ni 2.21709 9.03244 8.6752
Ni 5.91277 3.77446 3.22014
O 0.317275 4.462 3.57462
O 3.68363 8.05167 8.82431
O 4.51091 2.68267 3.25873
O 0.751453 10.0183 8.79644
O 5.31801 4.84146 4.48713
O 1.76848 7.90675 9.94019
O -0.567302 2.28701 4.76577
O 2.66693 10.1707 9.88235
N 2.96926 10.189 7.3453
N -0.276883 2.2132 2.15578
N 1.47579 7.85124 7.37806
N 5.19198 4.96196 1.86573
C 3.02167 11.1033 5.12169
C -0.403002 11.1788 0.193604
C 4.34707 1.22919 5.32077
C 0.974971 11.3422 -0.0437677
C 4.96063 11.3106 6.53651
C 1.7203 1.70411 0.875176
H -0.725335 11.1676 6.96297
C 1.61662 6.6072 5.32939
C 5.32276 6.73515 0.210911