
# --------------------------------- Initialization -------------------------------------- #
units           real
atom_style      full
boundary        p p p

pair_style      lj/cut 14.000
bond_style      harmonic
angle_style     cosine/periodic
dihedral_style  harmonic
improper_style  fourier

special_bonds   lj/coul 0.0 0.0 1.0
pair_modify     tail no mix arithmetic
#dielectric      1.0
box tilt        large
read_data       data.NiPyC2_experiment_with_Xe
  triclinic box = (0 0 0) to (31.264 37.5702 30.8228) with tilt (0 -0.682783 0)
  1 by 1 by 1 MPI processor grid
  reading atoms ...
  2431 atoms
  scanning bonds ...
  6 = max bonds/atom
  scanning angles ...
  15 = max angles/atom
  scanning dihedrals ...
  8 = max dihedrals/atom
  scanning impropers ...
  3 = max impropers/atom
  reading bonds ...
  2880 bonds
  reading angles ...
  5490 angles
  reading dihedrals ...
  5760 dihedrals
  reading impropers ...
  3780 impropers
  6 = max # of 1-2 neighbors
  9 = max # of 1-3 neighbors
  12 = max # of special neighbors
  special bonds CPU = 0.000693369 secs
  read_data CPU = 0.0351747 secs

#### Atom Groupings ####
group           xe       id   55
1 atoms in group xe
group           fram     id   1:54 56:2431
2430 atoms in group fram
#### END Atom Groupings ####

###
# Speed up Calculations by exluding framework-framework interactions
#   since we are keeping the framework rigid and stationary
#
# neigh_modify keyword values ...
# keyword = exclude
# values  = group group1-ID group2-ID
#
# group1-ID, group2-ID = exclude if one atom is in 1st group, other in 2nd
###
neigh_modify exclude group fram fram

# ----------------------------- Variables ---------------------- #
dump            NiPyC2_experiment_with_Xe_xyzmov all xyz 5000 NiPyC2_experiment_with_Xe_mov.xyz
dump_modify     NiPyC2_experiment_with_Xe_xyzmov element Ni O N C H Xe
variable        dt         equal 1.00
variable        tdamp      equal 100*${dt}
variable        tdamp      equal 100*1
variable        eqtemp     equal 298.00

# ------------------------------ Equilibriation -------------------------------------------- #
# we do not need to perform equilibriation since we are using a rigid framework
# and the (single) adsorbate has already been inserted into the material via GCMC
# which already included an equilibriation phase.
fix             1 xe langevin ${eqtemp} ${eqtemp} ${tdamp} 8646
fix             1 xe langevin 298 ${eqtemp} ${tdamp} 8646
fix             1 xe langevin 298 298 ${tdamp} 8646
fix             1 xe langevin 298 298 100 8646
fix             2 xe nve
#fix             3 fram langevin 298.00 298.00 ${tdamp} 965287
#fix             4 fram nve
thermo          0
run             50000
Neighbor list info ...
  update every 1 steps, delay 10 steps, check yes
  max neighbors/atom: 2000, page size: 100000
  master list distance cutoff = 16
  ghost atom cutoff = 16
  binsize = 8, bins = 4 5 4
  1 neighbor lists, perpetual/occasional/extra = 1 0 0
  (1) pair lj/cut, perpetual
      attributes: half, newton on
      pair build: half/bin/newton/tri
      stencil: half/bin/3d/newton/tri
      bin: standard
WARNING: Inconsistent image flags (src/domain.cpp:785)
Per MPI rank memory allocation (min/avg/max) = 31.08 | 31.08 | 31.08 Mbytes
Step Temp E_pair E_mol TotEng Press 
       0            0   -7.4059459    41619.617    41612.211   -78625.857 
   50000  0.065045573    -6.838085    41619.617     41613.25   -78616.306 
Loop time of 43.2334 on 1 procs for 50000 steps with 2431 atoms

Performance: 99.923 ns/day, 0.240 hours/ns, 1156.513 timesteps/s
99.9% CPU use with 1 MPI tasks x no OpenMP threads

MPI task timing breakdown:
Section |  min time  |  avg time  |  max time  |%varavg| %total
---------------------------------------------------------------
Pair    | 0.93418    | 0.93418    | 0.93418    |   0.0 |  2.16
Bond    | 36.715     | 36.715     | 36.715     |   0.0 | 84.92
Neigh   | 1.3886     | 1.3886     | 1.3886     |   0.0 |  3.21
Comm    | 2.9575     | 2.9575     | 2.9575     |   0.0 |  6.84
Output  | 0.027844   | 0.027844   | 0.027844   |   0.0 |  0.06
Modify  | 0.27822    | 0.27822    | 0.27822    |   0.0 |  0.64
Other   |            | 0.9324     |            |       |  2.16

Nlocal:    2431 ave 2431 max 2431 min
Histogram: 1 0 0 0 0 0 0 0 0 0
Nghost:    16166 ave 16166 max 16166 min
Histogram: 1 0 0 0 0 0 0 0 0 0
Neighs:    1171 ave 1171 max 1171 min
Histogram: 1 0 0 0 0 0 0 0 0 0

Total # of neighbors = 1171
Ave neighs/atom = 0.481695
Ave special neighs/atom = 6.58988
Neighbor list builds = 20
Dangerous builds = 0
unfix           1
unfix           2
#unfix           3
#unfix           4

# --------------------- Production (data gathering) --------------------------------------- #
# A simple way to hold atoms stationary is to not include those atoms in your time integration.
reset_timestep  0

fix             3 xe nvt temp ${eqtemp} ${eqtemp} ${tdamp}
fix             3 xe nvt temp 298 ${eqtemp} ${tdamp}
fix             3 xe nvt temp 298 298 ${tdamp}
fix             3 xe nvt temp 298 298 100
#fix             4 fram rigid/nvt group 1 fram temp ${eqtemp} ${eqtemp} ${tdamp} # hold MOF atoms fixed
#fix             6 fram nvt temp 298.00 298.00 ${tdamp}

###
#  mean-squared disp of grp 1
#
# A vector of four quantities is calculated by this compute:
# The first 3 elements of the vector are the squared dx,dy,dz displacements, summed and averaged over atoms in the group.
# The fourth element is the total squared displacement, i.e. (dx*dx + dy*dy + dz*dz),
#  summed and averaged over atoms in the group.
#
# The slope of the MSD versus time is proportional to the diffusion coefficient.
# MSD values can be accumulated in a vector via the fix vector command,
#   and a line fit to the vector to compute its slope via the variable slope function,
#   and thus extract D.
#
# fix ID group-ID vector Nevery value1 value2 ...
#
# c_ID[I] = Ith component of global vector calculated by a compute with ID
# f_ID = global scalar calculated by a fix with ID
# v_name = value calculated by an equal-style variable with name
#
# variable name style args...
#
# The slope() function uses linear regression to fit a line to the set of points,
#   equally spaced by 1 in their x coordinate: (1,V1), (2,V2), …, (N,VN),
#   where the Vi are the values in the global vector of length N.
#   The returned value is the slope of the line.
#   If the line has a single point or is vertical, it returns 1.0e20.
###
compute         msd all msd com yes
#variable        twopoint equal c_msd[4]/6/(step*dt+1.0e-6) # scaled r_sqr(t)... not used? idk what this is for...
fix             5 xe vector 5 c_msd[4]
variable        fitslope equal slope(f_5)/6/(5*dt) # why dividing slope?

thermo_style    custom step v_eqtemp c_msd[4] v_fitslope # prints this info to log file

thermo          1000
run             1000000
WARNING: Inconsistent image flags (src/domain.cpp:785)
Per MPI rank memory allocation (min/avg/max) = 31.83 | 31.83 | 31.83 Mbytes
Step v_eqtemp c_msd[4] v_fitslope 
       0          298 1.4303985e-30 3.3333333e+18 
    1000          298 0.0016419948 3.1776736e-07 
    2000          298 0.0015342689 1.8156163e-07 
    3000          298 0.00018796967 5.0104364e-09 
    4000          298 0.00054999417 -3.8691523e-08 
    5000          298   0.00256733 1.4495024e-08 
    6000          298 0.00013493883 6.386076e-09 
    7000          298 0.0012283528 -7.5495778e-09 
    8000          298 0.0020682975 1.1226362e-08 
    9000          298 0.00043314946 8.7571108e-09 
   10000          298 0.0014787891 2.7305292e-09 
   11000          298 0.0021699574 1.0019641e-08 
   12000          298 0.00016824588 6.9912026e-09 
   13000          298 0.0001823845 7.0116409e-11 
   14000          298  0.002583108 1.2224125e-09 
   15000          298 0.00044658545 2.6012299e-09 
   16000          298 0.00092128873 -3.2853488e-10 
   17000          298 0.00040891978 -1.2790042e-09 
   18000          298 0.00051917707 -3.1272287e-09 
   19000          298  0.002391396 -1.8115311e-09 
   20000          298 0.00090183766 4.7505067e-10 
   21000          298 0.00040455379 -8.3056623e-10 
   22000          298 0.0010643289 -1.2271776e-09 
   23000          298 0.00013670889 -1.730037e-09 
   24000          298 0.0017252346 -2.051695e-09 
   25000          298  0.001029015 -4.2107573e-10 
   26000          298 9.4230879e-05 -1.1237534e-09 
   27000          298 0.00091385844 -1.8161111e-09 
   28000          298 0.00033639995 -1.8443403e-09 
   29000          298 0.00073935454 -2.4343853e-09 
   30000          298 0.0015484364 -2.2217081e-09 
   31000          298 0.0012857635 -1.2125034e-09 
   32000          298 0.00083051592 -1.2333399e-09 
   33000          298 9.5560581e-05 -1.7296026e-09 
   34000          298 0.0017005237 -1.7815951e-09 
   35000          298 0.00049920789 -1.4388762e-09 
   36000          298 0.00078288509 -1.7092732e-09 
   37000          298 0.0026920142 -1.0116254e-09 
   38000          298 0.00079478875 -4.4377108e-10 
   39000          298 7.1330659e-05 -7.9017669e-10 
   40000          298 0.00080056044 -1.053399e-09 
   41000          298  8.81349e-05 -1.2844852e-09 
   42000          298 0.0012337958 -1.4546791e-09 
   43000          298 0.00037173941 -1.385617e-09 
   44000          298 0.00094524044 -1.4612467e-09 
   45000          298 0.0012242792 -1.3607249e-09 
   46000          298 0.00030754927 -1.2719468e-09 
   47000          298 0.0016765546 -1.2657256e-09 
   48000          298 0.0012953731 -7.3997452e-10 
   49000          298 0.00019704388 -7.6637653e-10 
   50000          298 0.00051440767 -9.8464168e-10 
   51000          298 0.00027121229 -1.0016197e-09 
   52000          298 0.00047029795 -1.2065979e-09 
   53000          298 0.00034633325 -1.2717777e-09 
   54000          298 0.00096751214 -1.3219631e-09 
   55000          298 0.00050699073 -1.3589752e-09 
   56000          298 0.00099270534 -1.3104872e-09 
   57000          298 0.00029164383 -1.3741621e-09 
   58000          298 0.0010202368 -1.4185081e-09 
   59000          298 0.00094043968 -1.3177719e-09 
   60000          298 0.00052588684 -1.2543183e-09 
   61000          298 0.0016450491 -1.2312003e-09 
   62000          298 0.0019688533 -8.8828375e-10 
   63000          298 0.00044196438 -7.9349785e-10 
   64000          298 0.0012441993 -8.2772927e-10 
   65000          298 0.0025654225 -5.3361102e-10 
   66000          298 0.00042578917 -3.7373751e-10 
   67000          298 0.00024486441 -5.0969676e-10 
   68000          298 0.0012926594 -5.83628e-10 
   69000          298 0.0020935316 -2.462004e-10 
   70000          298 0.00020719254 -2.4764053e-10 
   71000          298 0.0010873785 -3.3141137e-10 
   72000          298 0.0014727065 -1.6657778e-10 
   73000          298 0.00062520678 -1.4914779e-10 
   74000          298 0.00065385778 -2.0539746e-10 
   75000          298 0.0014417317 -1.4104167e-10 
   76000          298 0.00084917122 -1.3911931e-10 
   77000          298 0.00098140077 -9.8516924e-11 
   78000          298 0.0010242853 -1.0584465e-10 
   79000          298 0.00028856719 -1.8251871e-10 
   80000          298  0.001216262 -2.0036621e-10 
   81000          298 3.6699796e-05 -2.4396793e-10 
   82000          298 0.00023088827 -3.3309458e-10 
   83000          298 0.0020393801 -3.2451087e-10 
   84000          298 0.0003963317 -2.6175007e-10 
   85000          298 3.5456859e-05 -3.3156781e-10 
   86000          298 0.0014564741 -3.809996e-10 
   87000          298 0.0020098888 -1.9882074e-10 
   88000          298 0.00031885567 -1.5495757e-10 
   89000          298 0.00075319362 -2.3017267e-10 
   90000          298 0.0020626693 -1.1687931e-10 
   91000          298 0.00028505934 -9.721402e-11 
   92000          298 0.00030235841 -1.6961067e-10 
   93000          298 0.0027120612 -1.1602644e-10 
   94000          298 0.0012351178 5.4228877e-11 
   95000          298 0.00037989668 2.1647078e-11 
   96000          298 0.0011267161 -1.1901946e-11 
   97000          298 0.00068672089 2.8749651e-11 
   98000          298 0.00021494238 -4.9174243e-11 
   99000          298 0.0015465243 -8.2828677e-11 
  100000          298 0.0010066201 2.9855738e-11 
  101000          298 0.00011208389 -3.2988659e-11 
  102000          298 0.0020602808 -4.9575865e-11 
  103000          298 0.00054314668 3.2753407e-11 
  104000          298 0.00014529286 -3.4686554e-11 
  105000          298 0.0019765252 -5.7429513e-11 
  106000          298 0.00065974903 3.3729761e-11 
  107000          298 0.00035996629 -2.9043878e-11 
  108000          298 0.0028188416 2.8347411e-11 
  109000          298 0.00059217908 1.0647448e-10 
  110000          298 0.0002563489 3.854018e-11 
  111000          298  0.001063111 3.249276e-11 
  112000          298  0.001537675 6.3341727e-11 
  113000          298  0.000120988 4.1187053e-11 
  114000          298  0.001649246 2.0132704e-11 
  115000          298 0.0011015127 6.9166082e-11 
  116000          298 6.745851e-05 4.2120465e-11 
  117000          298 0.0012700899 -6.5612475e-15 
  118000          298 0.0014497956 9.3302124e-11 
  119000          298 3.6426656e-05 5.0391979e-11 
  120000          298 0.0020939879 3.4762234e-11 
  121000          298 0.0015895097 1.2187786e-10 
  122000          298 0.00052671816 1.1298459e-10 
  123000          298 0.0018742026 1.3318319e-10 
  124000          298  0.001846238 2.1821055e-10 
  125000          298 5.6628521e-05 1.8793266e-10 
  126000          298 0.00053264321 1.4674664e-10 
  127000          298  0.002267026 1.7209744e-10 
  128000          298 0.00034752536 1.9614947e-10 
  129000          298 0.00024959795 1.5126787e-10 
  130000          298 0.0010301235 1.0830907e-10 
  131000          298  0.002617049 1.8387298e-10 
  132000          298 0.00098587349 2.144099e-10 
  133000          298 0.00055118912 1.7979983e-10 
  134000          298 0.0027072989 2.1281689e-10 
  135000          298 0.00080182181 2.6725694e-10 
  136000          298 0.00027370598 2.2188916e-10 
  137000          298 0.0025264034 2.4085029e-10 
  138000          298 0.00018901048 2.3682119e-10 
  139000          298 0.0013197765 2.0250505e-10 
  140000          298 0.0024311793 2.6615553e-10 
  141000          298 0.00040054786 2.7556082e-10 
  142000          298 0.0010954074 2.4824539e-10 
  143000          298 0.0027931782 2.8358863e-10 
  144000          298 0.00056803405 3.2230625e-10 
  145000          298 0.00036205421 2.7847044e-10 
  146000          298 0.00072990031 2.4252406e-10 
  147000          298 0.0020151299 2.7294201e-10 
  148000          298 0.00056086008 2.7127053e-10 
  149000          298 0.00011772202 2.3541816e-10 
  150000          298 0.0017818987 2.2871957e-10 
  151000          298 0.00019551837 2.2502408e-10 
  152000          298 0.00012202897 1.9016967e-10 
  153000          298  0.001602389 1.6551018e-10 
  154000          298  0.001374381 2.0712783e-10 
  155000          298 0.00053733035 1.9935781e-10 
  156000          298 0.0012139871 1.9401363e-10 
  157000          298 0.0012169833 1.9024245e-10 
  158000          298 0.0007272783 1.8710297e-10 
  159000          298 0.0012805214 1.8549695e-10 
  160000          298 0.0012724925 1.9435483e-10 
  161000          298 0.0010402963 1.9743631e-10 
  162000          298 0.00053302207 1.8342102e-10 
  163000          298 0.00067813383  1.78666e-10 
  164000          298 0.00049122152 1.5857941e-10 
  165000          298 0.0011094543 1.505174e-10 
  166000          298 0.00069059126 1.371172e-10 
  167000          298  0.001015987 1.3776634e-10 
  168000          298 0.0010813208 1.3951994e-10 
  169000          298 0.0008979943 1.3753356e-10 
  170000          298 0.0010713558 1.2975171e-10 
  171000          298 0.00078023433 1.2856654e-10 
  172000          298 0.0010551961 1.2770924e-10 
  173000          298 0.0011442532 1.206463e-10 
  174000          298 0.0022805151 1.4548409e-10 
  175000          298 0.00064550004 1.5771879e-10 
  176000          298 0.00010163584 1.3151519e-10 
  177000          298 0.0024760587 1.2948672e-10 
  178000          298 0.00037432965 1.5272401e-10 
  179000          298 0.00032228898 1.2300805e-10 
  180000          298 0.0023045642 1.4230864e-10 
  181000          298 0.00076733492 1.4718846e-10 
  182000          298 0.0022442899 1.5055075e-10 
  183000          298 0.00049691064 1.6340783e-10 
  184000          298 0.0012954966 1.4985324e-10 
  185000          298 0.00097525168 1.753387e-10 
  186000          298 4.0973715e-05 1.5021318e-10 
  187000          298 0.0019757409 1.4414689e-10 
  188000          298 0.00078197857 1.6130544e-10 
  189000          298 0.00017172826 1.4364729e-10 
  190000          298 0.0017507922 1.3250903e-10 
  191000          298 0.00026754972 1.3526194e-10 
  192000          298 0.00010522082 1.148949e-10 
  193000          298   0.00138879 9.7509242e-11 
  194000          298 0.0013447184 1.2085661e-10 
  195000          298 0.00049807257 1.1501117e-10 
  196000          298 0.00069803954 9.4987708e-11 
  197000          298 0.00059623604 9.2662251e-11 
  198000          298 0.00021365156 7.1552197e-11 
  199000          298 0.00061944318 6.3136079e-11 
  200000          298 0.00031206499 4.6807989e-11 
  201000          298 0.0011881667 3.9369508e-11 
  202000          298 0.0019706572 6.4102181e-11 
  203000          298 0.00038858779 6.6395784e-11 
  204000          298 0.00098623471 5.5667028e-11 
  205000          298 0.0010319843 6.6300905e-11 
  206000          298 2.827669e-05 4.926215e-11 
  207000          298 0.00082593969 3.8745588e-11 
  208000          298 0.0018675963 4.7592793e-11 
  209000          298 0.00096803256 5.7733711e-11 
  210000          298 0.00026902035 5.2881279e-11 
  211000          298 0.00045814485 3.3282711e-11 
  212000          298 0.0019424965 4.5716987e-11 
  213000          298 0.00016579558 4.5459206e-11 
  214000          298 0.00010462274 2.8298207e-11 
  215000          298 0.0019212843 2.1934922e-11 
  216000          298 0.0019783116 5.523908e-11 
  217000          298 0.00014409981 5.5041679e-11 
  218000          298 0.0011007204 4.1111467e-11 
  219000          298 0.0014233687 6.5233482e-11 
  220000          298 4.3558604e-06 5.1008409e-11 
  221000          298  0.001842489 4.4214346e-11 
  222000          298 0.0014250906 6.6431637e-11 
  223000          298 0.00012326114 5.5437432e-11 
  224000          298 0.00040468058 4.0326093e-11 
  225000          298 0.0029772975 5.659782e-11 
  226000          298 0.00015835346 6.2734646e-11 
  227000          298 0.00023054411 4.5637554e-11 
  228000          298 0.0028870021 4.9021795e-11 
  229000          298 0.00051664138 6.8784656e-11 
  230000          298 0.00022382587 5.1464023e-11 
  231000          298  0.001517054 4.9146653e-11 
  232000          298 0.0014643621 6.7623286e-11 
  233000          298 9.9206456e-06 6.3198588e-11 
  234000          298 0.0018759922 5.9372993e-11 
  235000          298 0.0009082471 9.6164119e-11 
  236000          298 0.00057546243 9.4535036e-11 
  237000          298 0.0022140001 1.3762882e-10 
  238000          298 0.0010343255 2.0645319e-10 
  239000          298 0.00060746077 2.2944119e-10 
  240000          298 0.00067784975 2.9051788e-10 
  241000          298 0.00094064343 4.364161e-10 
  242000          298 0.00041951044 8.9274081e-10 
  243000          298 0.00080014575 -3.1819023e-09 
  244000          298 0.0011442101 -5.3646229e-10 
  245000          298 9.0562684e-05 -2.5416022e-10 
  246000          298 0.00056408261 -1.2495086e-10 
  247000          298 0.0019616924 -1.0946848e-10 
  248000          298 0.00075357411 -1.2256949e-10 
  249000          298 0.00032486173 -8.0958686e-11 
  250000          298 0.0023919106 -8.4519105e-11 
  251000          298 0.0012008423 -9.6813885e-11 
  252000          298 0.00082818823 -7.989145e-11 
  253000          298 0.0021299894 -8.5619678e-11 
  254000          298 0.00098220034 -9.8105107e-11 
  255000          298 0.00058781009 -7.9609664e-11 
  256000          298 0.0010435012 -6.7869748e-11 
  257000          298 0.00064718651 -6.8684897e-11 
  258000          298 0.00031532461 -5.792039e-11 
  259000          298 0.0015938749 -4.9057854e-11 
  260000          298 0.0016530536 -6.0590716e-11 
  261000          298 0.00059218452 -6.0326121e-11 
  262000          298 0.0014444561 -5.6876486e-11 
  263000          298 0.0022350597 -6.6178573e-11 
  264000          298 0.0003890358 -6.2423691e-11 
  265000          298 0.0015760991 -5.6567843e-11 
  266000          298  0.001632081 -6.4751018e-11 
  267000          298 0.0003343384 -6.0881842e-11 
  268000          298 0.0014777764 -5.42164e-11 
  269000          298  0.002089922 -6.401247e-11 
  270000          298 0.00025738216 -6.1056916e-11 
  271000          298 0.00033012342 -5.1900334e-11 
  272000          298 0.00078141571 -4.8300853e-11 
  273000          298 0.00040355072 -4.1768851e-11 
  274000          298 0.0014398145 -4.0198391e-11 
  275000          298 0.0016947451 -4.7014501e-11 
  276000          298 0.0005115556 -4.5555114e-11 
  277000          298 0.00083923578 -4.0507577e-11 
  278000          298 0.00094822095 -4.2231985e-11 
  279000          298 5.2530998e-05 -3.5727597e-11 
  280000          298 0.00091561716 -3.1738628e-11 
  281000          298 0.0016573662 -3.4754333e-11 
  282000          298 0.0001849478 -3.2224432e-11 
  283000          298 0.0011144523 -2.7572303e-11 
  284000          298 0.0014080287 -3.0358277e-11 
  285000          298 0.0002264497 -2.8696372e-11 
  286000          298 0.00073275092 -2.3399477e-11 
  287000          298 0.0017497627 -2.886954e-11 
  288000          298 5.5245461e-05 -2.5190077e-11 
  289000          298 0.00089222216 -2.1054683e-11 
  290000          298 0.0022811257 -2.5491879e-11 
  291000          298 0.00036387675 -2.7390403e-11 
  292000          298 0.00070501416 -2.2833705e-11 
  293000          298 0.0021737666 -2.7869003e-11 
  294000          298 8.0628231e-06 -2.5310441e-11 
  295000          298 0.0012135497 -2.1650435e-11 
  296000          298 0.0019196686 -2.6113186e-11 
  297000          298 0.00025783106 -2.613932e-11 
  298000          298 0.00032931128 -2.1072479e-11 
  299000          298 0.0021983841 -2.501922e-11 
  300000          298 7.7108279e-05 -2.3341153e-11 
  301000          298 0.0016049463 -2.0487016e-11 
  302000          298 0.0014099944 -2.4505298e-11 
  303000          298 0.0003117375 -2.3551459e-11 
  304000          298 0.00054642506 -1.9233163e-11 
  305000          298 0.0031548554 -2.3802301e-11 
  306000          298 0.0011563191 -2.8961896e-11 
  307000          298 0.00034050716 -2.5940864e-11 
  308000          298 0.0025859559 -2.6929691e-11 
  309000          298 0.00060856226 -3.0806887e-11 
  310000          298 8.7886634e-05 -2.6499887e-11 
  311000          298  0.002775514 -2.7496672e-11 
  312000          298 0.00096405083 -3.1402746e-11 
  313000          298 0.00094521059 -2.9457258e-11 
  314000          298 0.0022188407 -3.2419874e-11 
  315000          298 0.0007489238 -3.5351862e-11 
  316000          298 0.00068421816 -3.2352189e-11 
  317000          298 0.0010551667 -3.0291524e-11 
  318000          298   0.00113252 -3.1388007e-11 
  319000          298 0.00041196011 -3.0787814e-11 
  320000          298 0.0013181504 -2.8900239e-11 
  321000          298 0.0020525812 -3.2247287e-11 
  322000          298 0.00043141019 -3.2924173e-11 
  323000          298 0.0011750696 -3.0765775e-11 
  324000          298 0.0015794561 -3.4696253e-11 
  325000          298 6.5309033e-06 -3.1992822e-11 
  326000          298 0.0018681322 -3.0113273e-11 
  327000          298 0.0012124592 -3.366481e-11 
  328000          298 3.6008523e-05 -3.1295748e-11 
  329000          298 0.0013843307 -2.8913949e-11 
  330000          298 0.0011998063 -3.1500994e-11 
  331000          298 0.00014485706 -2.9604055e-11 
  332000          298 0.00049610451 -2.6832789e-11 
  333000          298 0.00026779715 -2.5225651e-11 
  334000          298 0.00095557049 -2.3179539e-11 
  335000          298 0.00041713604 -2.2562189e-11 
  336000          298 0.0010819965 -2.0758318e-11 
  337000          298 0.00031985967 -1.9734201e-11 
  338000          298 0.00043491974 -1.7044992e-11 
  339000          298 0.0023285215 -1.8134773e-11 
  340000          298 0.00064129195 -1.9699539e-11 
  341000          298 0.00082272384 -1.8240732e-11 
  342000          298 0.0010825447 -1.7431747e-11 
  343000          298 0.0012051597 -1.9066793e-11 
  344000          298 0.00036052001 -1.7969192e-11 
  345000          298 0.0010517886 -1.6722067e-11 
  346000          298 0.0015503648 -1.7504419e-11 
  347000          298 0.00023869799 -1.7239526e-11 
  348000          298 0.00045838132 -1.4364353e-11 
  349000          298 0.0027338681 -1.5837783e-11 
  350000          298 0.00063665677 -1.8751009e-11 
  351000          298 0.00032626963 -1.5985634e-11 
  352000          298 0.00061588409 -1.3832819e-11 
  353000          298 0.0019083263 -1.5998435e-11 
  354000          298 0.00046687244 -1.5380909e-11 
  355000          298 0.00056238329 -1.3450437e-11 
  356000          298  0.001428828 -1.4377851e-11 
  357000          298 0.00024266935 -1.2820624e-11 
  358000          298 0.0001866344 -1.0401188e-11 
  359000          298 0.0013751921 -9.9972124e-12 
  360000          298 0.00019455172 -8.817258e-12 
  361000          298 0.0010549754 -7.2914931e-12 
  362000          298 0.0014608779 -7.7868771e-12 
  363000          298 0.00054962956 -8.8756825e-12 
  364000          298 0.00059371805 -6.9717669e-12 
  365000          298 0.0019292116 -7.8867454e-12 
  366000          298 0.00060914064 -8.7680979e-12 
  367000          298 0.00094239598 -7.3285699e-12 
  368000          298 0.0016972793 -1.0034647e-11 
  369000          298 0.00014270082 -8.6967986e-12 
  370000          298 0.0018134754 -7.555912e-12 
  371000          298 0.0010885029 -1.0182984e-11 
  372000          298 0.00068199498 -9.3858914e-12 
  373000          298 0.0018959952 -9.9612895e-12 
  374000          298 0.00073919464 -1.0892609e-11 
  375000          298 0.00045721247 -9.4184009e-12 
  376000          298 0.00077459556 -9.3674182e-12 
  377000          298 0.0002166563 -7.9024078e-12 
  378000          298 0.0012469011 -7.1307476e-12 
  379000          298 0.0012601468 -7.5369805e-12 
  380000          298 0.00030836126 -7.1248658e-12 
  381000          298  0.001857448 -6.9739401e-12 
  382000          298 0.0019835415 -1.1005418e-11 
  383000          298 2.0105393e-05 -1.0111346e-11 
  384000          298 0.00096138682 -8.0849884e-12 
  385000          298 0.0019394829 -1.048217e-11 
  386000          298 2.0537403e-05 -1.0014376e-11 
  387000          298 0.00064701674 -7.7232673e-12 
  388000          298 0.0022726667 -9.2246471e-12 
  389000          298 0.00038448169 -9.6421301e-12 
  390000          298 0.00010731168 -7.3438039e-12 
  391000          298 0.0026834786 -7.5094785e-12 
  392000          298 0.00031831931 -9.1082077e-12 
  393000          298 0.00022276142 -7.0226634e-12 
  394000          298 0.0019413973 -6.1234597e-12 
  395000          298 0.00077655063 -9.1155429e-12 
  396000          298 0.00010238976 -6.8554544e-12 
  397000          298 0.0013133557 -6.2888121e-12 
  398000          298 0.0016173244 -8.1237574e-12 
  399000          298 1.2391678e-05 -7.1660955e-12 
  400000          298 0.0012521478 -5.3179349e-12 
  401000          298 0.0010148815 -7.9330003e-12 
  402000          298 0.00035370149 -6.3608503e-12 
  403000          298 0.0021986804 -7.5508321e-12 
  404000          298 0.0012790153 -9.7919879e-12 
  405000          298 0.00067857346 -8.6720905e-12 
  406000          298 0.00099302787 -8.049717e-12 
  407000          298 0.00082072685 -8.5707409e-12 
  408000          298 0.00057413097 -8.1145138e-12 
  409000          298 0.0012587706 7.1018076e-12 
  410000          298 0.0016753165 9.2019798e-12 
  411000          298 0.00066459012 1.013442e-11 
  412000          298 0.0012812006 1.0044041e-11 
  413000          298 0.0024216058 1.2648798e-11 
  414000          298 0.00038568883 1.315134e-11 
  415000          298 0.0012445169 1.2234249e-11 
  416000          298 0.0018702551 1.5124236e-11 
  417000          298 0.00023368463 1.5563163e-11 
  418000          298 0.00044821467 1.3388899e-11 
  419000          298 0.0013205273 1.3786776e-11 
  420000          298 0.0012180774 1.542501e-11 
  421000          298 0.00037759363 1.4332327e-11 
  422000          298 0.00079769922 1.4456497e-11 
  423000          298 0.00074718856 1.3492466e-11 
  424000          298 0.00042705152 1.2603866e-11 
  425000          298 0.00090673192 1.1906469e-11 
  426000          298 0.00018900148 1.0336105e-11 
  427000          298 0.00070162596 8.4994621e-12 
  428000          298 0.00052010001 7.6996836e-12 
  429000          298  0.000359127 6.1937141e-12 
  430000          298 0.0022871589 6.6950926e-12 
  431000          298 0.00060227141 1.0218029e-11 
  432000          298 0.0001129229 7.5286205e-12 
  433000          298 0.0015912474 6.4586573e-12 
  434000          298 0.00083421756 8.8314255e-12 
  435000          298 0.00023251763 7.7024777e-12 
  436000          298 0.00063053035 5.1510516e-12 
  437000          298 0.00017001133 3.842024e-12 
  438000          298 0.0007523315 1.5429454e-13 
  439000          298 0.0006306853 -8.6076318e-13 
  440000          298 0.00066935848 -4.0775932e-12 
  441000          298  0.001586942 -4.510972e-12 
  442000          298  0.001557973 3.8960638e-13 
  443000          298 0.00065189502 -6.420309e-13 
  444000          298 0.0010341101 -2.823973e-12 
  445000          298 0.0014499533 -9.0905959e-13 
  446000          298 0.00056034752 -2.6392789e-12 
  447000          298  0.001501982 -2.8241166e-12 
  448000          298 0.00076619214 1.7439449e-12 
  449000          298 0.0007443006 -1.2712645e-12 
  450000          298 0.0022846084 2.6162416e-12 
  451000          298 0.00027062527 6.3475058e-12 
  452000          298 0.00054351898 -2.5569621e-13 
  453000          298 0.0020274032 7.0382235e-12 
  454000          298 0.00065519135 9.4462387e-12 
  455000          298 0.0011588562 6.6309409e-12 
  456000          298 0.0013599053 1.5205345e-11 
  457000          298 0.0005120708  1.38184e-11 
  458000          298 0.0014928639 1.3436437e-11 
  459000          298 0.00069728223 1.6584601e-11 
  460000          298 0.00061355234 1.0081471e-11 
  461000          298 0.0017679344 1.4476817e-11 
  462000          298 0.0008271761 2.6513661e-11 
  463000          298 0.00057497745 1.7948117e-11 
  464000          298 0.0016683292 1.6636538e-11 
  465000          298 0.00096148103 4.4190346e-11 
  466000          298 0.00037435059 3.3520199e-11 
  467000          298 0.00076691191 2.8778267e-11 
  468000          298 0.00044732013 7.8375065e-12 
  469000          298 0.0014181077 -1.3936282e-11 
  470000          298 0.0017213476 1.7225999e-10 
  471000          298 0.00047450215 3.5209154e-09 
  472000          298 0.00087316059 -6.6616162e-11 
  473000          298 0.00061974116 -1.4915006e-11 
  474000          298 0.00072498314 2.8258963e-11 
  475000          298  0.002096144 -1.9388524e-11 
  476000          298 0.00017295804 -7.6891694e-12 
  477000          298 0.0006257075 1.8031437e-11 
  478000          298 0.0025979644 -1.6423471e-11 
  479000          298 0.00010100355 -1.2978935e-11 
  480000          298 0.00022771786 3.7553564e-12 
  481000          298 0.0022433432 6.5700946e-12 
  482000          298 0.0012668327 -2.1989553e-11 
  483000          298 0.00028102923 -1.2053871e-11 
  484000          298 0.0007033246 7.2487443e-14 
  485000          298 0.0011874482 -4.6668735e-12 
  486000          298 0.00026228842 2.5130543e-12 
  487000          298 0.00066520892 7.3777265e-12 
  488000          298 0.0011301308 2.4153129e-12 
  489000          298 0.00050753538 7.3851409e-12 
  490000          298 0.00054458995 1.4538737e-11 
  491000          298 0.0016585817 8.428796e-12 
  492000          298 0.00016141747 1.0889359e-11 
  493000          298 5.6977045e-05 1.7146291e-11 
  494000          298 0.0022248923 1.6495807e-11 
  495000          298 0.00091555599 1.108563e-11 
  496000          298 0.00031084489 1.3864846e-11 
  497000          298 0.0024354056 1.1437304e-11 
  498000          298 0.0016131929 -2.3181582e-13 
  499000          298 7.144473e-05 2.953168e-12 
  500000          298 0.0019019827 5.765415e-12 
  501000          298 0.0011746797 -1.5113918e-12 
  502000          298 0.00013202887 2.2484202e-12 
  503000          298 0.0010975343 3.7541511e-12 
  504000          298 0.0013724114 1.1274849e-12 
  505000          298 0.0003491141 3.2632035e-12 
  506000          298   0.00069346 6.0699523e-12 
  507000          298 0.0010124049  4.54852e-12 
  508000          298 0.00088662538 5.0948157e-12 
  509000          298 0.00083236002 7.6610185e-12 
  510000          298 0.0011062303 5.7117156e-12 
  511000          298 0.0005738034 7.3639666e-12 
  512000          298 0.00043931099 8.9565211e-12 
  513000          298 0.00060116092 1.1445302e-11 
  514000          298 0.00058084856 1.3588471e-11 
  515000          298 0.00064467249 1.590437e-11 
  516000          298 0.0017434752 1.5571371e-11 
  517000          298 0.0012165061 1.1136742e-11 
  518000          298 0.00069356515 1.2118566e-11 
  519000          298 0.00040032583 1.4573724e-11 
  520000          298 0.00063705324 1.6516871e-11 
  521000          298 0.00081421173 1.7974528e-11 
  522000          298 0.0017727306 1.5094042e-11 
  523000          298 0.00067838283 1.4496269e-11 
  524000          298 0.00028798898 -1.749644e-11 
  525000          298 0.0010696569 -1.8975171e-11 
  526000          298 0.00014575785 -2.1623204e-11 
  527000          298 0.00067403332 -2.4515618e-11 
  528000          298 0.0023554921 -2.2602231e-11 
  529000          298 0.00044610909 -2.1105612e-11 
  530000          298 0.00082282558 -2.4641657e-11 
  531000          298 0.0015360859 -2.5205569e-11 
  532000          298 0.00078203436 -2.4233107e-11 
  533000          298 0.00012141624 -2.8832212e-11 
  534000          298 0.0010079781 -3.1294803e-11 
  535000          298 0.00096889272 -3.2104426e-11 
  536000          298 0.00041030829 -3.5669643e-11 
  537000          298 0.0020517858 -3.578765e-11 
  538000          298 0.0013146446 -2.9144809e-11 
  539000          298 0.00031991375 -3.3771843e-11 
  540000          298 0.00029761727 -4.2360614e-11 
  541000          298 0.0030171333 -3.9507227e-11 
  542000          298 0.00094565251 -3.0881433e-11 
  543000          298 2.6164987e-05 -3.9551436e-11 
  544000          298 0.0016124187 -4.6863408e-11 
  545000          298 0.00095510574 -3.842801e-11 
  546000          298 0.00010595424 -5.1384409e-11 
  547000          298 0.0015979101 -5.8608233e-11 
  548000          298 0.0022861813 -4.1454233e-11 
  549000          298 0.00044354701 -4.556874e-11 
  550000          298  0.000103495 -6.7905312e-11 
  551000          298 0.0014297352 -8.4173179e-11 
  552000          298 0.00012720744 -1.0957301e-10 
  553000          298 0.00073574929 -1.5892768e-10 
  554000          298 0.0024149392 -1.8857554e-10 
  555000          298 0.0007929673 -2.2623991e-10 
  556000          298 0.00091490045 -5.356052e-10 
  557000          298 0.00076736033 7.1379716e-09 
  558000          298 0.00069287218 5.0464347e-10 
  559000          298 0.00053809514 2.9707161e-10 
  560000          298 0.00044003018 2.1224448e-10 
  561000          298 0.00064182401 1.8274191e-10 
  562000          298 0.00027397319 1.5794812e-10 
  563000          298 0.00075232475 1.4856754e-10 
  564000          298 0.00075119558 1.3162118e-10 
  565000          298 0.0013631336 1.1120925e-10 
  566000          298 0.00026149885 1.0290409e-10 
  567000          298 0.00081051617 9.6054991e-11 
  568000          298 0.0013620058 8.6658598e-11 
  569000          298 0.0005508936 8.0990741e-11 
  570000          298 0.00057981528 8.0340709e-11 
  571000          298 0.0014068958 7.1281161e-11 
  572000          298 0.0013148205 6.1119908e-11 
  573000          298 0.0012699046 5.5767595e-11 
  574000          298 0.0013942703 5.1387776e-11 
  575000          298 0.0015063504 4.4465327e-11 
  576000          298 0.00047001588 4.092373e-11 
  577000          298 0.00084155204 4.2242405e-11 
  578000          298 0.00057705977 4.293286e-11 
  579000          298 0.0008166316 4.3931636e-11 
  580000          298 0.00031307365 4.4238159e-11 
  581000          298 0.0015708347 4.3169871e-11 
  582000          298 0.0016717538 3.8181426e-11 
  583000          298 0.0010955828 3.5306593e-11 
  584000          298  0.001090389 3.3006807e-11 
  585000          298 0.0014368183 2.8697567e-11 
  586000          298 0.0010173024 2.5053366e-11 
  587000          298 0.0006656878 2.6816323e-11 
  588000          298 0.00096681026 2.6980177e-11 
  589000          298 0.00092130767 -2.6638918e-11 
  590000          298 0.00045305074 -2.8797034e-11 
  591000          298 0.00099799628 -3.3282139e-11 
  592000          298 0.0027615361 -2.7308296e-11 
  593000          298 0.00064708901 -2.3280684e-11 
  594000          298 0.00036497877 -2.8875744e-11 
  595000          298  0.002235186 -2.5859114e-11 
  596000          298 0.00020928614 -2.7195663e-11 
  597000          298 0.0011737721 -3.3044513e-11 
  598000          298 0.0016794838 -2.9260106e-11 
  599000          298 0.00064470728 -2.9174728e-11 
  600000          298 0.00012013478 -3.7770432e-11 
  601000          298 0.0029854811 -3.5892389e-11 
  602000          298 9.1401176e-05 -3.5412853e-11 
  603000          298 0.00059498909 -4.6232686e-11 
  604000          298 0.0026480084 -3.9179486e-11 
  605000          298 0.00072484716 -3.4148226e-11 
  606000          298  0.001307093 -4.1251065e-11 
  607000          298 0.0027261309 -3.2285053e-11 
  608000          298  0.000563372 -2.0409082e-11 
  609000          298 0.00037839695 -3.6155076e-11 
  610000          298 0.00096098688 -5.0303578e-11 
  611000          298 0.0019464501 -3.8137095e-11 
  612000          298 0.00064849735 -4.3076407e-11 
  613000          298 0.00021032009 -7.1178763e-11 
  614000          298 0.0015588298 -9.4108651e-11 
  615000          298 3.9112943e-05 -1.5151352e-10 
  616000          298 0.00021777347 -3.6350876e-10 
  617000          298 0.0016957656 -3.3898312e-09 
  618000          298 0.00055664062 4.636476e-10 
  619000          298 0.00015452235 2.5380116e-10 
  620000          298 0.0012517011  1.92421e-10 
  621000          298 0.0026312562 9.5735226e-11 
  622000          298 0.00075265739 5.8533591e-11 
  623000          298 0.00068688128 6.0763495e-11 
  624000          298 0.0027625917 3.5399397e-11 
  625000          298 5.5709855e-05 2.9335192e-11 
  626000          298 0.00056529033 3.7567358e-11 
  627000          298 0.0025932285 2.2530499e-11 
  628000          298 0.00014164216 1.9213144e-11 
  629000          298 0.00044570765 2.6195594e-11 
  630000          298 0.0013490886 2.4224981e-11 
  631000          298 0.0011304583 1.7995585e-11 
  632000          298 0.0001520582 2.2000248e-11 
  633000          298 0.0015118697 2.1045519e-11 
  634000          298 0.00067143379 1.8789932e-11 
  635000          298 1.412867e-05 2.199724e-11 
  636000          298 0.0020678064 2.256914e-11 
  637000          298 0.0021562056 1.0826703e-11 
  638000          298 0.00029541942 8.8531069e-12 
  639000          298 0.0013004606 -1.1345762e-11 
  640000          298 0.0015859038 -3.8813963e-12 
  641000          298 0.00011326322 -7.5572387e-12 
  642000          298 0.0010301116 -1.2679801e-11 
  643000          298 0.0014910724 -6.7485271e-12 
  644000          298 0.00020748685 -9.7513941e-12 
  645000          298 0.0009562705 -1.6109156e-11 
  646000          298 0.00069632709 -1.3406491e-11 
  647000          298 0.00043812202 -2.0988103e-11 
  648000          298 0.00060081359 -3.1344949e-11 
  649000          298 0.0017666503 -2.5729748e-11 
  650000          298 0.00081641401 -2.6419339e-11 
  651000          298 0.00088474034 -3.6023821e-11 
  652000          298 0.0022418576 -2.8013883e-11 
  653000          298 0.00082103386 -1.7509661e-11 
  654000          298 0.00090650601 -3.0874534e-11 
  655000          298 0.0014509057 -3.0226781e-11 
  656000          298 0.0007231118 -2.2627425e-11 
  657000          298 0.00029809573 -5.8591345e-11 
  658000          298  0.001401147 -9.1375763e-11 
  659000          298 0.00081725787 -2.2679989e-10 
  660000          298 0.00023176715 3.6148323e-10 
  661000          298 0.0023979017 1.0651809e-10 
  662000          298 0.00067525081 2.0018081e-11 
  663000          298 0.00011908603 3.6604858e-11 
  664000          298 0.0011425907 4.2468281e-11 
  665000          298 0.00033919314 3.5883246e-11 
  666000          298 0.00085604807 4.271004e-11 
  667000          298 0.0017131644  3.48259e-11 
  668000          298  0.000779458 2.0770027e-11 
  669000          298 0.0006004919 2.6233136e-11 
  670000          298 0.00063596906 2.5159949e-11 
  671000          298 0.00037761885 3.1119563e-11 
  672000          298 0.0011185528 3.3816769e-11 
  673000          298  0.002528676 1.8612187e-11 
  674000          298 0.00062338652 1.3838769e-11 
  675000          298 0.00061374931 1.8041852e-11 
  676000          298 0.0014752204 1.4959276e-11 
  677000          298 6.5914672e-05 1.5805478e-11 
  678000          298 0.00053008469 2.0383513e-11 
  679000          298 0.0022809939 1.7272713e-11 
  680000          298 0.00045991443 -1.2218274e-11 
  681000          298 0.00023462901 -1.9187125e-11 
  682000          298 0.0024875548 -1.4857049e-11 
  683000          298 0.0001046612 -1.6604103e-11 
  684000          298 0.0014882726 -2.2559784e-11 
  685000          298 0.0014575087 -1.4142798e-11 
  686000          298 0.00020130148 -1.8279189e-11 
  687000          298 0.00061691899 -2.8204719e-11 
  688000          298 0.0010339157 -2.9726034e-11 
  689000          298 0.00057181951 -3.651472e-11 
  690000          298 0.00035092466 -4.8498958e-11 
  691000          298  0.001460062 -5.0257194e-11 
  692000          298 0.0013820854 -4.9085186e-11 
  693000          298 0.0015839676 -4.8193543e-11 
  694000          298 0.00054075542 -6.4322828e-11 
  695000          298 0.00072574333 -9.106692e-11 
  696000          298 0.0014592577 -1.2071051e-10 
  697000          298 0.0010766884 -1.8302095e-10 
  698000          298 0.0015141397 -5.5778504e-10 
  699000          298 0.00031688082 4.6639738e-10 
  700000          298 0.00035660908 2.0328637e-10 
  701000          298 0.0014165511 1.4080114e-10 
  702000          298 0.0007007111 9.064132e-11 
  703000          298 0.0012125904 7.3608355e-11 
  704000          298 0.00063682108 5.7430593e-11 
  705000          298 0.00063262193 5.5928653e-11 
  706000          298 0.0015257428  4.73049e-11 
  707000          298 0.0012672913 3.1820767e-11 
  708000          298 0.00049935436 3.0351266e-11 
  709000          298 0.0011032666 3.2058345e-11 
  710000          298 0.00029807191 2.8879687e-11 
  711000          298 0.00038522156 3.4116256e-11 
  712000          298 0.00034159715 3.4902795e-11 
  713000          298 0.00080646036 3.7248419e-11 
  714000          298 0.00047935536 -3.8684952e-11 
  715000          298 0.00053124669 -4.6970832e-11 
  716000          298 0.0021576536 -4.9091884e-11 
  717000          298 0.0010253042 -4.4890933e-11 
  718000          298 0.0007448954 -5.2302159e-11 
  719000          298 0.00094692057 -6.1540096e-11 
  720000          298 0.0013760279 -6.3568703e-11 
  721000          298 0.00034240488 -7.55303e-11 
  722000          298 0.0012641512 -9.279998e-11 
  723000          298 0.0014539843 -1.0171259e-10 
  724000          298 0.0004196145 -1.2132245e-10 
  725000          298 0.00094103523 -1.7084214e-10 
  726000          298 0.00063523125 -2.3551967e-10 
  727000          298 0.00061471297 -4.055598e-10 
  728000          298 0.00076375982 -1.0131576e-09 
  729000          298 0.00079172476 2.904766e-09 
  730000          298 0.00050405197 6.531195e-10 
  731000          298 0.00050419298 3.728128e-10 
  732000          298 0.00034583242 2.8210186e-10 
  733000          298 0.00016442497 2.2847507e-10 
  734000          298  0.001208636 1.9708479e-10 
  735000          298 0.00032790664 1.6528497e-10 
  736000          298 0.00033087475 1.5343233e-10 
  737000          298 0.0011650643 1.4245801e-10 
  738000          298  0.000498122 1.2416072e-10 
  739000          298 0.00099828238 1.1632187e-10 
  740000          298 0.00027428836 1.1063329e-10 
  741000          298 0.0010776435 1.0515982e-10 
  742000          298 5.5281682e-05 1.0117923e-10 
  743000          298 0.00059785208 9.950179e-11 
  744000          298 0.0027188506 -9.6244266e-11 
  745000          298 0.00070999812 -9.6421276e-11 
  746000          298 0.0003345622 -1.1065699e-10 
  747000          298 0.0015225991 -1.2030009e-10 
  748000          298 0.00015626371 -1.3597726e-10 
  749000          298 0.00095111184 -1.5957362e-10 
  750000          298 0.0011755593 -1.8040835e-10 
  751000          298 0.0013626399 -1.9761095e-10 
  752000          298 0.00080258245 -2.3058595e-10 
  753000          298 0.00035915621 -2.9401368e-10 
  754000          298 0.0012691121 -3.8156572e-10 
  755000          298 0.00040560275 -5.312232e-10 
  756000          298 0.0011976886 -8.5016442e-10 
  757000          298 0.0011090039 -1.9452632e-09 
  758000          298 0.00036370806 6.5291105e-09 
  759000          298 0.00026850955 1.2894152e-09 
  760000          298 0.00078793497 7.1542013e-10 
  761000          298 0.00049839827 5.0664085e-10 
  762000          298 0.00046806274 3.9612315e-10 
  763000          298 0.00097720461 3.2828049e-10 
  764000          298 0.00037832285 2.8028217e-10 
  765000          298 0.00092469662 2.4999259e-10 
  766000          298 0.00029088749 2.2580324e-10 
  767000          298 0.00073204291 2.0893894e-10 
  768000          298 0.0001999154 1.9445233e-10 
  769000          298 0.00064461756 1.8256305e-10 
  770000          298 0.0021439152 1.5839868e-10 
  771000          298 0.00047170263 1.4277382e-10 
  772000          298 0.00038937234 -1.5129076e-10 
  773000          298 0.00020383019 -1.7384457e-10 
  774000          298 0.00026481804 -1.9858829e-10 
  775000          298 0.0008212228 -2.3144599e-10 
  776000          298 0.00075344461 -2.6391154e-10 
  777000          298 0.0008631248 -3.1681939e-10 
  778000          298 0.0010773828 -3.862572e-10 
  779000          298 0.00052375958 -4.8180087e-10 
  780000          298 0.00086083728 -6.6680987e-10 
  781000          298 0.0019158555 -9.8544446e-10 
  782000          298 0.00059408873 -2.0470343e-09 
  783000          298 0.00021510675 1.7879451e-08 
  784000          298 0.0021634037 1.7047248e-09 
  785000          298 0.0014363964 8.4641457e-10 
  786000          298 0.00017070632 5.9082499e-10 
  787000          298 0.0020990825 4.498005e-10 
  788000          298 0.0010194871 3.4193561e-10 
  789000          298 0.00020560009 2.9457795e-10 
  790000          298 0.0016382497 2.5840961e-10 
  791000          298  0.001810612 2.0644215e-10 
  792000          298 0.0002303274 1.8648735e-10 
  793000          298 0.00037910432 1.766588e-10 
  794000          298 0.0028346059 1.5188249e-10 
  795000          298 0.00011038716 -1.5733427e-10 
  796000          298 0.00029318681 -1.8278462e-10 
  797000          298 0.0030826832 -1.9513567e-10 
  798000          298 7.1383735e-05 -2.1630702e-10 
  799000          298 0.00049843015 -2.6235989e-10 
  800000          298 0.0022891347 -3.0809692e-10 
  801000          298 0.0013742441 -3.4264161e-10 
  802000          298 0.00037194697 -4.4898737e-10 
  803000          298 0.0014803014 -6.3820371e-10 
  804000          298 0.00036041091 -1.0374038e-09 
  805000          298 0.00028617224 -3.2410017e-09 
  806000          298 0.0018518532 3.4009109e-09 
  807000          298 0.00075641692 1.0732681e-09 
  808000          298 5.3768265e-05 6.7454351e-10 
  809000          298 0.0017541437 4.9065413e-10 
  810000          298 0.00061080638 3.6333554e-10 
  811000          298 0.00029458561 3.1035796e-10 
  812000          298 0.0023874823 2.5422694e-10 
  813000          298 0.00040532736 2.1271266e-10 
  814000          298 0.00025823359 1.9686641e-10 
  815000          298 0.0010231173 1.8244339e-10 
  816000          298 0.0011665924 1.6081203e-10 
  817000          298 0.00035757702 -1.6288446e-10 
  818000          298 0.00092309374 -1.8490024e-10 
  819000          298 0.00079332297 -2.0309276e-10 
  820000          298 0.00069942145 -2.3517905e-10 
  821000          298 0.00076447452 -2.7936675e-10 
  822000          298 0.00071989603 -3.2786205e-10 
  823000          298 0.00088144905 -4.0928058e-10 
  824000          298 0.00039878547 -5.3205965e-10 
  825000          298 0.0013942104 -7.5338468e-10 
  826000          298 0.00034157633 -1.2676323e-09 
  827000          298 0.00067746337 -3.8037798e-09 
  828000          298 0.00041292241 4.0915265e-09 
  829000          298 0.00044797438 1.3740976e-09 
  830000          298 0.0016745384 8.197751e-10 
  831000          298 0.00072025462 5.7489292e-10 
  832000          298 0.00052115174 4.5860158e-10 
  833000          298 0.0017030204 3.7605205e-10 
  834000          298 0.0011331029 3.0407261e-10 
  835000          298 0.00066882066 2.6780233e-10 
  836000          298 0.00072185383 2.3937959e-10 
  837000          298 0.00092513624 2.0968148e-10 
  838000          298 0.0011180274 -1.9335901e-10 
  839000          298 0.00055937058 -2.1603063e-10 
  840000          298 0.00067525539 -2.5305778e-10 
  841000          298 0.0012399668 -2.9974652e-10 
  842000          298 0.00065547107 -3.5408122e-10 
  843000          298 0.00023242361 -4.5389791e-10 
  844000          298 0.0013793803 -6.1045483e-10 
  845000          298 0.00069366021 -8.9816556e-10 
  846000          298 0.00024740522 -1.8300533e-09 
  847000          298 0.00097513228 -6.0376105e-08 
  848000          298 0.0023192611 1.9012895e-09 
  849000          298 0.00015970732 9.3108941e-10 
  850000          298 0.00092148028 6.3709161e-10 
  851000          298 0.0019040245 4.5063198e-10 
  852000          298 3.9348821e-05 3.675996e-10 
  853000          298 0.0019465437 3.1202287e-10 
  854000          298 0.00058367708 2.5447129e-10 
  855000          298 0.00049982042 2.3076494e-10 
  856000          298 0.0025785957 1.9639152e-10 
  857000          298 0.00066384182 -2.0835392e-10 
  858000          298 0.00056845596 -2.4724277e-10 
  859000          298 0.0027752667 -2.7919934e-10 
  860000          298 0.00087789537 -3.1079347e-10 
  861000          298 0.0002372682 -4.0453158e-10 
  862000          298 0.0016969019 -5.5068325e-10 
  863000          298 0.00094234205 -7.7791648e-10 
  864000          298 0.00044498104 -1.6024123e-09 
  865000          298 0.00073548337 -2.3319079e-07 
  866000          298 0.00041328712 1.6970963e-09 
  867000          298 0.0011741453 8.6266944e-10 
  868000          298 0.0020821443 5.3997382e-10 
  869000          298 0.00033589767 4.0209284e-10 
  870000          298 0.00083175777 3.334542e-10 
  871000          298 0.0007431792 2.7705899e-10 
  872000          298 0.00039441237 2.4454882e-10 
  873000          298 0.0010363692 2.1433374e-10 
  874000          298 0.0011029682 -1.9760794e-10 
  875000          298 0.00031926639 -2.2758749e-10 
  876000          298 0.0010831607 -2.6572152e-10 
  877000          298 0.00052749038 -3.1785553e-10 
  878000          298 0.00083843583 -3.8848946e-10 
  879000          298 8.5828996e-05 -5.1164143e-10 
  880000          298 0.00066361511 -7.2876718e-10 
  881000          298 0.0031296705 -1.1218416e-09 
  882000          298 0.00086218486 -2.7541498e-09 
  883000          298 0.00022783969 4.4909622e-09 
  884000          298 0.0017088856 1.2730277e-09 
  885000          298 0.00079467063 7.0890831e-10 
  886000          298 0.00040963612 5.1768417e-10 
  887000          298 0.0012653419 4.0893866e-10 
  888000          298   0.00162963 3.1500352e-10 
  889000          298 0.00019456684 2.7056244e-10 
  890000          298 0.0015815288 2.3883788e-10 
  891000          298 0.0013476393 1.9914773e-10 
  892000          298 0.00057126432 -2.1241937e-10 
  893000          298 0.0017889438 -2.3925578e-10 
  894000          298 0.0013965074 -2.6624998e-10 
  895000          298 0.00023646043 -3.2898903e-10 
  896000          298 0.0023679322 -4.0877719e-10 
  897000          298 0.00096105935 -5.1326744e-10 
  898000          298 0.00018465699 -8.5247016e-10 
  899000          298 0.00083770144 -2.4577106e-09 
  900000          298 0.0015096313 3.0513691e-09 
  901000          298 7.3326729e-05 9.4851503e-10 
  902000          298 0.0011311884 5.8003131e-10 
  903000          298 0.0019480193 3.763036e-10 
  904000          298 0.00014375006 2.9479032e-10 
  905000          298 0.0011793524 2.4590339e-10 
  906000          298  0.002458604 1.9337754e-10 
  907000          298 0.00010765478 1.6433836e-10 
  908000          298 0.0004638423 -1.9920772e-10 
  909000          298   0.00181539 -2.3870449e-10 
  910000          298 0.0014424933 -2.6886727e-10 
  911000          298 0.00047720834 -3.5400806e-10 
  912000          298 0.00035136741 -5.3071409e-10 
  913000          298 0.0028010677 -8.6158093e-10 
  914000          298 0.0012104799 -2.6940227e-09 
  915000          298 0.00011330103 1.9916104e-09 
  916000          298 0.0025309916 7.3127539e-10 
  917000          298 0.00053222685 4.2525952e-10 
  918000          298 0.00033225096 3.2721322e-10 
  919000          298 0.0013601394 2.5773357e-10 
  920000          298 0.0013560227 1.9825786e-10 
  921000          298 6.9100886e-05 1.7468131e-10 
  922000          298 0.0010330629 -1.7036651e-10 
  923000          298 0.0013676724 -1.8497836e-10 
  924000          298 1.6388176e-05 -2.3220293e-10 
  925000          298 0.0012155586 -2.9990014e-10 
  926000          298 0.0010545075 -3.7743559e-10 
  927000          298 2.8824618e-05 -5.8894157e-10 
  928000          298 0.0013018229 -1.2149332e-09 
  929000          298 0.0012044938 -1.1377366e-07 
  930000          298 0.00037535397 1.1974914e-09 
  931000          298 0.00063099673 6.2235596e-10 
  932000          298  0.001037231 4.0955565e-10 
  933000          298 0.00033550006 3.1698283e-10 
  934000          298 0.0014613253 2.5763737e-10 
  935000          298 0.0014003948 2.0668908e-10 
  936000          298 0.0002250874 1.7894164e-10 
  937000          298  0.001200251 -2.0198981e-10 
  938000          298 0.00097183249 -2.3490977e-10 
  939000          298 0.00044794019 -2.94527e-10 
  940000          298 0.0004152069 -4.0179202e-10 
  941000          298 0.0011526912 -5.6110671e-10 
  942000          298 0.00030696862 -1.0042799e-09 
  943000          298 0.00026571847 -3.7934539e-09 
  944000          298 0.0017704331 2.2924883e-09 
  945000          298  0.001312236 8.4893245e-10 
  946000          298 0.0014535526 5.1961958e-10 
  947000          298 0.00088023508 3.7748059e-10 
  948000          298 0.0018423399 2.8956487e-10 
  949000          298 0.00073125942 2.2420098e-10 
  950000          298 0.00042834897 2.0019875e-10 
  951000          298 0.00062298096 -2.1030957e-10 
  952000          298 0.0011252425 -2.4003389e-10 
  953000          298 0.00030909011 -3.035634e-10 
  954000          298 0.00079940617 -3.9801468e-10 
  955000          298 0.0018063788 -5.4067988e-10 
  956000          298 0.00027085765 -9.4993713e-10 
  957000          298 0.0010263316 -4.2675098e-09 
  958000          298 0.0014450248 1.7760405e-09 
  959000          298 0.00025789141 7.2855768e-10 
  960000          298 0.0004361746 4.8367192e-10 
  961000          298  0.001611769 3.482319e-10 
  962000          298 0.00084887514 2.6782486e-10 
  963000          298 0.00042350483 2.2934796e-10 
  964000          298  0.001875437 -2.2479669e-10 
  965000          298 0.00078772011 -2.6641137e-10 
  966000          298  0.000237578 -3.4423065e-10 
  967000          298 0.00072941872 -4.8834952e-10 
  968000          298 0.00030567563 -7.8577283e-10 
  969000          298 0.00063696632 -1.9716229e-09 
  970000          298 0.0010359155 4.9631842e-09 
  971000          298 0.0014942059 1.0688007e-09 
  972000          298 0.00086386258 5.9843997e-10 
  973000          298 0.00017888948 4.2817359e-10 
  974000          298 0.0016952579 3.3208281e-10 
  975000          298 0.00071684758 2.6689568e-10 
  976000          298 0.00047424114 -2.3972452e-10 
  977000          298 0.0018683619 -2.8555347e-10 
  978000          298 0.00086773533 -3.4753359e-10 
  979000          298 0.00091806852 -4.6722599e-10 
  980000          298 0.00035602437 -7.2531137e-10 
  981000          298 0.0011296411 -1.5092969e-09 
  982000          298 0.00076799752 4.0408673e-08 
  983000          298 0.00030241323 1.4424747e-09 
  984000          298 0.00074100183 7.5584538e-10 
  985000          298 0.00066493289 5.0171088e-10 
  986000          298 0.0005609741 3.8794272e-10 
  987000          298 0.00043173512 3.1571558e-10 
  988000          298 0.00078221351 2.7083092e-10 
  989000          298 0.00057651275 -3.2869574e-10 
  990000          298 0.0015389444 -4.0347915e-10 
  991000          298 0.0010086927 -5.2870175e-10 
  992000          298 0.00032167641 -8.0616314e-10 
  993000          298 0.00080685502 -1.5982461e-09 
  994000          298 0.00019272586 -2.7343844e-08 
  995000          298 0.0017931919 1.8657511e-09 
  996000          298 0.0019242685 8.6869682e-10 
  997000          298 0.0012038485 5.5989358e-10 
  998000          298 0.0009356712 4.138557e-10 
  999000          298 0.0015723576 3.2204484e-10 
 1000000          298 0.00095484368 2.5670585e-10 
Loop time of 967.301 on 1 procs for 1000000 steps with 2431 atoms

Performance: 89.321 ns/day, 0.269 hours/ns, 1033.805 timesteps/s
100.0% CPU use with 1 MPI tasks x no OpenMP threads

MPI task timing breakdown:
Section |  min time  |  avg time  |  max time  |%varavg| %total
---------------------------------------------------------------
Pair    | 19.593     | 19.593     | 19.593     |   0.0 |  2.03
Bond    | 755.6      | 755.6      | 755.6      |   0.0 | 78.11
Neigh   | 94.388     | 94.388     | 94.388     |   0.0 |  9.76
Comm    | 61.898     | 61.898     | 61.898     |   0.0 |  6.40
Output  | 1.0804     | 1.0804     | 1.0804     |   0.0 |  0.11
Modify  | 16.356     | 16.356     | 16.356     |   0.0 |  1.69
Other   |            | 18.38      |            |       |  1.90

Nlocal:    2431 ave 2431 max 2431 min
Histogram: 1 0 0 0 0 0 0 0 0 0
Nghost:    16166 ave 16166 max 16166 min
Histogram: 1 0 0 0 0 0 0 0 0 0
Neighs:    1170 ave 1170 max 1170 min
Histogram: 1 0 0 0 0 0 0 0 0 0

Total # of neighbors = 1170
Ave neighs/atom = 0.481283
Ave special neighs/atom = 6.58988
Neighbor list builds = 1326
Dangerous builds = 0
unfix           3
#unfix           4
unfix           5
undump          NiPyC2_experiment_with_Xe_xyzmov


### NOTE:
# These fixes are overkill if you simply want to hold a collection of atoms stationary.
# A simpler way to hold atoms stationary is to not include those atoms in your time integration.
#
# The force and torque keywords discussed next are only allowed for the rigid styles
# An xflag, yflag, or zflag set to off means turn off the component of force of torque in that dimension.
#  if you expect a rigid body not to move or rotate by using these keywords, you must insure its initial
# center-of-mass translational or angular velocity is 0.0.
# Otherwise the initial translational or angular momentum the body has will persist.
###
Total wall time: 0:16:50
