Created on Wed Jan 04 05:12:39 2017 

        3000 atoms
        3600 bonds
        9792 angles
        8784 dihedrals
         432 impropers

           7 atom types
          20 bond types
         111 angle types
           6 dihedral types
           1 improper types
           0.000000  29.526800 xlo xhi
           0.000000  27.263801 ylo yhi
           0.000000  35.416715 zlo zhi
           0.000000   0.000000 -20.447850 xy xz yz

Masses

    1   144.242000000 # Nd6+3
    2    63.546000000 # Cu3+1
    3     1.007940000 # H_
    4    12.010700000 # C_R
    5    12.010700000 # C_3
    6    14.006700000 # N_3
    7    15.999400000 # O_R

Bond Coeffs

    1      135.795327        2.979515  # Nd6+3 C_R
    2      201.984901        2.737487  # Nd6+3 O_R
    3      201.984901        2.481148  # Nd6+3 O_R
    4      135.795327        2.979545  # Nd6+3 C_R
    5      201.984901        2.375842  # Nd6+3 O_R
    6      201.984901        2.737608  # Nd6+3 O_R
    7      201.984901        2.481180  # Nd6+3 O_R
    8      201.984901        2.375834  # Nd6+3 O_R
    9      201.984901        2.737592  # Nd6+3 O_R
   10      201.984901        2.481249  # Nd6+3 O_R
   11      201.984901        2.375927  # Nd6+3 O_R
   12      135.795327        2.979431  # Nd6+3 C_R
   13      190.026252        1.965014  # Cu3+1 O_R
   14      193.285137        2.000725  # Cu3+1 N_3
   15      527.945261        1.044419  # H_ N_3
   16      331.069389        1.109401  # H_ C_3
   17      369.943935        1.486000  # C_R C_3
   18      646.680887        1.311940  # C_R O_R
   19      349.795899        1.514000  # C_3 C_3
   20      528.634538        1.451071  # C_3 N_3

Angle Coeffs

    1                      fourier       37.190867        0.394755       -0.479853        0.298252 # O_R Nd6+3 O_R
    2                      fourier       90.113755        0.818018       -1.153667        0.439339 # O_R Nd6+3 O_R
    3                      fourier        4.398585        0.262050        0.127768        0.254017 # C_R Nd6+3 C_R
    4                      fourier        2.779590       13.106724       17.635212        4.535575 # C_R Nd6+3 O_R
    5                      fourier        8.163379        0.250024       -0.005678        0.250008 # O_R Nd6+3 C_R
    6                      fourier       37.191999        0.394738       -0.479819        0.298246 # O_R Nd6+3 O_R
    7                      fourier        4.398482        0.262042        0.127723        0.254014 # C_R Nd6+3 C_R
    8                      fourier       19.056601        0.253367       -0.067148        0.251122 # O_R Nd6+3 O_R
    9                      fourier       37.189656        0.394777       -0.479894        0.298259 # O_R Nd6+3 O_R
   10                      fourier       32.074715        0.264265       -0.139218        0.254755 # O_R Nd6+3 O_R
   11                      fourier       13.073741        0.257546       -0.100807        0.252515 # C_R Nd6+3 O_R
   12                      fourier       90.112998        0.818032       -1.153687        0.439344 # O_R Nd6+3 O_R
   13                      fourier        6.540305        0.570606        0.781159        0.356869 # O_R Nd6+3 O_R
   14                      fourier       18.001714        0.319555       -0.318341        0.273185 # O_R Nd6+3 C_R
   15                      fourier        3.565773        0.531714        0.718824        0.343905 # O_R Nd6+3 C_R
   16                      fourier        3.565782        0.531717        0.718828        0.343906 # O_R Nd6+3 C_R
   17                      fourier        8.163405        0.250024       -0.005673        0.250008 # C_R Nd6+3 O_R
   18                      fourier        2.779593       13.098810       17.624656        4.532937 # C_R Nd6+3 O_R
   19                      fourier       32.015274        0.330055       -0.343704        0.276685 # O_R Nd6+3 O_R
   20                      fourier        2.779571       13.106315       17.634667        4.535438 # O_R Nd6+3 C_R
   21                      fourier       10.032930        0.497183        0.661966        0.332394 # O_R Nd6+3 O_R
   22                      fourier       10.033108        0.497273        0.662116        0.332424 # O_R Nd6+3 O_R
   23                      fourier      346.331896        3.829752       -5.249244        1.443251 # O_R Nd6+3 C_R
   24                      fourier      346.313544        3.830001       -5.249577        1.443334 # C_R Nd6+3 O_R
   25                      fourier        9.141481        0.258200        0.105134        0.252733 # C_R Nd6+3 O_R
   26                      fourier        6.034554        2.873673        3.966844        1.124558 # O_R Nd6+3 O_R
   27                      fourier       32.074639        0.264266       -0.139221        0.254755 # O_R Nd6+3 O_R
   28                      fourier       32.017473        0.330021       -0.343625        0.276674 # O_R Nd6+3 O_R
   29                      fourier        6.034534        2.872578        3.965372        1.124193 # O_R Nd6+3 O_R
   30                      fourier      302.507906        3.902545       -5.346732        1.467515 # O_R Nd6+3 C_R
   31                      fourier       27.050864        0.258751       -0.108644        0.252917 # O_R Nd6+3 O_R
   32                      fourier        9.141376        0.258197        0.105115        0.252732 # C_R Nd6+3 O_R
   33                      fourier       27.050659        0.258752       -0.108654        0.252917 # O_R Nd6+3 O_R
   34                      fourier        6.871212        0.290606        0.238898        0.263535 # C_R Nd6+3 O_R
   35                      fourier      346.304487        3.830081       -5.249684        1.443360 # C_R Nd6+3 O_R
   36                      fourier       19.057614        0.253359       -0.067076        0.251120 # O_R Nd6+3 O_R
   37                      fourier       32.016154        0.330040       -0.343671        0.276680 # O_R Nd6+3 O_R
   38                      fourier       18.002319        0.319541       -0.318305        0.273180 # O_R Nd6+3 C_R
   39                      fourier       19.056960        0.253364       -0.067122        0.251121 # O_R Nd6+3 O_R
   40                      fourier        6.034541        2.872406        3.965141        1.124135 # O_R Nd6+3 O_R
   41                      fourier      302.476885        3.902882       -5.347183        1.467627 # C_R Nd6+3 O_R
   42                      fourier        8.163123        0.250025       -0.005725        0.250008 # C_R Nd6+3 O_R
   43                      fourier        4.638669        3.081287        4.245710        1.193762 # O_R Nd6+3 O_R
   44                      fourier       10.032897        0.497171        0.661946        0.332390 # O_R Nd6+3 O_R
   45                      fourier       27.049376        0.258762       -0.108716        0.252921 # O_R Nd6+3 O_R
   46                      fourier       18.001493        0.319562       -0.318357        0.273187 # C_R Nd6+3 O_R
   47                      fourier       25.773690        0.264067       -0.138233        0.254689 # O_R Nd6+3 O_R
   48                      fourier        4.638653        3.082108        4.246811        1.194036 # O_R Nd6+3 O_R
   49                      fourier      302.479752        3.902917       -5.347231        1.467639 # C_R Nd6+3 O_R
   50                      fourier        6.366614        0.390451        0.471526        0.296817 # O_R Nd6+3 O_R
   51                      fourier       32.075549        0.264258       -0.139185        0.254753 # O_R Nd6+3 O_R
   52                      fourier        3.565742        0.531658        0.718734        0.343886 # C_R Nd6+3 O_R
   53                      fourier       90.119546        0.817948       -1.153566        0.439316 # O_R Nd6+3 O_R
   54                      fourier       25.773173        0.264072       -0.138258        0.254691 # O_R Nd6+3 O_R
   55                      fourier        4.638673        3.081813        4.246415        1.193938 # O_R Nd6+3 O_R
   56                      fourier        6.871121        0.290595        0.238865        0.263532 # C_R Nd6+3 O_R
   57                      fourier        6.366598        0.390444        0.471513        0.296815 # O_R Nd6+3 O_R
   58                      fourier        9.141766        0.258209        0.105191        0.252736 # O_R Nd6+3 C_R
   59                      fourier       13.074066        0.257541       -0.100776        0.252514 # O_R Nd6+3 C_R
   60                      fourier        6.871191        0.290605        0.238894        0.263535 # O_R Nd6+3 C_R
   61                      fourier        6.366484        0.390399        0.471425        0.296800 # O_R Nd6+3 O_R
   62                      fourier        6.540325        0.570623        0.781185        0.356874 # O_R Nd6+3 O_R
   63                      fourier        4.398558        0.262048        0.127756        0.254016 # C_R Nd6+3 C_R
   64                      fourier       13.073334        0.257552       -0.100848        0.252517 # C_R Nd6+3 O_R
   65                      fourier       25.772927        0.264075       -0.138270        0.254692 # O_R Nd6+3 O_R
   66                      fourier        6.540330        0.570645        0.781221        0.356882 # O_R Nd6+3 O_R
   67                      fourier       57.955689        0.255249        0.083947        0.251750 # O_R Cu3+1 N_3
   68              cosine/periodic       16.759206               1               1 # N_3 Cu3+1 N_3
   69                      fourier       78.716563        0.255249       -0.083947        0.251750 # N_3 Cu3+1 O_R
   70              cosine/periodic       14.989386               1               1 # O_R Cu3+1 O_R
   71                      fourier       57.955690        0.255249        0.083947        0.251750 # O_R Cu3+1 N_3
   72                      fourier       78.716567        0.255249       -0.083947        0.251750 # N_3 Cu3+1 O_R
   73              cosine/periodic       16.759208               1               1 # N_3 Cu3+1 N_3
   74                      fourier       78.716561        0.255249       -0.083947        0.251750 # O_R Cu3+1 N_3
   75              cosine/periodic       14.989385               1               1 # O_R Cu3+1 O_R
   76                      fourier       57.955691        0.255249        0.083947        0.251750 # O_R Cu3+1 N_3
   77              cosine/periodic       16.759207               1               1 # N_3 Cu3+1 N_3
   78              cosine/periodic      130.962624              -1               3 # C_3 C_R O_R
   79              cosine/periodic       25.818199              -1               3 # Nd6+3 C_R O_R
   80              cosine/periodic       17.692846              -1               3 # Nd6+3 C_R C_3
   81              cosine/periodic      217.450257              -1               3 # O_R C_R O_R
   82                      fourier      105.465539        0.343737        0.374972        0.281246 # N_3 C_3 H_
   83                      fourier       73.868412        0.343737        0.374972        0.281246 # C_R C_3 H_
   84                      fourier      138.055467        0.343737        0.374972        0.281246 # N_3 C_3 C_3
   85                      fourier       97.888497        0.343737        0.374972        0.281246 # C_3 C_3 C_R
   86                      fourier       69.847816        0.343737        0.374972        0.281246 # C_3 C_3 H_
   87                      fourier      144.801898        0.343737        0.374972        0.281246 # N_3 C_3 C_R
   88                      fourier       61.342703        0.343737        0.374972        0.281246 # H_ C_3 H_
   89              cosine/periodic       25.815646              -1               3 # O_R C_R Nd6+3
   90              cosine/periodic       17.691158              -1               3 # Nd6+3 C_R C_3
   91              cosine/periodic       17.690554              -1               3 # Nd6+3 C_R C_3
   92              cosine/periodic       25.814733              -1               3 # Nd6+3 C_R O_R
   93                      fourier      123.892715        0.317506        0.313225        0.272502 # C_3 N_3 C_3
   94                      fourier       46.560655        0.317506        0.313225        0.272502 # C_3 N_3 Cu3+1
   95                      fourier       30.218997        0.317506        0.313225        0.272502 # Cu3+1 N_3 H_
   96                      fourier       95.475092        0.317506        0.313225        0.272502 # C_3 N_3 H_
   97                      fourier       46.560658        0.317506        0.313225        0.272502 # C_3 N_3 Cu3+1
   98                      fourier       30.218999        0.317506        0.313225        0.272502 # Cu3+1 N_3 H_
   99                      fourier       46.560657        0.317506        0.313225        0.272502 # C_3 N_3 Cu3+1
  100                      fourier       30.218998        0.317506        0.313225        0.272502 # H_ N_3 Cu3+1
  101              cosine/periodic       33.858652              -1               3 # Nd6+3 O_R C_R
  102              cosine/periodic       47.915964              -1               3 # Nd6+3 O_R C_R
  103              cosine/periodic       55.244704              -1               3 # Cu3+1 O_R C_R
  104              cosine/periodic       55.635223              -1               3 # Nd6+3 O_R C_R
  105              cosine/periodic       33.853288              -1               3 # Nd6+3 O_R C_R
  106              cosine/periodic       47.913791              -1               3 # Nd6+3 O_R C_R
  107              cosine/periodic       55.244703              -1               3 # Cu3+1 O_R C_R
  108              cosine/periodic       55.635856              -1               3 # Nd6+3 O_R C_R
  109              cosine/periodic       33.853965              -1               3 # C_R O_R Nd6+3
  110              cosine/periodic       47.909172              -1               3 # C_R O_R Nd6+3
  111              cosine/periodic       55.628397              -1               3 # Nd6+3 O_R C_R

Dihedral Coeffs

    1        0.062500               1               3 # Nd6+3 C_R C_3 H_
    2        1.684278              -1               2 # C_3 C_R O_R Nd6+3
    3        0.066219               1               3 # N_3 C_3 C_3 H_
    4        0.030516               1               3 # H_ C_3 N_3 C_3
    5        0.416667              -1               2 # H_ C_3 C_R O_R
    6        2.245703              -1               2 # C_3 C_R O_R Cu3+1

Improper Coeffs

    1        2.000000        1.000000       -1.000000        0.000000               0 # C_3 C_R O_R O_R

Pair Coeffs

    1        0.010000        3.184963 # Nd6+3 Nd6+3
    2        0.005000        3.113691 # Cu3+1 Cu3+1
    3        0.044000        2.571134 # H_ H_
    4        0.105000        3.430851 # C_R C_R
    5        0.105000        3.430851 # C_3 C_3
    6        0.069000        3.260689 # N_3 N_3
    7        0.060000        3.118146 # O_R O_R

Atoms

       1      444        1     2.30450    2.50919    0.00000    7.87030
       2      444        1     2.30450    4.87251    6.81595    3.93527
       3      444        2     0.84274    0.00000    3.40798    5.90279
       4      444        2     0.84275    0.00000   -3.40797    5.90279
       5      444        2     0.84276    0.00000    6.81595    0.00000
       6      444        3     0.26827    6.34974    2.61324    3.83917
       7      444        3     0.07651    7.02812    0.40623    4.12251
       8      444        3     0.08120    5.65881    0.59503    5.33258
       9      444        3     0.10888    4.74200    1.01081    3.31146
      10      444        3     0.12665    3.98390    2.24722    3.90646
      11      444        3     0.12193    3.65468    0.80360    4.42119
      12      444        3     0.13236    7.36251    1.43953    2.45792
      13      444        3     0.11903    0.69831    0.10292    2.85105
      14      444        3     0.10478    1.47265    1.46270    2.93959
      15      444        3     0.26827    6.34974    8.83415    7.62286
      16      444        3     0.07651    7.02812   -3.44887    9.39251
      17      444        3     0.08121    5.65881   -2.49532    8.62397
      18      444        3     0.10888    4.74200   -4.45354    9.27446
      19      444        3     0.12664    3.98390   -4.55646    7.90619
      20      444        3     0.12193    3.65468   -3.38889    8.89904
      21      444        3     0.13235    7.36251    8.22481    9.32994
      22      444        3     0.11903    0.69831   -4.39833   10.29092
      23      444        3     0.10478    1.47265   -5.00154    9.06904
      24      444        3     0.26826    6.34974    9.00046    0.34354
      25      444        3     0.07650    7.02812    3.04264   10.09612
      26      444        3     0.08120    5.65881    1.90029    9.65460
      27      444        3     0.10888    4.74200    3.44274   11.02522
      28      444        3     0.12665    3.98390    2.30924   11.79849
      29      444        3     0.12193    3.65468    2.58529   10.29092
      30      444        3     0.13235    7.36251   10.78351    0.01771
      31      444        3     0.11903    0.69831    4.29541   10.46918
      32      444        3     0.10478    1.47265    3.53884   11.60252
      33      444        3     0.26826    1.03196    4.20272    7.96640
      34      444        3     0.07650    0.35358    6.40972    7.68307
      35      444        3     0.08120    1.72289    6.22092    6.47300
      36      444        3     0.10888    2.63970    5.80514    8.49411
      37      444        3     0.12665    3.39780    4.56873    7.89911
      38      444        3     0.12193    3.72702    6.01235    7.38439
      39      444        3     0.13235    0.01919    5.37642    9.34765
      40      444        3     0.11903    6.68339    6.71303    8.95453
      41      444        3     0.10478    5.90905    5.35325    8.86598
      42      444        3     0.26826    1.03196   -2.01820    4.18271
      43      444        3     0.07651    0.35358   10.26482    2.41306
      44      444        3     0.08121    1.72289    9.31127    3.18160
      45      444        3     0.10888    2.63970   11.26949    2.53111
      46      444        3     0.12664    3.39780   11.37241    3.89938
      47      444        3     0.12194    3.72702   10.20484    2.90653
      48      444        3     0.13235    0.01919   -1.40886    2.47563
      49      444        3     0.11903    6.68339   11.21428    1.51465
      50      444        3     0.10478    5.90905   11.81749    2.73653
      51      444        3     0.26826    1.03196   -2.18451   11.46203
      52      444        3     0.07650    0.35358    3.77331    1.70945
      53      444        3     0.08120    1.72289    4.91566    2.15098
      54      444        3     0.10888    2.63970    3.37321    0.78035
      55      444        3     0.12665    3.39780    4.50671    0.00708
      56      444        3     0.12194    3.72702    4.23066    1.51465
      57      444        3     0.13235    0.01919   -3.96756   11.78786
      58      444        3     0.11902    6.68339    2.52054    1.33639
      59      444        3     0.10478    5.90905    3.27711    0.20306
      60      444        4     0.62151    1.02089    0.65569    5.37390
      61      444        5     0.09582    0.26057    1.16894    4.15438
      62      444        5     0.02690    5.38864    1.51859    5.14723
      63      444        4     0.71702    5.05130    2.08227    6.51077
      64      444        5    -0.34029    4.35151    1.38296    4.10480
      65      444        5    -0.36943    0.62006    1.03807    3.05174
      66      444        4     0.62151    1.02089   -2.48987    8.55078
      67      444        5     0.09582    0.26057   -3.80262    8.71605
      68      444        5     0.02690    5.38864   -3.11762    7.91682
      69      444        4     0.71703    5.05130   -2.21859    6.74688
      70      444        5    -0.34029    4.35151   -3.95257    8.55550
      71      444        5    -0.36943    0.62006   -4.69210    9.38071
      72      444        4     0.62151    1.02089    1.83417    9.68647
      73      444        5     0.09582    0.26057    2.63368   10.74071
      74      444        5     0.02690    5.38864    1.59902   10.54710
      75      444        4     0.71702    5.05130    0.13632   10.35349
      76      444        5    -0.34029    4.35151    2.56961   10.95085
      77      444        5    -0.36943    0.62006    3.65403   11.17870
      78      444        4     0.62151    6.36081    6.16026    6.43168
      79      444        5     0.09582    7.12113    5.64701    7.65119
      80      444        5     0.02690    1.99306    5.29736    6.65834
      81      444        4     0.71702    2.33040    4.73368    5.29480
      82      444        5    -0.34030    3.03019    5.43299    7.70077
      83      444        5    -0.36943    6.76164    5.77788    8.75383
      84      444        4     0.62151    6.36081    9.30582    3.25480
      85      444        5     0.09582    7.12113   10.61857    3.08952
      86      444        5     0.02690    1.99306    9.93357    3.88876
      87      444        4     0.71703    2.33040    9.03454    5.05869
      88      444        5    -0.34029    3.03019   10.76852    3.25007
      89      444        5    -0.36943    6.76164   11.50805    2.42486
      90      444        4     0.62151    6.36081    4.98178    2.11910
      91      444        5     0.09582    7.12113    4.18227    1.06486
      92      444        5     0.02691    1.99306    5.21693    1.25847
      93      444        4     0.71702    2.33040    6.67963    1.45209
      94      444        5    -0.34030    3.03019    4.24634    0.85472
      95      444        5    -0.36943    6.76164    3.16192    0.62688
      96      444        6    -0.42584    6.59924    2.13476    4.57253
      97      444        6    -0.42585    6.59924   -3.92340    7.67055
      98      444        6    -0.42584    6.59924    1.78864   11.36806
      99      444        6    -0.42584    0.78246    4.68119    7.23304
     100      444        6    -0.42585    0.78246   10.73935    4.13502
     101      444        6    -0.42584    0.78246    5.02731    0.43751
     102      444        7    -0.63513    1.79228   -0.30719    5.24628
     103      444        7    -0.72575    0.89392    1.25448    6.46556
     104      444        7    -0.56600    5.81161    2.96923    6.99988
     105      444        7    -0.72792    4.05698    1.62560    7.09161
     106      444        7    -0.63512    1.79228   -2.11894    9.44847
     107      444        7    -0.72576    0.89392   -1.84385    7.48639
     108      444        7    -0.56601    5.81161   -2.23849    5.73420
     109      444        7    -0.72793    4.05698   -1.48724    6.85195
     110      444        7    -0.63514    1.79228    2.42614    8.91639
     111      444        7    -0.72576    0.89392    0.58938    9.65920
     112      444        7    -0.56601    5.81161   -0.73074   10.87706
     113      444        7    -0.72793    4.05698   -0.13836    9.66758
     114      444        7    -0.63513    5.58942    7.12315    6.55929
     115      444        7    -0.72575    6.48778    5.56147    5.34001
     116      444        7    -0.56600    1.57009    3.84672    4.80569
     117      444        7    -0.72792    3.32472    5.19035    4.71396
     118      444        7    -0.63512    5.58942    8.93489    2.35710
     119      444        7    -0.72576    6.48778    8.65980    4.31919
     120      444        7    -0.56601    1.57009    9.05444    6.07137
     121      444        7    -0.72793    3.32472    8.30319    4.95362
     122      444        7    -0.63514    5.58942    4.38981    2.88918
     123      444        7    -0.72576    6.48778    6.22657    2.14637
     124      444        7    -0.56601    1.57009    7.54669    0.92851
     125      444        7    -0.72793    3.32472    6.95431    2.13799
     126      444        1     2.30450    2.50919   -6.81595   19.67587
     127      444        1     2.30450    4.87251    0.00000   15.74084
     128      444        2     0.84274    0.00000   -3.40797   17.70836
     129      444        2     0.84275    0.00000  -10.22392   17.70836
     130      444        2     0.84276    0.00000    0.00000   11.80557
     131      444        3     0.26827    6.34974   -4.20271   15.64474
     132      444        3     0.07651    7.02812   -6.40972   15.92808
     133      444        3     0.08120    5.65881   -6.22092   17.13815
     134      444        3     0.10888    4.74200   -5.80514   15.11703
     135      444        3     0.12665    3.98390   -4.56873   15.71204
     136      444        3     0.12193    3.65468   -6.01235   16.22676
     137      444        3     0.13236    7.36251   -5.37642   14.26349
     138      444        3     0.11903    0.69831   -6.71303   14.65662
     139      444        3     0.10478    1.47265   -5.35325   14.74516
     140      444        3     0.26827    6.34974    2.01820   19.42843
     141      444        3     0.07651    7.02812  -10.26482   21.19808
     142      444        3     0.08121    5.65881   -9.31127   20.42954
     143      444        3     0.10888    4.74200  -11.26949   21.08003
     144      444        3     0.12664    3.98390  -11.37241   19.71176
     145      444        3     0.12193    3.65468  -10.20484   20.70461
     146      444        3     0.13235    7.36251    1.40886   21.13552
     147      444        3     0.11903    0.69831  -11.21428   22.09649
     148      444        3     0.10478    1.47265  -11.81749   20.87461
     149      444        3     0.26826    6.34974    2.18451   12.14911
     150      444        3     0.07650    7.02812   -3.77331   21.90170
     151      444        3     0.08120    5.65881   -4.91566   21.46017
     152      444        3     0.10888    4.74200   -3.37321   22.83080
     153      444        3     0.12665    3.98390   -4.50671   23.60406
     154      444        3     0.12193    3.65468   -4.23066   22.09649
     155      444        3     0.13235    7.36251    3.96756   11.82328
     156      444        3     0.11903    0.69831   -2.52054   22.27475
     157      444        3     0.10478    1.47265   -3.27711   23.40809
     158      444        3     0.26826    1.03196   -2.61323   19.77197
     159      444        3     0.07650    0.35358   -0.40623   19.48864
     160      444        3     0.08120    1.72289   -0.59503   18.27857
     161      444        3     0.10888    2.63970   -1.01080   20.29968
     162      444        3     0.12665    3.39780   -2.24722   19.70468
     163      444        3     0.12193    3.72702   -0.80360   19.18996
     164      444        3     0.13235    0.01919   -1.43953   21.15322
     165      444        3     0.11903    6.68339   -0.10292   20.76010
     166      444        3     0.10478    5.90905   -1.46270   20.67156
     167      444        3     0.26826    1.03196   -8.83415   15.98829
     168      444        3     0.07651    0.35358    3.44887   14.21863
     169      444        3     0.08121    1.72289    2.49532   14.98717
     170      444        3     0.10888    2.63970    4.45354   14.33669
     171      444        3     0.12664    3.39780    4.55646   15.70495
     172      444        3     0.12194    3.72702    3.38889   14.71210
     173      444        3     0.13235    0.01919   -8.22481   14.28120
     174      444        3     0.11903    6.68339    4.39833   13.32023
     175      444        3     0.10478    5.90905    5.00154   14.54210
     176      444        3     0.26826    1.03196   -9.00046   23.26760
     177      444        3     0.07650    0.35358   -3.04264   13.51502
     178      444        3     0.08120    1.72289   -1.90029   13.95655
     179      444        3     0.10888    2.63970   -3.44274   12.58592
     180      444        3     0.12665    3.39780   -2.30924   11.81266
     181      444        3     0.12194    3.72702   -2.58529   13.32023
     182      444        3     0.13235    0.01919  -10.78351   23.59344
     183      444        3     0.11902    6.68339   -4.29541   13.14196
     184      444        3     0.10478    5.90905   -3.53884   12.00863
     185      444        4     0.62151    1.02089   -6.16026   17.17947
     186      444        5     0.09582    0.26057   -5.64701   15.95995
     187      444        5     0.02690    5.38864   -5.29736   16.95280
     188      444        4     0.71702    5.05130   -4.73368   18.31634
     189      444        5    -0.34029    4.35151   -5.43299   15.91037
     190      444        5    -0.36943    0.62006   -5.77788   14.85731
     191      444        4     0.62151    1.02089   -9.30582   20.35635
     192      444        5     0.09582    0.26057  -10.61857   20.52163
     193      444        5     0.02690    5.38864   -9.93357   19.72239
     194      444        4     0.71703    5.05130   -9.03454   18.55246
     195      444        5    -0.34029    4.35151  -10.76852   20.36107
     196      444        5    -0.36943    0.62006  -11.50805   21.18628
     197      444        4     0.62151    1.02089   -4.98178   21.49204
     198      444        5     0.09582    0.26057   -4.18227   22.54628
     199      444        5     0.02690    5.38864   -5.21693   22.35267
     200      444        4     0.71702    5.05130   -6.67963   22.15906
     201      444        5    -0.34029    4.35151   -4.24634   22.75642
     202      444        5    -0.36943    0.62006   -3.16192   22.98427
     203      444        4     0.62151    6.36081   -0.65569   18.23725
     204      444        5     0.09582    7.12113   -1.16894   19.45676
     205      444        5     0.02690    1.99306   -1.51859   18.46391
     206      444        4     0.71702    2.33040   -2.08227   17.10037
     207      444        5    -0.34030    3.03019   -1.38296   19.50635
     208      444        5    -0.36943    6.76164   -1.03807   20.55940