units           real
atom_style      full
boundary        p p p

pair_style      lj/cut 5.000
bond_style      harmonic
angle_style     hybrid fourier cosine/periodic
dihedral_style  harmonic
improper_style  fourier

special_bonds   lj/coul 0.0 0.0 1.0
dielectric      1.0
pair_modify     tail yes mix arithmetic
box tilt        large
read_data       data.NiPyC2_relax_sc211_meta_functionalized_O-CH3
  triclinic box = (0 0 0) to (12.5056 12.5234 10.2743) with tilt (0 -0.227594 0)
  1 by 1 by 1 MPI processor grid
  reading atoms ...
  140 atoms
  scanning bonds ...
  6 = max bonds/atom
  scanning angles ...
  15 = max angles/atom
  scanning dihedrals ...
  10 = max dihedrals/atom
  scanning impropers ...
  3 = max impropers/atom
  reading bonds ...
  160 bonds
  reading angles ...
  300 angles
  reading dihedrals ...
  296 dihedrals
  reading impropers ...
  168 impropers
  6 = max # of 1-2 neighbors
  9 = max # of 1-3 neighbors
  12 = max # of special neighbors
  special bonds CPU = 0.000191038 secs
  read_data CPU = 0.00535005 secs

#### Atom Groupings ####
group           fram     id   1:140
140 atoms in group fram
#### END Atom Groupings ####

dump            NiPyC2_relax_sc211_meta_functionalized_O-CH3_xyzmov all xyz 20000 NiPyC2_relax_sc211_meta_functionalized_O-CH3_mov.xyz
dump_modify     NiPyC2_relax_sc211_meta_functionalized_O-CH3_xyzmov element Ni O N C H O C
min_style       cg
print           "MinStep,CellMinStep,AtomMinStep,FinalStep,Energy,EDiff" file NiPyC2_relax_sc211_meta_functionalized_O-CH3.min.csv screen no
variable        min_eval   equal 1.00e-06
variable        prev_E     equal 50000.00
variable        iter       loop 100000
label           loop_min
min_style       cg
fix             1 all box/relax aniso 0.0 vmax 0.01
minimize        1.0e-15 1.0e-15 10000 100000
WARNING: Using 'neigh_modify every 1 delay 0 check yes' setting during minimization (src/min.cpp:190)
Neighbor list info ...
  update every 1 steps, delay 0 steps, check yes
  max neighbors/atom: 2000, page size: 100000
  master list distance cutoff = 7
  ghost atom cutoff = 7
  binsize = 3.5, bins = 4 4 3
  1 neighbor lists, perpetual/occasional/extra = 1 0 0
  (1) pair lj/cut, perpetual
      attributes: half, newton on
      pair build: half/bin/newton/tri
      stencil: half/bin/3d/newton/tri
      bin: standard
WARNING: Inconsistent image flags (src/domain.cpp:785)
WARNING: Bond/angle/dihedral extent > half of periodic box length (src/domain.cpp:906)
Per MPI rank memory allocation (min/avg/max) = 17.52 | 17.52 | 17.52 Mbytes
Step Temp E_pair E_mol TotEng Press Volume 
       0            0    17416.407    2378.5835    19794.991    2932139.9    1609.0819 
     253            0    95.749305    1522.3623    1618.1116    245.53674    1485.8153 
WARNING: Bond/angle/dihedral extent > half of periodic box length (src/domain.cpp:906)
Loop time of 0.095165 on 1 procs for 253 steps with 140 atoms

99.4% CPU use with 1 MPI tasks x 1 OpenMP threads

Minimization stats:
  Stopping criterion = linesearch alpha is zero
  Energy initial, next-to-last, final = 
         19794.9907777      1618.11157091      1618.11157091
  Force two-norm initial, final = 156448 42.1014
  Force max component initial, final = 125270 23.2241
  Final line search alpha, max atom move = 4.58521e-12 1.06487e-10
  Iterations, force evaluations = 253 489

MPI task timing breakdown:
Section |  min time  |  avg time  |  max time  |%varavg| %total
---------------------------------------------------------------
Pair    | 0.047684   | 0.047684   | 0.047684   |   0.0 | 50.11
Bond    | 0.029248   | 0.029248   | 0.029248   |   0.0 | 30.73
Neigh   | 0.0051774  | 0.0051774  | 0.0051774  |   0.0 |  5.44
Comm    | 0.0029418  | 0.0029418  | 0.0029418  |   0.0 |  3.09
Output  | 0          | 0          | 0          |   0.0 |  0.00
Modify  | 0          | 0          | 0          |   0.0 |  0.00
Other   |            | 0.01011    |            |       | 10.63

Nlocal:    140 ave 140 max 140 min
Histogram: 1 0 0 0 0 0 0 0 0 0
Nghost:    1437 ave 1437 max 1437 min
Histogram: 1 0 0 0 0 0 0 0 0 0
Neighs:    8846 ave 8846 max 8846 min
Histogram: 1 0 0 0 0 0 0 0 0 0

Total # of neighbors = 8846
Ave neighs/atom = 63.1857
Ave special neighs/atom = 6.34286
Neighbor list builds = 8
Dangerous builds = 0
unfix           1
min_style       fire
variable        tempstp    equal $(step)
variable        tempstp    equal 253
variable        CellMinStep equal ${tempstp}
variable        CellMinStep equal 253
minimize        1.0e-15 1.0e-15 10000 100000
WARNING: Using 'neigh_modify every 1 delay 0 check yes' setting during minimization (src/min.cpp:190)
  Parameters for fire: 
    dmax delaystep dtgrow dtshrink alpha0 alphashrink tmax tmin    integrator halfstepback 
     0.1        20    1.1      0.5   0.25        0.99   10 0.02 eulerimplicit          yes 
WARNING: Inconsistent image flags (src/domain.cpp:785)
WARNING: Bond/angle/dihedral extent > half of periodic box length (src/domain.cpp:906)
Per MPI rank memory allocation (min/avg/max) = 16.4 | 16.4 | 16.4 Mbytes
Step Temp E_pair E_mol TotEng Press 
     253            0    95.749305    1522.3623    1618.1116    245.53674 
    9002 1.2172412e-10    85.465648    1516.9692    1602.4348   -2401.8494 
WARNING: Bond/angle/dihedral extent > half of periodic box length (src/domain.cpp:906)
Loop time of 1.38499 on 1 procs for 8749 steps with 140 atoms

99.4% CPU use with 1 MPI tasks x 1 OpenMP threads

Minimization stats:
  Stopping criterion = energy tolerance
  Energy initial, next-to-last, final = 
         1618.11157091      1602.43480601      1602.43480601
  Force two-norm initial, final = 34.8478 3.2361e-05
  Force max component initial, final = 6.25837 1.54036e-05
  Final line search alpha, max atom move = 0 0
  Iterations, force evaluations = 8749 8749

MPI task timing breakdown:
Section |  min time  |  avg time  |  max time  |%varavg| %total
---------------------------------------------------------------
Pair    | 0.82444    | 0.82444    | 0.82444    |   0.0 | 59.53
Bond    | 0.47385    | 0.47385    | 0.47385    |   0.0 | 34.21
Neigh   | 0.00072434 | 0.00072434 | 0.00072434 |   0.0 |  0.05
Comm    | 0.049431   | 0.049431   | 0.049431   |   0.0 |  3.57
Output  | 0          | 0          | 0          |   0.0 |  0.00
Modify  | 0          | 0          | 0          |   0.0 |  0.00
Other   |            | 0.03655    |            |       |  2.64

Nlocal:    140 ave 140 max 140 min
Histogram: 1 0 0 0 0 0 0 0 0 0
Nghost:    1439 ave 1439 max 1439 min
Histogram: 1 0 0 0 0 0 0 0 0 0
Neighs:    9007 ave 9007 max 9007 min
Histogram: 1 0 0 0 0 0 0 0 0 0

Total # of neighbors = 9007
Ave neighs/atom = 64.3357
Ave special neighs/atom = 6.34286
Neighbor list builds = 1
Dangerous builds = 0
variable        AtomMinStep equal ${tempstp}
variable        AtomMinStep equal 253
variable        temppe     equal $(pe)
variable        temppe     equal 1602.4348060074098612
variable        min_E      equal abs(${prev_E}-${temppe})
variable        min_E      equal abs(50000-${temppe})
variable        min_E      equal abs(50000-1602.43480600741)
print           "${iter},${CellMinStep},${AtomMinStep},${AtomMinStep},$(pe),${min_E}" append NiPyC2_relax_sc211_meta_functionalized_O-CH3.min.csv screen no
if              "${min_E} < ${min_eval}" then "jump SELF break_min"
variable        prev_E     equal ${temppe}
variable        prev_E     equal 1602.43480600741
next            iter
jump            SELF loop_min
min_style       cg
fix             1 all box/relax aniso 0.0 vmax 0.01
minimize        1.0e-15 1.0e-15 10000 100000
WARNING: Using 'neigh_modify every 1 delay 0 check yes' setting during minimization (src/min.cpp:190)
WARNING: Inconsistent image flags (src/domain.cpp:785)
WARNING: Bond/angle/dihedral extent > half of periodic box length (src/domain.cpp:906)
Per MPI rank memory allocation (min/avg/max) = 17.52 | 17.52 | 17.52 Mbytes
Step Temp E_pair E_mol TotEng Press Volume 
    9002 1.2172412e-10    85.465648    1516.9692    1602.4348   -2401.8494    1485.8153 
    9003 1.2172412e-10    85.465648    1516.9692    1602.4348   -2401.8494    1485.8153 
WARNING: Bond/angle/dihedral extent > half of periodic box length (src/domain.cpp:906)
Loop time of 0.0102521 on 1 procs for 1 steps with 140 atoms

99.6% CPU use with 1 MPI tasks x 1 OpenMP threads

Minimization stats:
  Stopping criterion = linesearch alpha is zero
  Energy initial, next-to-last, final = 
         1602.43480601      1602.43480601      1602.43480601
  Force two-norm initial, final = 91.2519 91.2519
  Force max component initial, final = 63.3465 63.3465
  Final line search alpha, max atom move = 1.17616e-12 7.45058e-11
  Iterations, force evaluations = 1 55

MPI task timing breakdown:
Section |  min time  |  avg time  |  max time  |%varavg| %total
---------------------------------------------------------------
Pair    | 0.0055301  | 0.0055301  | 0.0055301  |   0.0 | 53.94
Bond    | 0.0032699  | 0.0032699  | 0.0032699  |   0.0 | 31.89
Neigh   | 0          | 0          | 0          |   0.0 |  0.00
Comm    | 0.00033097 | 0.00033097 | 0.00033097 |   0.0 |  3.23
Output  | 0          | 0          | 0          |   0.0 |  0.00
Modify  | 0          | 0          | 0          |   0.0 |  0.00
Other   |            | 0.001121   |            |       | 10.94

Nlocal:    140 ave 140 max 140 min
Histogram: 1 0 0 0 0 0 0 0 0 0
Nghost:    1433 ave 1433 max 1433 min
Histogram: 1 0 0 0 0 0 0 0 0 0
Neighs:    9025 ave 9025 max 9025 min
Histogram: 1 0 0 0 0 0 0 0 0 0

Total # of neighbors = 9025
Ave neighs/atom = 64.4643
Ave special neighs/atom = 6.34286
Neighbor list builds = 0
Dangerous builds = 0
unfix           1
min_style       fire
variable        tempstp    equal $(step)
variable        tempstp    equal 9003
variable        CellMinStep equal ${tempstp}
variable        CellMinStep equal 9003
minimize        1.0e-15 1.0e-15 10000 100000
WARNING: Using 'neigh_modify every 1 delay 0 check yes' setting during minimization (src/min.cpp:190)
  Parameters for fire: 
    dmax delaystep dtgrow dtshrink alpha0 alphashrink tmax tmin    integrator halfstepback 
     0.1        20    1.1      0.5   0.25        0.99   10 0.02 eulerimplicit          yes 
WARNING: Inconsistent image flags (src/domain.cpp:785)
WARNING: Bond/angle/dihedral extent > half of periodic box length (src/domain.cpp:906)
Per MPI rank memory allocation (min/avg/max) = 16.4 | 16.4 | 16.4 Mbytes
Step Temp E_pair E_mol TotEng Press 
    9003            0    85.465648    1516.9692    1602.4348   -2401.8494 
    9057 8.399468e-11    85.465648    1516.9692    1602.4348   -2401.8491 
WARNING: Bond/angle/dihedral extent > half of periodic box length (src/domain.cpp:906)
Loop time of 0.00900882 on 1 procs for 54 steps with 140 atoms

99.4% CPU use with 1 MPI tasks x 1 OpenMP threads

Minimization stats:
  Stopping criterion = energy tolerance
  Energy initial, next-to-last, final = 
         1602.43480601      1602.43480601      1602.43480601
  Force two-norm initial, final = 3.2361e-05 3.01083e-05
  Force max component initial, final = 1.54036e-05 1.43276e-05
  Final line search alpha, max atom move = 0 0
  Iterations, force evaluations = 54 54

MPI task timing breakdown:
Section |  min time  |  avg time  |  max time  |%varavg| %total
---------------------------------------------------------------
Pair    | 0.0052893  | 0.0052893  | 0.0052893  |   0.0 | 58.71
Bond    | 0.0030365  | 0.0030365  | 0.0030365  |   0.0 | 33.71
Neigh   | 0          | 0          | 0          |   0.0 |  0.00
Comm    | 0.00032181 | 0.00032181 | 0.00032181 |   0.0 |  3.57
Output  | 0          | 0          | 0          |   0.0 |  0.00
Modify  | 0          | 0          | 0          |   0.0 |  0.00
Other   |            | 0.0003612  |            |       |  4.01

Nlocal:    140 ave 140 max 140 min
Histogram: 1 0 0 0 0 0 0 0 0 0
Nghost:    1433 ave 1433 max 1433 min
Histogram: 1 0 0 0 0 0 0 0 0 0
Neighs:    9025 ave 9025 max 9025 min
Histogram: 1 0 0 0 0 0 0 0 0 0

Total # of neighbors = 9025
Ave neighs/atom = 64.4643
Ave special neighs/atom = 6.34286
Neighbor list builds = 0
Dangerous builds = 0
variable        AtomMinStep equal ${tempstp}
variable        AtomMinStep equal 9003
variable        temppe     equal $(pe)
variable        temppe     equal 1602.4348060073025408
variable        min_E      equal abs(${prev_E}-${temppe})
variable        min_E      equal abs(1602.43480600741-${temppe})
variable        min_E      equal abs(1602.43480600741-1602.4348060073)
print           "${iter},${CellMinStep},${AtomMinStep},${AtomMinStep},$(pe),${min_E}" append NiPyC2_relax_sc211_meta_functionalized_O-CH3.min.csv screen no
if              "${min_E} < ${min_eval}" then "jump SELF break_min"
jump SELF break_min
undump          NiPyC2_relax_sc211_meta_functionalized_O-CH3_xyzmov

# Dump last snapshot for restart
variable curr_lx equal lx
variable curr_ly equal ly
variable curr_lz equal lz
change_box all x final 0 ${curr_lx} y final 0 ${curr_ly} z final 0 ${curr_lz}
change_box all x final 0 13.1656394482511 y final 0 ${curr_ly} z final 0 ${curr_lz}
change_box all x final 0 13.1656394482511 y final 0 9.87177127285613 z final 0 ${curr_lz}
change_box all x final 0 13.1656394482511 y final 0 9.87177127285613 z final 0 11.4321463559993
  triclinic box = (0 1.32581 -0.578934) to (13.1656 11.1976 10.8532) with tilt (0 -0.253243 0)
  triclinic box = (0 0 -0.578934) to (13.1656 9.87177 10.8532) with tilt (0 -0.253243 0)
  triclinic box = (0 0 0) to (13.1656 9.87177 11.4321) with tilt (0 -0.253243 0)

reset_timestep 0
dump            NiPyC2_relax_sc211_meta_functionalized_O-CH3_restart all atom 1 NiPyC2_relax_sc211_meta_functionalized_O-CH3_restart.lammpstrj
dump_modify     NiPyC2_relax_sc211_meta_functionalized_O-CH3_restart scale no sort id
run 0
WARNING: No fixes defined, atoms won't move (src/verlet.cpp:52)
WARNING: Inconsistent image flags (src/domain.cpp:785)
WARNING: Bond/angle/dihedral extent > half of periodic box length (src/domain.cpp:906)
Per MPI rank memory allocation (min/avg/max) = 16.4 | 16.4 | 16.4 Mbytes
Step Temp E_pair E_mol TotEng Press 
       0 8.399468e-11    85.465648    1516.9692    1602.4348   -2401.8491 
WARNING: Bond/angle/dihedral extent > half of periodic box length (src/domain.cpp:906)
Loop time of 8.7099e-07 on 1 procs for 0 steps with 140 atoms

229.6% CPU use with 1 MPI tasks x 1 OpenMP threads

MPI task timing breakdown:
Section |  min time  |  avg time  |  max time  |%varavg| %total
---------------------------------------------------------------
Pair    | 0          | 0          | 0          |   0.0 |  0.00
Bond    | 0          | 0          | 0          |   0.0 |  0.00
Neigh   | 0          | 0          | 0          |   0.0 |  0.00
Comm    | 0          | 0          | 0          |   0.0 |  0.00
Output  | 0          | 0          | 0          |   0.0 |  0.00
Modify  | 0          | 0          | 0          |   0.0 |  0.00
Other   |            | 8.71e-07   |            |       |100.00

Nlocal:    140 ave 140 max 140 min
Histogram: 1 0 0 0 0 0 0 0 0 0
Nghost:    1354 ave 1354 max 1354 min
Histogram: 1 0 0 0 0 0 0 0 0 0
Neighs:    9025 ave 9025 max 9025 min
Histogram: 1 0 0 0 0 0 0 0 0 0

Total # of neighbors = 9025
Ave neighs/atom = 64.4643
Ave special neighs/atom = 6.34286
Neighbor list builds = 0
Dangerous builds = 0
undump          NiPyC2_relax_sc211_meta_functionalized_O-CH3_restart
Total wall time: 0:00:01
