ITEM: TIMESTEP
0
ITEM: NUMBER OF ATOMS
140
ITEM: BOX BOUNDS xy xz yz pp pp pp
-2.1163053412736191e-01 1.4094639453878800e+01 0.0000000000000000e+00
0.0000000000000000e+00 1.1254963417688201e+01 -2.1163053412736191e-01
0.0000000000000000e+00 9.5536400456230695e+00 0.0000000000000000e+00
ITEM: ATOMS id type x y z
1 1 2.64904 9.2885 8.93265
2 1 6.43714 2.97173 3.60803
3 2 0.341521 4.68511 4.31229
4 2 4.04751 8.23143 9.02664
5 2 4.89454 2.13081 3.74546
6 2 1.28304 10.3682 9.04138
7 2 6.3282 3.77768 5.15696
8 2 2.46523 8.22882 0.78182
9 2 13.4458 2.5297 5.54941
10 2 3.43783 10.5434 0.533928
11 3 3.39142 10.2968 7.47348
12 3 -0.0496304 2.40555 2.98685
13 3 1.73226 8.06754 7.76838
14 3 5.70144 4.52713 2.7402
15 4 3.54938 11.0281 5.17966
16 4 0.296418 1.41755 0.821538
17 5 3.20544 10.8673 4.18264
18 5 5.83197 10.344 1.06832
19 4 4.8619 0.264569 5.39328
20 4 1.51502 0.858564 1.21948
21 4 5.43496 0.0391008 6.62863
22 4 2.00143 1.20812 2.46425
23 5 13.0844 0.506861 7.44986
24 5 3.02528 1.01363 2.68317
25 4 1.48691 6.98082 5.64517
26 4 5.67412 6.16622 0.966088
27 5 1.84985 6.85643 4.63862
28 5 12.5789 5.45274 9.03325
29 4 2.27844 7.65626 6.59821
30 4 6.31719 5.12871 1.67678
31 5 3.28 7.96218 6.34724
32 4 2.76585 10.5446 6.28094
33 4 13.5619 2.06778 1.76459
34 4 4.72494 10.5979 7.60769
35 4 1.27058 2.09135 3.29276
36 5 5.25597 10.2464 8.46001
37 4 0.404011 7.75388 8.03936
38 4 4.50684 5.03145 3.19869
39 4 13.7981 6.85075 7.21056
40 4 3.77613 5.9764 2.42922
41 5 6.32946 6.66516 4.96597
42 5 2.75997 6.22433 2.69666
43 4 0.246939 6.44921 6.0083
44 4 4.37554 6.58569 1.32771
45 4 5.55844 1.15704 4.38846
46 4 2.19752 11.0941 0.339187
47 4 13.702 5.40191 5.14196
48 4 3.67307 7.64852 0.510771
49 1 9.30743 8.64769 8.33641
50 1 13.0845 3.60534 4.15031
51 2 8.01129 3.75374 3.73202
52 2 10.8402 7.79797 8.52105
53 2 11.6914 2.53819 4.18876
54 2 7.72911 9.44068 8.41435
55 2 12.4607 4.84453 5.30382
56 2 8.81692 7.14223 9.15773
57 2 6.8889 1.46499 4.45234
58 2 9.5792 9.4448 0.33937
59 3 10.0762 10.1992 7.49642
60 3 6.80058 2.14994 1.92507
61 3 9.00549 7.83396 6.64013
62 3 12.383 4.62927 2.69285
63 4 10.1809 0.558579 5.70237
64 4 6.45565 11.2246 1.03884
65 5 9.70566 1.01501 4.84297
66 5 13.8537 1.32592 9.35329
67 4 11.4899 0.936048 6.0742
68 4 7.79656 11.1359 0.655791
69 4 12.0535 0.318598 7.19156
70 4 8.58572 1.03176 0.757204
71 5 6.44619 0.3674 6.83314
72 5 9.53736 1.09049 0.259273
73 4 9.42358 5.64804 5.79707
74 4 12.3484 5.48082 0.444147
75 5 10.0842 4.79618 5.80272
76 5 6.17775 6.61973 0.121302
77 4 9.89121 6.9229 6.14818
78 4 13.0731 4.96446 1.56082
79 5 7.28938 4.79573 1.35546
80 4 9.49506 10.805 6.41597
81 4 5.94657 1.22264 1.41536
82 5 8.51802 10.4945 6.08249
83 5 12.5806 2.40143 1.47423
84 4 11.2749 10.674 7.96859
85 4 8.09103 2.14621 1.45327
86 5 8.74122 2.99074 1.61885
87 4 7.72456 7.79026 6.15252
88 4 11.0399 4.91098 2.77629
89 5 7.0592 8.63131 6.27501
90 5 10.4818 4.57148 3.62279
91 4 7.2608 6.63772 5.50184
92 4 10.3658 5.61565 1.77745
93 5 12.7639 6.66529 7.3933
94 5 9.34102 5.92372 1.93875
95 4 8.07748 5.50127 5.45856
96 4 11.0105 5.91505 0.592499
97 4 12.2507 1.94295 5.23608
98 4 8.34009 9.88737 0.0625957
99 4 7.57466 4.22144 4.90927
100 4 10.1457 6.82815 9.13704
101 6 1.37431 10.5796 6.24204
102 7 0.828122 10.0322 5.05686
103 5 0.496016 10.8539 4.39254
104 5 -0.0746104 9.44588 5.32347
105 5 1.51273 9.36841 4.48541
106 6 1.99851 2.93566 4.10253
107 7 2.07335 2.49929 5.44154
108 5 3.13161 2.37268 5.73277
109 5 1.51708 1.57772 5.65376
110 5 1.67598 3.292 6.10688
111 6 13.7454 8.5986 8.825
112 7 13.8598 8.17269 0.613387
113 5 12.798 8.05113 0.891731
114 5 0.151605 8.97016 1.27956
115 5 0.311096 7.24834 0.840457
116 6 3.93798 4.49268 4.33059
117 7 4.03387 5.37408 5.42539
118 5 3.16771 5.18022 6.07933
119 5 4.87287 5.16573 6.10352
120 5 4.09853 6.4358 5.11848
121 6 11.8024 10.1388 9.12116
122 7 11.8752 11.0195 0.656688
123 5 12.7444 10.8612 1.3158
124 5 11.0474 10.7732 1.33571
125 5 11.7598 0.819954 0.345055
126 6 4.66712 1.58766 1.06434
127 7 4.49048 2.3347 9.41935
128 5 5.23896 1.96568 8.68137
129 5 3.495 2.27149 8.93392
130 5 4.89407 3.40274 0.0868956
131 6 11.166 7.31385 5.80651
132 7 11.1286 8.00098 4.57399
133 5 10.4595 7.52508 3.82242
134 5 12.1508 8.00766 4.14305
135 5 10.8238 9.05525 4.72889
136 6 0.367282 5.03959 1.60797
137 7 0.997925 4.50142 0.459608
138 5 1.19787 5.32795 9.4004
139 5 1.85776 3.88109 0.78504
140 5 0.134419 3.87888 9.36177
