140
Atoms. Timestep: 0
Ni 2.89857 9.41116 8.59265
Ni 6.17525 3.10579 3.48481
O 1.44827 4.35425 3.93374
O 4.4416 8.15245 9.05464
O 4.63665 1.84729 3.87523
O 1.36499 10.6744 9.00295
O 5.80609 4.46033 4.96242
O 2.54244 8.0327 10.0675
O 0.25117 1.69264 4.94273
O 3.23722 10.8047 10.0626
N 3.69677 10.6606 7.2416
N 0.71256 1.8642 2.11704
N 2.17217 8.14409 7.25198
N 5.44023 4.39481 2.13747
C 3.48546 12.1483 5.36301
C 0.47488 0.38955 0.2292
H 2.86453 12.5181 4.55267
H 5.86971 0.03371 9.69377
C 4.76073 0.1474 5.61481
C 1.74333 12.3699 0.47412
C 5.50345 12.1502 6.68209
C 2.49852 0.35508 1.54004
H 3.49155 12.5067 1.77336
C 2.48363 6.6337 5.40822
C 5.72803 5.90364 0.28669
C 2.92756 7.68099 6.23068
C 6.1883 4.86756 1.11596
H 3.89994 8.14655 6.0889
H 0.91589 4.41889 0.97634
C 2.98256 11.1359 6.19748
C -0.01036 1.40553 1.07106
H 1.99392 10.709 6.04703
H 5.26093 1.85011 0.92351
C 4.93641 11.1381 7.47507
C 1.94823 1.3719 2.3406
H 5.48559 10.7097 8.30944
H 2.50886 1.79214 3.17267
C 0.94573 7.62654 7.47302
C 4.21083 4.90458 2.35686
H 0.36328 8.05184 8.28732
H 3.63605 4.47744 3.17528
C 0.43859 6.57577 6.69176
C 3.68763 5.945 1.56944
H 5.70774 6.17693 6.91975
C 1.22745 6.06471 5.65205
C 4.46338 6.45777 0.52027
C 5.3126 1.24381 4.79419
C 2.0502 11.2675 9.92158
C 0.73548 4.94016 4.83586
C 3.73174 7.56629 9.95688
Ni 9.15137 9.41116 8.59265
Ni 12.4281 3.10579 3.48481
O 7.70109 4.35425 3.93374
O 10.6944 8.15245 9.05464
O 10.8895 1.84729 3.87523
O 7.61779 10.6744 9.00295
O 12.0589 4.46033 4.96242
O 8.79524 8.0327 10.0675
O 6.50397 1.69264 4.94273
O 9.49002 10.8047 10.0626
N 9.94957 10.6606 7.2416
N 6.96536 1.8642 2.11704
N 8.42499 8.14409 7.25198
N 11.693 4.39481 2.13747
C 9.73826 12.1483 5.36301
C 6.72768 0.38955 0.2292
H 9.11733 12.5181 4.55267
C 11.0135 0.1474 5.61481
C 7.99613 12.3699 0.47412
C 11.7562 12.1502 6.68209
C 8.75132 0.35508 1.54004
C 8.73644 6.6337 5.40822
C 11.9808 5.90364 0.28669
H 6.14452 6.26667 9.7662
C 9.18036 7.68099 6.23068
C 12.4411 4.86756 1.11596
H 10.1527 8.14655 6.0889
H 7.16869 4.41889 0.97634
C 9.23536 11.1359 6.19748
C 6.24244 1.40553 1.07106
H 8.24672 10.709 6.04703
H 11.5137 1.85011 0.92351
C 11.1892 11.1381 7.47507
C 8.20102 1.3719 2.3406
H 11.7384 10.7097 8.30944
H 8.76167 1.79214 3.17267
C 7.19853 7.62654 7.47302
C 10.4636 4.90458 2.35686
H 6.61608 8.05184 8.28732
H 9.88885 4.47744 3.17528
C 6.69139 6.57577 6.69176
C 9.94043 5.945 1.56944
H 11.9605 6.17693 6.91975
H 8.95104 6.32683 1.80071
C 7.48025 6.06471 5.65205
C 10.7162 6.45777 0.52027
C 11.5654 1.24381 4.79419
C 8.303 11.2675 9.92158
C 6.98827 4.94016 4.83586
C 9.98454 7.56629 9.95688
O 6.75795 0.10634 6.9349
C 7.59136 12.2056 7.95004
H 8.53996 0.25503 7.90136
H 7.1193 12.3901 8.9386
H 7.82568 11.1262 7.83056
O 12.0083 12.4489 9.45355
C 10.7499 0.37014 9.1017
H 10.4039 12.33 8.21114
H 10.0326 0.19233 9.9311
H 10.781 1.45039 8.84424
O 3.25342 6.16416 4.38023
C 4.5041 6.6337 4.03335
H 4.87677 6.05796 3.16156
H 4.4478 7.70605 3.7487
H 5.21485 6.49565 4.87594
O 2.44479 6.45959 1.80935
C 1.58269 6.04739 2.80529
H 0.65301 6.64989 2.75012
H 2.0444 6.20355 3.80359
H 1.3173 4.97755 2.66677
O 0.50514 0.10635 6.93491
C 1.33856 12.2056 7.95005
H 2.28715 0.25504 7.90137
H 1.57287 11.1262 7.83059
H 0.86648 12.3901 8.93861
O 10.0012 12.3829 1.78402
C 10.8454 0.27002 2.79589
H 11.7867 12.2093 2.73984
H 11.0921 1.34687 2.67886
H 10.3767 0.08768 3.78646
O 9.50623 6.16414 4.38024
C 10.7569 6.63368 4.03336
H 11.1296 6.05794 3.16158
H 10.7006 7.70604 3.7487
H 11.4677 6.49564 4.87596
O 0.01502 6.37817 9.5309
C 1.27358 5.92486 9.19094
H 1.64047 6.50031 8.31653
H 1.23395 4.84995 8.91319
H 1.97955 6.07887 10.0348
140
Atoms. Timestep: 253
Ni 2.83643 8.89305 9.14048
Ni 6.26109 3.5604 3.19578
O 1.23904 4.56521 3.78462
O 4.37236 8.00705 9.29185
O 4.78658 2.60747 3.31443
O 1.32456 9.79863 9.30014
O 5.78269 4.71951 4.40983
O 2.47667 7.79832 10.4351
O 0.190048 2.3935 4.82401
O 3.26328 10.118 10.3155
N 3.4163 10.0358 7.68005
N 0.442345 2.47877 2.24795
N 2.16205 7.60799 7.9111
N 5.62288 4.73237 1.81445
C 3.5592 10.4594 5.30472
C 0.217655 1.73358 -0.030432
H 3.18817 10.2736 4.30894
H 5.92467 10.7888 10.3607
C 4.64911 1.4278 5.49766
C 1.55665 11.1337 -0.00946174
C 4.97246 1.80591 6.81027
C 2.29161 1.39388 1.18295
H 3.30343 10.8885 1.24566
C 2.54134 6.2123 6.0005
C 5.81193 5.77928 -0.350219
C 2.98514 6.7776 7.21151
C 6.35504 4.98512 0.683789
H 4.02337 6.71168 7.4624
H 0.95525 5.07265 1.33944
C 2.93505 9.85294 6.40592
C -0.326598 2.25022 1.15982
H 2.00523 9.33219 6.2424
H 5.22199 2.40712 0.666811
C 4.34159 11.0298 7.89199
C 1.73262 2.04463 2.28566
H 4.49134 1.55877 8.87497
H 2.33992 2.24127 3.15346
C 0.814361 7.49921 7.7325
C 4.41958 5.36465 1.98065
H 0.140699 7.94203 8.44162
H 3.76875 5.06887 2.7823
C 0.297484 6.67976 6.72633
C 4.06789 6.4563 1.16166
H 5.86293 5.82402 6.68328
C 1.14629 6.09064 5.78983
C 4.65629 6.53982 -0.0989488
C 5.41048 1.96398 4.33016
C 1.98212 10.5316 10.2266
C 0.540376 5.20842 4.74333
C 3.72707 7.33907 10.2749
Ni 9.40408 8.33611 9.09671
Ni -0.24069 3.59266 3.60047
O 7.73762 4.52625 3.38151
O 10.8919 7.3782 9.27431
O 11.4541 2.61536 3.71304
O 7.91473 9.28566 9.22225
O 12.4568 4.70971 4.86408
O 8.94572 7.16472 10.3285
O 6.66911 2.42694 4.47761
O 9.80765 9.47466 10.3659
N 10.112 9.54032 7.76689
N 6.96098 2.35321 1.88974
N 8.75947 7.17422 7.74509
N 12.2399 4.78878 2.26076
C 10.109 10.4514 5.53092
C 6.75932 11.0417 -0.200714
H 9.64109 10.5015 4.55996
C 11.3651 11.0522 5.75094
C 8.04718 10.5175 -0.0385232
C 11.8693 11.0418 7.05317
C 8.63352 10.6061 1.23285
C 9.03657 6.1543 5.57976
C 12.5252 5.83275 0.0791026
H 6.02455 5.79127 10.1088
C 9.57511 6.76334 6.73541
C -0.102014 5.28009 1.28069
H 10.5693 7.14435 6.7039
H 7.30954 4.51201 0.542255
C 9.4462 9.7999 6.59696
C 6.21034 1.99101 0.801117
H 8.43904 9.43866 6.45889
H 11.8362 2.60991 1.17915
C 11.3645 10.0626 7.93823
C 8.16634 1.73846 2.11225
H 11.9493 9.74661 8.7749
H 8.74031 1.99038 2.9888
C 7.43322 6.85714 7.71648
C 10.8833 4.83557 2.07784
H 6.78224 7.21806 8.49185
H 10.2291 4.33835 2.77018
C 6.88984 6.13959 6.64725
C 10.3168 5.46348 0.964381
H 12.4502 6.352 6.79002
H 9.24628 5.58442 0.916707
C 7.67169 5.84096 5.53018
C 11.1236 5.99398 -0.0418304
C 12.0995 1.91069 4.65859
C 8.54151 9.92555 10.2335
C 7.0347 5.19717 4.33245
C 10.2111 6.70229 10.2308
O 5.69177 2.96472 7.03585
C 6.97701 2.64321 7.5295
H 7.71688 3.31081 7.0411
H 7.0021 2.83382 8.6226
H 7.31314 1.60289 7.32143
O 12.3538 1.60758 10.2515
C 11.1691 2.40152 10.238
H 10.6769 2.37217 9.25401
H 10.6647 1.99379 -0.499093
H 11.3542 3.46965 10.4466
O 3.44529 6.00859 4.97775
C 4.03393 7.25218 4.64214
H 4.80095 7.12212 3.86035
H 3.26641 7.96833 4.28694
H 4.60483 7.69719 5.48188
O 3.56985 7.61661 1.73643
C 2.18023 7.52018 1.93318
H 1.61571 7.35637 0.999242
H 1.81173 8.47399 2.35552
H 1.94103 6.74589 2.68235
O 12.3779 2.35024 7.5731
C 0.617738 2.37575 7.5706
H 0.977328 3.2383 6.96771
H 1.08472 1.46079 7.17605
H 0.973868 2.54481 8.59894
O 9.31608 9.51394 1.74679
C 10.6817 9.82596 1.89558
H 11.2744 9.45088 1.04087
H 10.8508 10.8864 2.06242
H 11.0832 9.35463 2.80098
O 9.81421 6.01733 4.46033
C 10.042 7.2966 3.92451
H 10.2352 7.21579 2.84479
H 9.16774 7.98684 4.00329
H 10.9427 7.74094 4.40292
O -0.0529438 6.20174 10.4732
C 0.682026 5.0823 10.0039
H 0.759736 5.10703 8.9032
H 0.250298 4.09959 10.2567
H 1.71222 5.10783 10.4125
140
Atoms. Timestep: 9002
Ni 2.84625 8.94287 9.21837
Ni 6.27074 3.4619 3.18048
O 1.19915 4.67335 3.82627
O 4.37471 8.03831 9.37969
O 4.81284 2.48512 3.2921
O 1.34256 9.87276 9.37304
O 5.7789 4.58666 4.43166
O 2.4793 7.87348 10.5396
O 0.172353 2.52286 4.8835
O 3.2914 10.1888 10.3749
N 3.42854 10.0531 7.72871
N 0.443504 2.55253 2.31802
N 2.15548 7.64146 8.00536
N 5.60544 4.65987 1.82602
C 3.57399 10.4072 5.33674
C 0.214729 1.74553 0.0624017
H 3.17486 10.2257 4.34695
H 6.03896 10.8137 10.2564
C 4.69488 1.34345 5.50066
C 1.59094 1.38048 0.0468451
C 5.04529 1.73895 6.80899
C 2.33829 1.57804 1.22381
H 3.35437 11.09 1.29427
C 2.51406 6.2646 6.07366
C 5.78363 5.78242 -0.306628
C 2.97601 6.8283 7.27906
C 6.32702 4.94564 0.692745
H 4.01958 6.75065 7.52209
H 0.955914 5.14025 1.37519
C 2.94038 9.84512 6.45794
C -0.341559 2.20483 1.27543
H 2.0006 9.3422 6.309
H 5.25869 2.3156 0.607511
C 4.37431 11.0319 7.91067
C 1.75562 2.20117 2.33488
H 4.51923 1.59708 8.87953
H 2.3488 2.40489 3.21093
C 0.806302 7.52449 7.84569
C 4.40398 5.29001 2.01977
H 0.145135 7.95843 8.56885
H 3.77302 4.99289 2.83977
C 0.277384 6.70268 6.84504
C 4.05145 6.41245 1.23607
H 5.91953 5.62415 6.78857
C 1.11428 6.14819 5.87299
C 4.6286 6.52963 -0.0298195
C 5.44714 1.84354 4.30438
C 2.01227 10.6108 10.2903
C 0.492972 5.32882 4.77333
C 3.72339 7.39804 10.3803
Ni 9.4623 8.30487 9.03407
Ni -0.264434 3.68469 3.6386
O 7.72656 4.44426 3.37683
O 10.9332 7.32754 9.22307
O 11.4419 2.69197 3.74669
O 7.98646 9.28046 9.14556
O 12.4077 4.82567 4.8799
O 8.98155 7.1538 10.2729
O 6.70433 2.30773 4.43123
O 9.88142 9.44778 10.2863
N 10.1851 9.4866 7.70259
N 6.99212 2.29481 1.84199
N 8.80532 7.13394 7.6877
N 12.2265 4.84214 2.27048
C 10.1344 10.518 5.52465
C 6.86191 11.0749 -0.304797
H 9.64337 10.6311 4.57386
C 11.3857 11.1138 5.76177
C 8.16149 10.5862 -0.150282
C 11.9002 11.0615 7.05295
C 8.73947 10.6548 1.12583
C 9.00317 6.17519 5.49187
C 12.5427 5.87427 0.0965495
H 5.99808 5.83249 10.1571
C 9.57632 6.79447 6.61549
C -0.104981 5.32746 1.30065
H 10.5517 7.22688 6.51702
H 7.27661 4.46644 0.520017
C 9.50529 9.78169 6.55016
C 6.2657 1.94761 0.731305
H 8.50528 9.39984 6.39625
H 11.7721 2.39301 1.35227
C 11.422 10.0385 7.90259
C 8.23163 1.74081 2.03221
H 11.9918 9.74811 8.7604
H 8.78497 1.97258 2.92644
C 7.49984 6.7315 7.74005
C 10.8741 4.88455 2.07197
H 6.8733 7.061 8.55085
H 10.2137 4.41304 2.77545
C 6.93829 5.97349 6.70263
C 10.3235 5.43908 0.913682
H 12.4218 6.38621 6.91369
H 9.25115 5.48031 0.810216
C 7.68089 5.71372 5.5452
C 11.1416 5.97566 -0.077337
C 12.0972 2.01638 4.70365
C 8.63256 9.92997 10.1417
C 7.02562 5.07936 4.35213
C 10.2402 6.66902 10.1822
O 5.82318 2.86547 7.00557
C 7.10488 2.46841 7.4366
H 7.76819 3.35568 7.45589
H 7.07148 2.06456 8.46701
H 7.56417 1.73373 6.74693
O 12.3017 1.46946 10.4097
C 11.2535 2.42673 10.2688
H 10.7382 2.31406 9.30229
H 10.6883 2.25079 -0.440538
H 11.6156 3.46464 10.3367
O 3.41865 5.95524 5.07683
C 4.12727 7.13768 4.7318
H 4.86129 6.93163 3.93917
H 3.43705 7.92293 4.37781
H 4.75196 7.53032 5.56081
O 3.60923 7.56871 1.85861
C 2.21505 7.54429 2.04518
H 1.6558 7.36706 1.11295
H 1.89622 8.5378 2.42203
H 1.93745 6.80295 2.81322
O 12.379 2.36564 7.61189
C 0.619181 2.41105 7.64326
H 0.965952 3.32032 7.11223
H 1.11139 1.5342 7.19501
H 0.951604 2.52927 8.68741
O 9.35128 9.5238 1.62728
C 10.7374 9.71787 1.74976
H 11.1933 10.0989 0.827225
H 10.9634 10.3657 2.61328
H 11.2261 8.73971 1.93049
O 9.66457 6.2131 4.29583
C 9.37017 7.43931 3.67294
H 9.45109 7.2894 2.58571
H 8.33364 7.82103 3.84621
H 10.1125 8.19551 3.99495
O -0.00552622 6.2892 10.5428
C 0.49641 5.15544 9.86304
H -0.206902 4.85724 9.05806
H 0.727132 4.29106 10.5249
H 1.46611 5.41249 9.3979
140
Atoms. Timestep: 9003
Ni 2.84625 8.94287 9.21837
Ni 6.27074 3.4619 3.18048
O 1.19915 4.67335 3.82627
O 4.37471 8.03831 9.37969
O 4.81284 2.48512 3.2921
O 1.34256 9.87276 9.37304
O 5.7789 4.58666 4.43166
O 2.4793 7.87348 10.5396
O 0.172353 2.52286 4.8835
O 3.2914 10.1888 10.3749
N 3.42854 10.0531 7.72871
N 0.443504 2.55253 2.31802
N 2.15548 7.64146 8.00536
N 5.60544 4.65987 1.82602
C 3.57399 10.4072 5.33674
C 0.214729 1.74553 0.0624017
H 3.17486 10.2257 4.34695
H 6.03896 10.8137 10.2564
C 4.69488 1.34345 5.50066
C 1.59094 1.38048 0.0468451
C 5.04529 1.73895 6.80899
C 2.33829 1.57804 1.22381
H 3.35437 11.09 1.29427
C 2.51406 6.2646 6.07366
C 5.78363 5.78242 -0.306628
C 2.97601 6.8283 7.27906
C 6.32702 4.94564 0.692745
H 4.01958 6.75065 7.52209
H 0.955914 5.14025 1.37519
C 2.94038 9.84512 6.45794
C -0.341559 2.20483 1.27543
H 2.0006 9.3422 6.309
H 5.25869 2.3156 0.607511
C 4.37431 11.0319 7.91067
C 1.75562 2.20117 2.33488
H 4.51923 1.59708 8.87953
H 2.3488 2.40489 3.21093
C 0.806302 7.52449 7.84569
C 4.40398 5.29001 2.01977
H 0.145135 7.95843 8.56885
H 3.77302 4.99289 2.83977
C 0.277384 6.70268 6.84504
C 4.05145 6.41245 1.23607
H 5.91953 5.62415 6.78857
C 1.11428 6.14819 5.87299
C 4.6286 6.52963 -0.0298195
C 5.44714 1.84354 4.30438
C 2.01227 10.6108 10.2903
C 0.492972 5.32882 4.77333
C 3.72339 7.39804 10.3803
Ni 9.4623 8.30487 9.03407
Ni -0.264434 3.68469 3.6386
O 7.72656 4.44426 3.37683
O 10.9332 7.32754 9.22307
O 11.4419 2.69197 3.74669
O 7.98646 9.28046 9.14556
O 12.4077 4.82567 4.8799
O 8.98155 7.1538 10.2729
O 6.70433 2.30773 4.43123
O 9.88142 9.44778 10.2863
N 10.1851 9.4866 7.70259
N 6.99212 2.29481 1.84199
N 8.80532 7.13394 7.6877
N 12.2265 4.84214 2.27048
C 10.1344 10.518 5.52465
C 6.86191 11.0749 -0.304797
H 9.64337 10.6311 4.57386
C 11.3857 11.1138 5.76177
C 8.16149 10.5862 -0.150282
C 11.9002 11.0615 7.05295
C 8.73947 10.6548 1.12583
C 9.00317 6.17519 5.49187
C 12.5427 5.87427 0.0965495
H 5.99808 5.83249 10.1571
C 9.57632 6.79447 6.61549
C -0.104981 5.32746 1.30065
H 10.5517 7.22688 6.51702
H 7.27661 4.46644 0.520017
C 9.50529 9.78169 6.55016
C 6.2657 1.94761 0.731305
H 8.50528 9.39984 6.39625
H 11.7721 2.39301 1.35227
C 11.422 10.0385 7.90259
C 8.23163 1.74081 2.03221
H 11.9918 9.74811 8.7604
H 8.78497 1.97258 2.92644
C 7.49984 6.7315 7.74005
C 10.8741 4.88455 2.07197
H 6.8733 7.061 8.55085
H 10.2137 4.41304 2.77545
C 6.93829 5.97349 6.70263
C 10.3235 5.43908 0.913682
H 12.4218 6.38621 6.91369
H 9.25115 5.48031 0.810216
C 7.68089 5.71372 5.5452
C 11.1416 5.97566 -0.077337
C 12.0972 2.01638 4.70365
C 8.63256 9.92997 10.1417
C 7.02562 5.07936 4.35213
C 10.2402 6.66902 10.1822
O 5.82318 2.86547 7.00557
C 7.10488 2.46841 7.4366
H 7.76819 3.35568 7.45589
H 7.07148 2.06456 8.46701
H 7.56417 1.73373 6.74693
O 12.3017 1.46946 10.4097
C 11.2535 2.42673 10.2688
H 10.7382 2.31406 9.30229
H 10.6883 2.25079 -0.440538
H 11.6156 3.46464 10.3367
O 3.41865 5.95524 5.07683
C 4.12727 7.13768 4.7318
H 4.86129 6.93163 3.93917
H 3.43705 7.92293 4.37781
H 4.75196 7.53032 5.56081
O 3.60923 7.56871 1.85861
C 2.21505 7.54429 2.04518
H 1.6558 7.36706 1.11295
H 1.89622 8.5378 2.42203
H 1.93745 6.80295 2.81322
O 12.379 2.36564 7.61189
C 0.619181 2.41105 7.64326
H 0.965952 3.32032 7.11223
H 1.11139 1.5342 7.19501
H 0.951604 2.52927 8.68741
O 9.35128 9.5238 1.62728
C 10.7374 9.71787 1.74976
H 11.1933 10.0989 0.827225
H 10.9634 10.3657 2.61328
H 11.2261 8.73971 1.93049
O 9.66457 6.2131 4.29583
C 9.37017 7.43931 3.67294
H 9.45109 7.2894 2.58571
H 8.33364 7.82103 3.84621
H 10.1125 8.19551 3.99495
O -0.00552622 6.2892 10.5428
C 0.49641 5.15544 9.86304
H -0.206902 4.85724 9.05806
H 0.727132 4.29106 10.5249
H 1.46611 5.41249 9.3979
140
Atoms. Timestep: 9057
Ni 2.84625 8.94287 9.21837
Ni 6.27074 3.4619 3.18048
O 1.19915 4.67335 3.82627
O 4.37471 8.03831 9.37969
O 4.81284 2.48512 3.2921
O 1.34256 9.87276 9.37304
O 5.7789 4.58666 4.43166
O 2.4793 7.87348 10.5396
O 0.172353 2.52286 4.8835
O 3.2914 10.1888 10.3749
N 3.42854 10.0531 7.72871
N 0.443504 2.55253 2.31802
N 2.15548 7.64146 8.00536
N 5.60544 4.65987 1.82602
C 3.57399 10.4072 5.33674
C 0.214729 1.74553 0.0624017
H 3.17486 10.2257 4.34695
H 6.03896 10.8137 10.2564
C 4.69488 1.34345 5.50066
C 1.59094 1.38048 0.0468451
C 5.04529 1.73895 6.80899
C 2.33829 1.57804 1.22381
H 3.35437 11.09 1.29427
C 2.51406 6.2646 6.07366
C 5.78363 5.78242 -0.306628
C 2.97601 6.8283 7.27906
C 6.32702 4.94564 0.692745
H 4.01958 6.75065 7.52209
H 0.955914 5.14025 1.37519
C 2.94038 9.84512 6.45794
C -0.341559 2.20483 1.27543
H 2.0006 9.3422 6.309
H 5.25869 2.3156 0.607511
C 4.37431 11.0319 7.91067
C 1.75562 2.20117 2.33488
H 4.51923 1.59708 8.87953
H 2.3488 2.40489 3.21093
C 0.806302 7.52449 7.84569
C 4.40398 5.29001 2.01977
H 0.145135 7.95843 8.56885
H 3.77302 4.99289 2.83977
C 0.277384 6.70268 6.84504
C 4.05145 6.41245 1.23607
H 5.91953 5.62415 6.78857
C 1.11428 6.14819 5.87299
C 4.6286 6.52963 -0.0298195
C 5.44714 1.84354 4.30438
C 2.01227 10.6108 10.2903
C 0.492972 5.32882 4.77333
C 3.72339 7.39804 10.3803
Ni 9.4623 8.30487 9.03407
Ni -0.264434 3.68469 3.6386
O 7.72656 4.44426 3.37683
O 10.9332 7.32754 9.22307
O 11.4419 2.69197 3.74669
O 7.98646 9.28046 9.14556
O 12.4077 4.82567 4.8799
O 8.98155 7.1538 10.2729
O 6.70433 2.30773 4.43123
O 9.88142 9.44778 10.2863
N 10.1851 9.4866 7.70259
N 6.99212 2.29481 1.84199
N 8.80532 7.13394 7.6877
N 12.2265 4.84214 2.27048
C 10.1344 10.518 5.52465
C 6.86191 11.0749 -0.304797
H 9.64337 10.6311 4.57386
C 11.3857 11.1138 5.76177
C 8.16149 10.5862 -0.150282
C 11.9002 11.0615 7.05295
C 8.73947 10.6548 1.12583
C 9.00317 6.17519 5.49187
C 12.5427 5.87427 0.0965495
H 5.99808 5.83249 10.1571
C 9.57632 6.79447 6.61549
C -0.104981 5.32746 1.30065
H 10.5517 7.22688 6.51702
H 7.27661 4.46644 0.520018
C 9.50529 9.78169 6.55016
C 6.2657 1.94761 0.731305
H 8.50528 9.39984 6.39625
H 11.7721 2.39301 1.35227
C 11.422 10.0385 7.90259
C 8.23163 1.74081 2.03221
H 11.9918 9.74811 8.7604
H 8.78497 1.97258 2.92644
C 7.49984 6.7315 7.74005
C 10.8741 4.88455 2.07197
H 6.8733 7.061 8.55085
H 10.2137 4.41304 2.77545
C 6.93829 5.97349 6.70263
C 10.3235 5.43908 0.913682
H 12.4218 6.38621 6.91369
H 9.25115 5.48031 0.810216
C 7.68089 5.71372 5.5452
C 11.1416 5.97566 -0.0773371
C 12.0972 2.01638 4.70365
C 8.63256 9.92997 10.1417
C 7.02562 5.07936 4.35213
C 10.2402 6.66902 10.1822
O 5.82318 2.86547 7.00557
C 7.10488 2.46841 7.4366
H 7.76819 3.35568 7.45589
H 7.07148 2.06456 8.46701
H 7.56417 1.73373 6.74693
O 12.3017 1.46946 10.4097
C 11.2535 2.42673 10.2688
H 10.7382 2.31406 9.30229
H 10.6883 2.25079 -0.440538
H 11.6156 3.46464 10.3367
O 3.41865 5.95524 5.07683
C 4.12727 7.13768 4.7318
H 4.86129 6.93163 3.93917
H 3.43705 7.92293 4.37781
H 4.75196 7.53032 5.56081
O 3.60923 7.56871 1.85861
C 2.21505 7.54429 2.04518
H 1.6558 7.36706 1.11295
H 1.89622 8.5378 2.42203
H 1.93745 6.80295 2.81322
O 12.379 2.36564 7.61189
C 0.619181 2.41105 7.64326
H 0.965952 3.32032 7.11223
H 1.11139 1.5342 7.19501
H 0.951604 2.52927 8.68741
O 9.35128 9.5238 1.62728
C 10.7374 9.71787 1.74976
H 11.1933 10.0989 0.827226
H 10.9634 10.3657 2.61328
H 11.2261 8.73971 1.93049
O 9.66457 6.2131 4.29583
C 9.37017 7.43931 3.67294
H 9.45109 7.2894 2.58571
H 8.33364 7.82102 3.84621
H 10.1125 8.19551 3.99495
O -0.00552616 6.2892 10.5428
C 0.49641 5.15544 9.86304
H -0.206902 4.85724 9.05806
H 0.727131 4.29106 10.5249
H 1.46611 5.41249 9.3979
