ITEM: TIMESTEP
0
ITEM: NUMBER OF ATOMS
140
ITEM: BOX BOUNDS xy xz yz pp pp pp
-2.2759399999999999e-01 1.2505599999999999e+01 0.0000000000000000e+00
0.0000000000000000e+00 1.2523400000000001e+01 -2.2759399999999999e-01
0.0000000000000000e+00 1.0274279000000000e+01 0.0000000000000000e+00
ITEM: ATOMS id type x y z
1 1 3.17154 9.52504 9.0952
2 1 6.48894 2.81995 3.64719
3 2 1.06073 4.38766 4.10703
4 2 4.63928 8.43084 9.25985
5 2 5.03679 1.75168 3.7696
6 2 1.75015 10.6367 9.27682
7 2 6.14736 3.80046 5.07357
8 2 3.05313 8.43401 0.221551
9 2 -0.01126 2.1669 5.31165
10 2 3.91539 10.8346 0.0391562
11 3 3.87006 10.6385 7.57275
12 3 0.579102 1.93596 2.64012
13 3 2.29156 8.1893 7.8172
14 3 5.71723 4.2632 2.43728
15 4 3.94363 11.6191 5.31349
16 4 0.856035 0.807812 0.448848
17 5 3.50478 11.6818 4.33997
18 5 6.21899 0.493066 9.36887
19 4 5.13249 12.3604 5.59018
20 4 2.00536 0.05657 0.848075
21 4 5.67386 12.1583 6.86214
22 4 2.49264 0.397222 2.13874
23 5 12.339 0.269711 7.40635
24 5 3.48288 0.0651931 2.40241
25 4 2.10331 7.07246 5.61593
26 4 6.00637 5.91467 0.599593
27 5 2.4588 7.04771 4.59514
28 5 11.6901 5.46501 9.44053
29 4 2.85375 7.82797 6.60753
30 4 6.48065 4.80888 1.41598
31 5 3.83714 8.19396 6.34936
32 4 3.22876 10.9032 6.37553
33 4 0.0656241 1.57044 1.40972
34 4 5.03639 11.2948 7.81542
35 4 1.81854 1.39779 2.99121
36 5 5.41582 11.2308 8.7924
37 4 1.04198 7.64618 8.11836
38 4 4.50723 4.88312 2.72429
39 4 0.416957 6.6326 7.24752
40 4 4.04877 6.04365 1.97641
41 5 5.745 5.95891 6.62269
42 5 3.09242 6.48381 2.22758
43 4 0.957653 6.30176 5.9751
44 4 4.78613 6.57687 0.887852
45 4 5.75171 0.936337 4.60514
46 4 2.43895 11.3966 10.1803
47 4 0.342619 5.12646 5.00318
48 4 4.24861 7.83121 0.0409378
49 1 8.83045 9.17161 8.6829
50 1 12.1606 3.26205 3.90439
51 2 7.96303 3.84403 3.86688
52 2 10.2572 8.08683 8.87876
53 2 10.7125 2.16369 4.04271
54 2 7.36887 10.2276 8.81664
55 2 11.6175 4.53836 5.11004
56 2 8.24462 7.82972 9.75527
57 2 6.99196 1.47277 4.75582
58 2 9.11718 10.1358 10.1213
59 3 9.69212 10.59 7.51995
60 3 7.11276 1.77071 2.10223
61 3 8.2774 8.14701 7.11083
62 3 11.4619 4.38836 2.37459
63 4 9.53438 12.1713 5.61815
64 4 6.73248 0.38973 0.113846
65 5 9.01483 12.4373 4.71892
66 5 0.297681 0.760039 9.69627
67 4 10.7232 0.332632 5.96996
68 4 7.79925 12.0471 0.445704
69 4 11.388 12.3609 7.12593
70 4 8.58083 12.4336 1.542
71 5 6.58099 0.153983 7.14014
72 5 9.43462 11.8364 1.83667
73 4 8.95434 6.30184 5.6798
74 4 11.4547 5.39736 0.128745
75 5 9.77313 5.7163 5.40637
76 5 6.35046 6.21191 10.0078
77 4 9.20723 7.57202 6.27913
78 4 12.1374 4.66776 1.2003
79 5 7.43261 4.35819 1.17458
80 4 9.01234 11.0898 6.42333
81 4 6.31199 1.42334 1.02902
82 5 8.07496 10.637 6.13319
83 5 11.597 1.93345 1.11272
84 4 10.8808 11.2177 7.87801
85 4 8.29051 1.09619 2.25977
86 5 8.90317 1.34829 3.07588
87 4 6.99498 7.66522 7.05856
88 4 10.2779 5.05468 2.5855
89 5 6.22356 8.18037 7.58818
90 5 9.83007 4.97413 3.52116
91 4 6.68798 6.4329 6.4092
92 4 9.72092 5.98883 1.65486
93 5 11.9297 6.28379 7.47758
94 5 8.85567 6.57124 1.94472
95 4 7.66091 5.75731 5.63994
96 4 10.2809 6.16835 0.38916
97 4 11.3063 1.56047 5.10724
98 4 7.96187 10.7556 9.92583
99 4 7.33442 4.38536 4.95301
100 4 9.49022 7.28146 9.66876
101 6 1.84715 10.8083 6.32383
102 7 1.40494 10.2084 5.12343
103 5 0.974879 10.9904 4.46245
104 5 0.603338 9.4893 5.37309
105 5 2.18616 9.65191 4.5549
106 6 2.59261 2.09124 3.8962
107 7 2.4741 1.6743 5.23899
108 5 3.45526 1.6045 5.7046
109 5 1.89117 0.740615 5.38894
110 5 2.10087 2.51137 5.85843
111 6 0.226563 8.33054 8.99255
112 7 0.559222 7.91317 0.0627005
113 5 12.0787 7.83053 0.513222
114 5 0.917261 8.75029 0.689417
115 5 1.13999 6.97954 0.221212
116 6 3.62013 4.26857 3.57142
117 7 3.78329 4.70074 4.90485
118 5 2.84599 4.79336 5.40536
119 5 4.07042 3.86891 5.56251
120 5 4.35946 5.64193 5.02231
121 6 11.7413 10.5823 8.74369
122 7 11.5108 10.9268 10.0956
123 5 0.152905 11.0118 0.370403
124 5 11.4225 10.0437 0.395295
125 5 10.8819 11.8339 10.2592
126 6 5.08609 2.04 0.850216
127 7 4.82709 2.71148 9.8768
128 5 4.34757 2.05903 9.11585
129 5 4.21058 3.62454 9.975
130 5 5.82627 3.04393 9.50507
131 6 10.4016 8.21703 6.03231
132 7 10.3907 8.7103 4.70409
133 5 10.8999 7.98468 4.03408
134 5 10.9533 9.66304 4.66969
135 5 9.37517 8.94149 4.29831
136 6 1.0148 4.58192 1.19046
137 7 1.49885 3.97576 0.00938889
138 5 1.7535 4.7494 9.64952
139 5 2.2712 3.23676 0.29358
140 5 0.505431 3.44204 9.67346
