ITEM: TIMESTEP
0
ITEM: NUMBER OF ATOMS
140
ITEM: BOX BOUNDS xy xz yz pp pp pp
-2.2759399999999999e-01 1.2505599999999999e+01 0.0000000000000000e+00
0.0000000000000000e+00 1.2523400000000001e+01 -2.2759399999999999e-01
0.0000000000000000e+00 1.0274279000000000e+01 0.0000000000000000e+00
ITEM: ATOMS id type x y z
1 1 3.27387 9.37665 9.06765
2 1 6.49085 2.92242 3.72694
3 2 1.63304 4.08236 4.0674
4 2 4.8183 8.4236 9.27802
5 2 5.02636 1.8752 3.87912
6 2 1.73207 10.3298 9.2515
7 2 6.02091 4.10423 4.99596
8 2 3.12086 8.21867 0.0837416
9 2 0.519832 1.91165 5.21724
10 2 3.89121 10.6188 0.0480212
11 3 3.92587 10.6361 7.61731
12 3 0.887973 1.77123 2.55808
13 3 2.60733 8.03962 7.69683
14 3 5.7728 4.1629 2.33201
15 4 5.58651 11.2982 5.90786
16 4 0.770264 0.375783 0.519512
17 5 6.4182 11.0038 5.28029
18 5 6.42498 0.234969 9.5654
19 4 5.06152 0.0915524 5.79846
20 4 1.98066 12.2115 0.841197
21 4 3.94592 0.382817 6.60956
22 4 2.63975 0.123692 2.01338
23 5 3.56797 12.1753 2.30982
24 4 2.90349 6.00944 6.35819
25 4 6.11802 5.79245 0.517521
26 4 3.22835 6.8183 7.50293
27 4 6.56866 4.69187 1.3385
28 5 4.15019 6.59396 8.00633
29 5 1.07161 4.04607 1.03783
30 4 5.02969 10.3378 6.84194
31 4 0.186216 1.32366 1.45701
32 5 5.49805 9.36999 6.93686
33 5 5.7124 1.9303 0.883059
34 4 3.37117 11.9006 7.46521
35 4 2.0996 1.17502 2.83249
36 5 2.47514 12.1597 7.985
37 5 2.61635 1.44252 3.73884
38 4 1.41647 8.22232 7.02544
39 4 4.52637 4.72357 2.51482
40 5 0.960807 9.17546 7.04385
41 5 3.90317 4.33443 3.29793
42 4 0.824989 7.1715 6.21085
43 4 4.15317 5.97206 1.88918
44 5 6.45433 5.4241 7.4047
45 4 1.56999 6.0111 5.87316
46 4 4.89289 6.46309 0.788259
47 4 5.69929 1.18103 4.8456
48 4 2.38116 11.0584 10.217
49 4 0.95626 4.81981 4.99863
50 4 4.15731 7.74591 10.2722
51 1 9.38037 9.24636 8.84106
52 1 0.139086 3.07366 3.87882
53 2 7.95593 3.9738 3.90995
54 2 10.879 8.20474 9.0018
55 2 11.1433 2.07994 4.038
56 2 7.88155 10.2513 9.03151
57 2 12.1927 4.33019 5.11684
58 2 8.95624 8.04392 10.1138
59 2 6.92684 1.73624 5.0231
60 2 9.82041 10.4269 10.1129
61 3 10.0714 10.5214 7.44847
62 3 7.24412 1.67756 2.35056
63 3 8.67322 8.01298 7.46388
64 3 11.9652 4.27806 2.41959
65 4 9.77066 0.0473972 6.09984
66 4 7.12409 0.379308 0.255503
67 5 9.10388 0.842468 5.81789
68 4 11.1589 0.18201 5.85372
69 4 8.19331 12.0517 0.651326
70 4 11.9736 11.6807 6.39467
71 4 8.6907 12.2427 1.95831
72 4 8.77201 6.79524 5.33855
73 4 12.1549 5.55855 0.298547
74 5 6.51829 6.12218 9.99744
75 4 9.32119 7.74532 6.28174
76 4 0.137724 4.55165 1.24352
77 5 10.1655 8.35166 5.98773
78 5 7.55254 4.27669 1.16845
79 4 9.24169 11.4205 6.80032
80 4 6.61162 1.39449 1.15376
81 5 8.17423 11.3174 6.88776
82 5 11.717 1.74217 1.24353
83 4 11.4227 10.738 7.34367
84 4 8.32994 0.899562 2.69594
85 5 12.0643 10.3028 8.08282
86 5 8.84049 1.1021 3.61627
87 4 7.56926 7.25894 7.76613
88 4 10.7526 4.8948 2.60796
89 5 6.94096 7.57535 8.5678
90 5 10.1974 4.67853 3.50112
91 4 7.24473 6.06772 7.03956
92 4 10.2137 5.83022 1.66272
93 5 12.3515 7.32051 5.77795
94 5 9.18057 6.12441 1.74312
95 4 7.81229 5.82526 5.77258
96 4 10.9719 6.30403 0.580876
97 4 11.7671 1.41147 5.05132
98 4 8.56791 10.9423 9.98596
99 4 7.25084 4.66613 4.85172
100 4 10.1892 7.49685 9.95618
101 6 3.33638 1.61823 6.51732
102 7 3.82469 2.43563 7.55749
103 5 3.26993 3.39483 7.53741
104 5 3.64963 1.98309 8.56143
105 5 4.90408 2.66668 7.41438
106 6 -0.0270521 0.218517 9.54758
107 7 0.200818 1.38389 8.77121
108 5 11.7254 1.79055 8.45278
109 5 0.770061 2.20638 9.27039
110 5 0.767315 1.12139 7.8611
111 6 3.92668 5.65122 5.50829
112 7 4.60377 6.83604 5.1015
113 5 5.28884 6.60717 4.27131
114 5 3.91157 7.65186 4.78908
115 5 5.23815 7.23773 5.91038
116 6 3.37422 6.86496 2.60182
117 7 2.03509 6.83735 2.1866
118 5 1.90495 6.4699 1.15101
119 5 1.63244 7.87059 2.22897
120 5 1.43567 6.24663 2.88798
121 6 0.816552 11.6543 6.1116
122 7 1.01718 10.9689 4.89463
123 5 0.677369 11.5827 4.03577
124 5 0.513973 9.97548 4.87114
125 5 2.10493 10.7918 4.76635
126 6 9.19605 11.1546 2.64656
127 7 10.5915 11.2731 2.79501
128 5 11.1313 10.911 1.90127
129 5 10.9202 12.3031 3.02554
130 5 10.8973 10.6275 3.64195
131 6 9.02127 6.97211 4.00008
132 7 8.15026 7.96873 3.50002
133 5 7.13635 7.55198 3.33549
134 5 8.1002 8.87761 4.14483
135 5 8.52964 8.30927 2.51603
136 6 0.0742922 5.73489 9.37203
137 7 11.9708 4.91674 8.39108
138 5 0.263492 4.40003 7.82286
139 5 11.3911 5.555 7.69202
140 5 11.2874 4.12234 8.77938
