ITEM: TIMESTEP
0
ITEM: NUMBER OF ATOMS
140
ITEM: BOX BOUNDS xy xz yz pp pp pp
-2.5324287161632569e-01 1.3165639448251101e+01 0.0000000000000000e+00
0.0000000000000000e+00 9.8717712728561295e+00 -2.5324287161632569e-01
0.0000000000000000e+00 1.1432146355999301e+01 0.0000000000000000e+00
ITEM: ATOMS id type x y z
1 1 2.84625 8.94287 9.21837
2 1 6.27074 3.4619 3.18048
3 2 1.19915 4.67335 3.82627
4 2 4.37471 8.03831 9.37969
5 2 4.81284 2.48512 3.2921
6 2 1.34256 0.00098461 9.37304
7 2 5.7789 4.58666 4.43166
8 2 2.4793 7.87348 10.5396
9 2 0.172353 2.52286 4.8835
10 2 3.2914 0.317043 10.3749
11 3 3.42854 0.181366 7.72871
12 3 0.443504 2.55253 2.31802
13 3 2.15548 7.64146 8.00536
14 3 5.60544 4.65987 1.82602
15 4 3.57399 0.535448 5.33674
16 4 0.214729 1.74553 0.0624017
17 5 3.17486 0.353978 4.34695
18 5 6.03896 0.941964 10.2564
19 4 4.69488 1.34345 5.50066
20 4 1.59094 1.38048 0.0468451
21 4 5.04529 1.73895 6.80899
22 4 2.33829 1.57804 1.22381
23 5 3.35437 1.21827 1.29427
24 4 2.51406 6.2646 6.07366
25 4 5.53038 5.78242 11.1255
26 4 2.97601 6.8283 7.27906
27 4 6.32702 4.94564 0.692745
28 5 4.01958 6.75065 7.52209
29 5 0.955914 5.14025 1.37519
30 4 2.94038 9.84512 6.45794
31 4 12.8241 2.20483 1.27543
32 5 2.0006 9.3422 6.309
33 5 5.25869 2.3156 0.607511
34 4 4.37431 1.16012 7.91067
35 4 1.75562 2.20117 2.33488
36 5 4.51923 1.59708 8.87953
37 5 2.3488 2.40489 3.21093
38 4 0.806302 7.52449 7.84569
39 4 4.40398 5.29001 2.01977
40 5 0.145135 7.95843 8.56885
41 5 3.77302 4.99289 2.83977
42 4 0.277384 6.70268 6.84504
43 4 4.05145 6.41245 1.23607
44 5 5.91953 5.62415 6.78857
45 4 1.11428 6.14819 5.87299
46 4 4.37536 6.52963 11.4023
47 4 5.44714 1.84354 4.30438
48 4 2.01227 0.739046 10.2903
49 4 0.492972 5.32882 4.77333
50 4 3.72339 7.39804 10.3803
51 1 9.4623 8.30487 9.03407
52 1 12.9012 3.68469 3.6386
53 2 7.72656 4.44426 3.37683
54 2 10.9332 7.32754 9.22307
55 2 11.4419 2.69197 3.74669
56 2 7.98646 9.28046 9.14556
57 2 12.4077 4.82567 4.8799
58 2 8.98155 7.1538 10.2729
59 2 6.70433 2.30773 4.43123
60 2 9.88142 9.44778 10.2863
61 3 10.1851 9.4866 7.70259
62 3 6.99212 2.29481 1.84199
63 3 8.80532 7.13394 7.6877
64 3 12.2265 4.84214 2.27048
65 4 10.1344 0.646274 5.52465
66 4 6.60867 1.2031 11.1273
67 5 9.64337 0.759287 4.57386
68 4 11.3857 1.24204 5.76177
69 4 7.90825 0.714424 11.2819
70 4 11.9002 1.18977 7.05295
71 4 8.73947 0.782985 1.12583
72 4 9.00317 6.17519 5.49187
73 4 12.5427 5.87427 0.0965495
74 5 5.99808 5.83249 10.1571
75 4 9.57632 6.79447 6.61549
76 4 13.0607 5.32746 1.30065
77 5 10.5517 7.22688 6.51702
78 5 7.27661 4.46644 0.520018
79 4 9.50529 9.78169 6.55016
80 4 6.2657 1.94761 0.731305
81 5 8.50528 9.39984 6.39625
82 5 11.7721 2.39301 1.35227
83 4 11.422 0.166741 7.90259
84 4 8.23163 1.74081 2.03221
85 5 11.9918 9.74811 8.7604
86 5 8.78497 1.97258 2.92644
87 4 7.49984 6.7315 7.74005
88 4 10.8741 4.88455 2.07197
89 5 6.8733 7.061 8.55085
90 5 10.2137 4.41304 2.77545
91 4 6.93829 5.97349 6.70263
92 4 10.3235 5.43908 0.913682
93 5 12.4218 6.38621 6.91369
94 5 9.25115 5.48031 0.810216
95 4 7.68089 5.71372 5.5452
96 4 10.8884 5.97566 11.3548
97 4 12.0972 2.01638 4.70365
98 4 8.63256 0.0581965 10.1417
99 4 7.02562 5.07936 4.35213
100 4 10.2402 6.66902 10.1822
101 6 5.82318 2.86547 7.00557
102 7 7.10488 2.46841 7.4366
103 5 7.76819 3.35568 7.45589
104 5 7.07148 2.06456 8.46701
105 5 7.56417 1.73373 6.74693
106 6 12.3017 1.46946 10.4097
107 7 11.2535 2.42673 10.2688
108 5 10.7382 2.31406 9.30229
109 5 10.435 2.25079 10.9916
110 5 11.6156 3.46464 10.3367
111 6 3.41865 5.95524 5.07683
112 7 4.12727 7.13768 4.7318
113 5 4.86129 6.93163 3.93917
114 5 3.43705 7.92293 4.37781
115 5 4.75196 7.53032 5.56081
116 6 3.60923 7.56871 1.85861
117 7 2.21505 7.54429 2.04518
118 5 1.6558 7.36706 1.11295
119 5 1.89622 8.5378 2.42203
120 5 1.93745 6.80295 2.81322
121 6 12.379 2.36564 7.61189
122 7 0.619181 2.41105 7.64326
123 5 0.965952 3.32032 7.11223
124 5 1.11139 1.5342 7.19501
125 5 0.951604 2.52927 8.68741
126 6 9.35128 9.5238 1.62728
127 7 10.7374 9.71787 1.74976
128 5 11.1933 0.22711 0.827226
129 5 10.9634 0.493963 2.61328
130 5 11.2261 8.73971 1.93049
131 6 9.66457 6.2131 4.29583
132 7 9.37017 7.43931 3.67294
133 5 9.45109 7.2894 2.58571
134 5 8.33364 7.82102 3.84621
135 5 10.1125 8.19551 3.99495
136 6 -0.00552616 6.2892 10.5428
137 7 0.49641 5.15544 9.86304
138 5 12.9587 4.85724 9.05806
139 5 0.727131 4.29106 10.5249
140 5 1.46611 5.41249 9.3979
