140
Atoms. Timestep: 0
Ni 2.89857 9.41116 8.59265
Ni 6.17525 3.10579 3.48481
O 1.44827 4.35425 3.93374
O 4.4416 8.15245 9.05464
O 4.63665 1.84729 3.87523
O 1.36499 10.6744 9.00295
O 5.80609 4.46033 4.96242
O 2.54244 8.0327 10.0675
O 0.25117 1.69264 4.94273
O 3.23722 10.8047 10.0626
N 3.69677 10.6606 7.2416
N 0.71256 1.8642 2.11704
N 2.17217 8.14409 7.25198
N 5.44023 4.39481 2.13747
C 3.48546 12.1483 5.36301
C 0.47488 0.38955 0.2292
H 2.86453 12.5181 4.55267
H 5.86971 0.03371 9.69377
C 4.76073 0.1474 5.61481
C 1.74333 12.3699 0.47412
C 5.50345 12.1502 6.68209
C 2.49852 0.35508 1.54004
H 0.24768 12.5084 6.91993
H 3.49155 12.5067 1.77336
C 2.48363 6.6337 5.40822
C 5.72803 5.90364 0.28669
H 3.13294 6.27291 4.61605
H -0.10828 6.26667 9.7662
C 2.92756 7.68099 6.23068
C 6.1883 4.86756 1.11596
H 3.89994 8.14655 6.0889
C 2.98256 11.1359 6.19748
C -0.01036 1.40553 1.07106
C 4.93641 11.1381 7.47507
C 1.94823 1.3719 2.3406
H 5.48559 10.7097 8.30944
C 0.94573 7.62654 7.47302
C 4.21083 4.90458 2.35686
C 0.43859 6.57577 6.69176
C 3.68763 5.945 1.56944
H 5.70774 6.17693 6.91975
H 2.69824 6.32683 1.80071
C 1.22745 6.06471 5.65205
C 4.46338 6.45777 0.52027
C 5.3126 1.24381 4.79419
C 2.0502 11.2675 9.92158
C 0.73548 4.94016 4.83586
C 3.73174 7.56629 9.95688
Ni 9.15137 9.41116 8.59265
Ni 12.4281 3.10579 3.48481
O 7.70109 4.35425 3.93374
O 10.6944 8.15245 9.05464
O 10.8895 1.84729 3.87523
O 7.61779 10.6744 9.00295
O 12.0589 4.46033 4.96242
O 8.79524 8.0327 10.0675
O 6.50397 1.69264 4.94273
O 9.49002 10.8047 10.0626
N 9.94957 10.6606 7.2416
N 6.96536 1.8642 2.11704
N 8.42499 8.14409 7.25198
N 11.693 4.39481 2.13747
C 9.73826 12.1483 5.36301
C 6.72768 0.38955 0.2292
H 9.11733 12.5181 4.55267
H 12.1225 0.03371 9.69377
C 11.0135 0.1474 5.61481
C 7.99613 12.3699 0.47412
C 11.7562 12.1502 6.68209
C 8.75132 0.35508 1.54004
H 6.50047 12.5084 6.91993
H 9.74435 12.5067 1.77336
C 8.73644 6.6337 5.40822
C 11.9808 5.90364 0.28669
H 9.38574 6.27291 4.61605
H 6.14452 6.26667 9.7662
C 9.18036 7.68099 6.23068
C 12.4411 4.86756 1.11596
H 7.16869 4.41889 0.97634
C 9.23536 11.1359 6.19748
C 6.24244 1.40553 1.07106
H 8.24672 10.709 6.04703
H 11.5137 1.85011 0.92351
C 11.1892 11.1381 7.47507
C 8.20102 1.3719 2.3406
H 8.76167 1.79214 3.17267
C 7.19853 7.62654 7.47302
C 10.4636 4.90458 2.35686
H 6.61608 8.05184 8.28732
H 9.88885 4.47744 3.17528
C 6.69139 6.57577 6.69176
C 9.94043 5.945 1.56944
H 11.9605 6.17693 6.91975
H 8.95104 6.32683 1.80071
C 7.48025 6.06471 5.65205
C 10.7162 6.45777 0.52027
C 11.5654 1.24381 4.79419
C 8.303 11.2675 9.92158
C 6.98827 4.94016 4.83586
C 9.98454 7.56629 9.95688
O 1.71375 10.6385 5.90597
C 1.07252 9.64718 6.62089
H 0.08059 9.45591 6.16279
H 0.91802 9.96925 7.67281
H 1.66216 8.70619 6.58882
O 2.73831 1.85598 3.38508
C 2.35749 2.84862 4.26521
H 3.18128 3.02724 4.98621
H 1.45523 2.53525 4.83252
H 2.15863 3.79418 3.71699
O 0.12888 8.11709 8.49136
C 0.46985 9.14285 9.3496
H 12.1363 9.31856 10.0534
H 0.65205 10.0783 8.77882
H 1.37132 8.86907 9.93831
O 3.4011 4.4154 3.3837
C 3.75483 3.40032 4.24943
H 2.92013 3.22311 4.95812
H 3.9433 2.46157 3.68605
H 4.65607 3.68739 4.8321
O 11.9662 10.6415 8.52374
C 11.5679 9.65058 9.39809
H -0.12107 9.4603 10.1242
H 11.362 8.70907 8.84554
H 10.6654 9.97261 9.96011
O 4.98088 1.92437 0.78432
C 4.35641 2.92157 1.50587
H 3.36687 3.13095 1.05051
H 4.19854 2.59603 2.55623
H 4.96068 3.85338 1.47811
O 10.4318 8.22683 5.95448
C 11.0161 9.2577 6.66219
H 12.008 9.48269 6.21942
H 11.1633 8.96201 7.72288
H 10.3879 10.1719 6.60077
O 1.19787 4.34349 0.84428
C 1.79936 3.32654 1.55772
H 2.79608 3.11773 1.11803
H 1.93879 3.62946 2.61741
H 1.18803 2.4008 1.499
140
Atoms. Timestep: 448
Ni 2.6423 9.19007 8.84218
Ni 6.41311 3.06332 3.78826
O 0.347368 4.56669 4.20946
O 4.00779 8.08286 8.91295
O 4.92203 2.12315 3.85612
O 1.29984 10.315 8.98063
O 6.15174 3.93849 5.28995
O 2.43964 8.12806 0.655635
O -0.596733 2.3605 5.3867
O 3.25834 10.4223 10.0202
N 3.41986 10.1947 7.40991
N 0.0273902 2.28044 2.82428
N 1.68051 7.99324 7.64808
N 5.6544 4.52994 2.78836
C 3.56981 11.1951 5.23395
C 0.489125 1.38459 0.626147
H 3.17634 11.2551 4.26775
H 5.63988 10.8937 10.2462
C 4.89409 11.644 5.48424
C 1.64524 0.738116 1.0755
C 5.49326 11.2079 6.6454
C 2.09225 1.06726 2.34644
H -0.870722 0.31552 7.25606
H 3.12061 12.3155 2.56582
C 1.32746 7.03196 5.46715
C 5.58139 5.98616 0.857146
H 1.66066 6.92758 4.44618
H 12.595 5.94927 9.22596
C 2.16319 7.67098 6.42077
C 6.25156 5.03642 1.66614
H 3.14615 8.00348 6.13428
C 2.79241 10.5737 6.2627
C -0.38279 2.01816 1.55572
C 4.76796 10.4269 7.54929
C 1.32271 1.93246 3.18568
H 5.29286 9.99291 8.37329
C 0.373369 7.63307 7.96014
C 4.41191 4.99004 3.16087
C -0.326762 6.70173 7.12784
C 3.68496 5.88708 2.32711
H 6.03634 6.69432 5.6282
H 2.63452 6.06795 2.51473
C 0.16903 6.37377 5.88501
C 4.29564 6.44714 1.21032
C 5.59639 1.22115 4.57924
C 2.03473 11.0188 9.83611
C -0.40981 5.25016 5.05284
C 3.61289 7.50315 0.371555
Ni 9.32077 8.85536 8.47834
Ni 13.102 3.4485 4.01592
O 7.92107 3.94499 3.97436
O 10.8094 7.93229 8.65377
O 11.7375 2.33232 4.03263
O 7.79262 9.73141 8.56274
O 12.4436 4.65555 5.19618
O 8.78198 7.42875 9.41816
O 6.89838 1.62201 4.73759
O 9.69138 9.74886 0.408702
N 10.14 10.3055 7.49868
N 6.95884 2.19587 2.19656
N 8.89582 7.96297 6.86729
N 12.3523 4.47879 2.59494
C 10.3149 11.6897 5.52212
C 6.5457 11.6842 0.859301
H 9.88603 0.602861 4.58744
H -0.0366268 1.2624 9.17587
C 11.5998 0.703865 5.90353
C 7.92653 11.4654 0.730685
C 12.1601 11.5874 7.05433
C 8.79493 1.00679 1.21227
H 6.53207 11.4241 6.83984
H 9.85144 0.915112 1.07191
C 9.29464 5.82871 5.89357
C 12.3015 5.63155 0.499717
H 9.9829 5.00796 5.74713
H 5.84162 6.35157 9.53097
C 9.76532 7.08633 6.2889
C 13.0252 4.943 1.51098
H 7.22212 4.67747 1.36143
C 9.59363 10.7884 6.33967
C 6.09644 1.46286 1.4234
H 8.62995 10.4376 6.01329
H 12.7322 2.35927 1.23471
C 11.386 10.7387 7.89066
C 8.30926 2.01363 2.02659
H 9.02109 2.51631 2.66068
C 7.57842 7.89294 6.5011
C 11.0058 4.749 2.72713
H 6.8986 8.6899 6.73177
H 10.4806 4.4221 3.61244
C 7.06988 6.73721 5.91684
C 10.2978 5.50138 1.77919
H 12.7308 6.46383 7.31625
H 9.25125 5.70859 1.93453
C 7.91283 5.64603 5.72393
C 10.9566 6.01104 0.680159
C 12.3243 1.7339 5.06645
C 8.23979 10.2118 9.72324
C 7.40172 4.40998 5.10546
C 10.0939 7.04222 9.3482
O 1.39938 10.5845 6.22143
C 0.866015 10.1534 4.98203
H 0.595581 11.0226 4.35003
H -0.074055 9.61083 5.18283
H 1.52717 9.47545 4.40164
O 2.01281 2.75038 4.05746
C 2.03456 2.30442 5.3983
H 3.08179 2.23107 5.74044
H 1.48654 1.37008 5.57278
H 1.58786 3.07123 6.0548
O -0.385781 8.47996 8.74106
C -0.199608 8.16288 0.548427
H 12.8348 8.13987 0.896677
H 0.252716 8.98167 1.13408
H 0.297818 7.22133 0.815899
O 3.77841 4.40051 4.22493
C 3.71002 5.25891 5.33304
H 2.74122 5.08707 5.82456
H 4.39804 5.01598 6.15747
H 3.87077 6.3114 5.07067
O 11.9624 10.1936 9.00412
C 12.1303 11.0798 0.523366
H 13.0751 10.9479 1.0789
H 11.4291 10.7681 1.3101
H 11.6962 0.709135 9.8187
O 4.81491 1.9161 1.17671
C 4.55023 2.48107 9.45541
H 4.77275 1.73627 8.66913
H 3.52095 2.84744 9.26526
H 5.2331 3.3447 9.34912
O 11.0484 7.4834 5.9798
C 11.0604 8.02717 4.67886
H 10.7286 7.29533 3.92442
H 12.0994 8.31168 4.41697
H 10.439 8.9386 4.6066
O 0.329001 4.96748 1.529
C 0.681118 4.53064 9.87519
H 1.04293 5.3981 9.29257
H 1.77816 3.91597 0.523966
H 0.0122351 3.92266 9.22805
140
Atoms. Timestep: 6235
Ni 2.65842 9.31766 8.9197
Ni 6.41991 2.95821 3.61888
O 0.355491 4.62733 4.30018
O 4.0637 8.25823 9.01627
O 4.88675 2.08921 3.75917
O 1.28288 10.4015 9.03701
O 6.28028 3.80283 5.14913
O 2.47478 8.24508 0.742791
O -0.647401 2.45914 5.528
O 3.43763 10.575 0.517391
N 3.408 10.3408 7.46942
N -0.0510767 2.33587 2.95217
N 1.74247 8.09082 7.7339
N 5.66885 4.48818 2.70212
C 3.56759 11.1273 5.19275
C 0.330779 1.3688 0.771793
H 3.23975 10.9627 4.1921
H 5.86502 10.4612 1.04142
C 4.86839 11.644 5.4235
C 1.5191 0.757431 1.19537
C 5.44361 11.3888 6.65406
C 1.98855 1.09693 2.45263
H 13.0928 11.854 7.42647
H 3.00986 0.898413 2.6803
C 1.4708 7.01357 5.59684
C 5.6641 6.1328 0.924583
H 1.81478 6.906 4.58112
H 12.5999 5.57322 9.09459
C 2.27422 7.6962 6.54639
C 6.29434 5.08457 1.63958
H 3.27233 8.00702 6.28185
C 2.785 10.609 6.2804
C -0.511066 2.02764 1.70864
C 4.73879 10.655 7.61483
C 1.25909 1.99688 3.27358
H 5.2691 10.2997 8.46825
C 0.420307 7.7586 8.01456
C 4.47124 4.99879 3.14854
C -0.277594 6.8369 7.193
C 3.75962 5.9642 2.38143
H 6.23047 6.66605 5.13378
H 2.74741 6.22822 2.64915
C 0.256129 6.43545 5.98474
C 4.37088 6.57357 1.28448
C 5.56162 1.14037 4.43087
C 1.98281 11.127 9.8977
C -0.375322 5.34711 5.13642
C 3.68533 7.66731 0.478666
Ni 9.3193 8.71735 8.36986
Ni 13.0755 3.54442 4.13313
O 7.98263 3.77264 3.74639
O 10.8421 7.83998 8.55056
O 11.6749 2.47642 4.17775
O 7.75441 9.54248 8.4566
O 12.4639 4.78975 5.2961
O 8.81735 7.23792 9.23781
O 6.88466 1.47688 4.50692
O 9.63022 9.55396 0.337056
N 10.104 10.2425 7.47802
N 6.82052 2.09541 1.95633
N 8.96937 7.86208 6.69484
N 12.366 4.57807 2.68122
C 10.1906 11.8564 5.6749
C 6.49208 11.3395 1.04209
H 9.70838 0.880936 4.81558
H -0.185686 1.29478 9.31268
C 11.4939 0.833574 6.0475
C 7.84118 11.2511 0.683641
C 12.0671 11.6439 7.16312
C 8.63446 0.969891 0.830581
H 6.45223 11.7202 6.86734
H 9.61254 1.01885 0.385985
C 9.38739 5.69286 5.78588
C 12.3455 5.52478 0.470579
H 10.059 4.85152 5.74414
H 5.96406 6.581 9.65359
C 9.85308 6.96204 6.17355
C 13.062 4.95987 1.56851
H 7.26491 4.7403 1.32198
C 9.51531 10.8393 6.39517
C 5.97457 1.16206 1.43582
H 8.53891 10.5181 6.06626
H 12.5995 2.37369 1.40098
C 11.304 10.7275 7.94075
C 8.12175 2.08697 1.51355
H 8.76823 2.93169 1.69099
C 7.67317 7.80473 6.24838
C 11.019 4.84989 2.76239
H 7.00198 8.63583 6.40159
H 10.4576 4.48794 3.59856
C 7.19881 6.65383 5.59801
C 10.3491 5.59534 1.78499
H 12.7729 6.64701 7.37838
H 9.32024 5.889 1.94729
C 8.03295 5.53607 5.47796
C 11.0064 5.9552 0.622561
C 12.2374 1.87553 5.22205
C 8.17963 10.0072 9.64282
C 7.5253 4.25678 4.91032
C 10.1393 6.89618 9.19975
O 1.39406 10.6357 6.23748
C 0.858304 10.091 5.04654
H 0.518247 10.9137 4.38746
H -0.0379909 9.49229 5.30662
H 1.5527 9.43918 4.47225
O 1.99034 2.83342 4.08757
C 2.05862 2.39656 5.42653
H 3.11571 2.28863 5.72764
H 1.51229 1.46673 5.63217
H 1.64773 3.18316 6.09046
O -0.337779 8.59984 8.79883
C -0.212483 8.18247 0.573083
H 12.811 8.08475 0.86578
H 0.190706 8.97693 1.23224
H 0.319607 7.24777 0.798335
O 3.87417 4.44031 4.2559
C 3.9238 5.30442 5.3675
H 3.01895 5.11659 5.96701
H 4.71518 5.06443 6.09151
H 4.02264 6.3702 5.08542
O 11.8508 10.1865 9.08159
C 11.9654 11.068 0.6034
H 12.8628 10.9149 1.22381
H 11.1709 10.8121 1.31859
H 11.8315 0.699544 0.300151
O 4.682 1.50771 1.11431
C 4.46862 2.24357 9.48033
H 5.1748 1.84789 8.71591
H 3.45183 2.19889 9.03934
H 4.69458 3.30907 9.67958
O 11.1362 7.35298 5.86555
C 11.1307 8.01155 4.61785
H 10.5683 7.4543 3.83747
H 12.1773 8.10277 4.26253
H 10.7189 9.03614 4.71539
O 0.365743 5.03477 1.62404
C 0.99569 4.49112 0.477707
H 1.21874 5.31379 9.44681
H 1.83828 3.84903 0.806326
H 0.123687 3.8897 9.3847
140
Atoms. Timestep: 6243
Ni 2.65903 9.29381 8.91621
Ni 6.42005 2.98501 3.62075
O 0.35471 4.64294 4.29769
O 4.0631 8.23934 9.00916
O 4.88704 2.12238 3.7569
O 1.2853 10.3716 9.02975
O 6.27955 3.82487 5.14963
O 2.47283 8.2254 0.747385
O -0.644008 2.48516 5.52799
O 3.44018 10.5455 0.521803
N 3.40744 10.3137 7.47001
N -0.0519421 2.36186 2.95681
N 1.74488 8.07147 7.7342
N 5.67218 4.50569 2.70862
C 3.56838 11.0884 5.19165
C 0.331867 1.40803 0.775135
H 3.24007 10.9243 4.1923
H 5.86417 10.4218 1.04474
C 4.86991 11.5995 5.42322
C 1.52059 0.801813 1.19884
C 5.44444 11.3485 6.65243
C 1.98949 1.13552 2.45381
H 13.0926 11.81 7.42383
H 3.01059 0.941201 2.68164
C 1.47115 7.00784 5.59537
C 5.66393 6.13566 0.927063
H 1.81541 6.90065 4.58005
H 12.5991 5.57826 9.08996
C 2.27569 7.68348 6.54522
C 6.29549 5.09432 1.64314
H 3.27351 7.99334 6.2812
C 2.78517 10.5755 6.28011
C -0.510924 2.06022 1.71216
C 4.73927 10.6201 7.61314
C 1.25993 2.02825 3.27646
H 5.26928 10.2668 8.46645
C 0.421163 7.74459 8.01291
C 4.47189 5.00885 3.15167
C -0.276758 6.83012 7.18951
C 3.75938 5.96736 2.38313
H 6.23046 6.66318 5.13353
H 2.74719 6.22905 2.65117
C 0.256195 6.43481 5.98333
C 4.37066 6.57198 1.28739
C 5.56209 1.1763 4.43195
C 1.98384 11.0918 9.89367
C -0.374746 5.35758 5.13699
C 3.68584 7.65423 0.483602
Ni 9.31895 8.69869 8.36704
Ni 13.0747 3.56614 4.13439
O 7.98218 3.79407 3.74525
O 10.8418 7.82758 8.54352
O 11.6754 2.50317 4.17542
O 7.7547 9.51845 8.4508
O 12.4608 4.80618 5.29579
O 8.81598 7.22251 9.23302
O 6.88596 1.50704 4.50692
O 9.41878 9.53052 9.90446
N 10.1004 10.2148 7.47978
N 6.8206 2.1305 1.96164
N 8.96901 7.85155 6.69554
N 12.366 4.59636 2.68701
C 10.1905 11.814 5.67263
C 6.49193 11.2941 1.04414
H 9.7081 0.925536 4.81357
H -0.184686 1.334 9.30704
C 11.4938 0.877356 6.04572
C 7.84017 11.2083 0.687671
C 12.0671 11.6019 7.16017
C 8.63367 1.01271 0.83471
H 6.45331 11.6775 6.86538
H 9.6123 1.06083 0.390492
C 9.38714 5.69235 5.78337
C 12.3444 5.53001 0.473888
H 10.0594 4.85697 5.74269
H 5.96427 6.58051 9.64687
C 9.85251 6.95524 6.17211
C 13.0614 4.97135 1.57294
H 7.26557 4.75181 1.32609
C 9.51396 10.8037 6.39395
C 5.97487 1.20098 1.4389
H 8.53795 10.4839 6.06566
H 12.5979 2.40468 1.40499
C 11.3032 10.6922 7.93907
C 8.12199 2.12447 1.51855
H 8.76938 2.96307 1.69616
C 7.67272 7.79696 6.24854
C 11.0184 4.86078 2.7657
H 7.00063 8.62202 6.40202
H 10.457 4.50111 3.60172
C 7.19933 6.6514 5.59734
C 10.3482 5.60054 1.78818
H 12.772 6.64401 7.37517
H 9.31911 5.89242 1.95012
C 8.03359 5.53838 5.4774
C 11.0048 5.95596 0.626736
C 12.2365 1.90788 5.22229
C 8.17784 9.97499 9.63971
C 7.52687 4.27002 4.912
C 10.1388 6.88661 9.1959
O 1.39495 10.6028 6.23848
C 0.858591 10.0593 5.04648
H 0.51816 10.8804 4.38671
H -0.0386458 9.46482 5.30665
H 1.55397 9.41181 4.47067
O 1.99105 2.86648 4.08871
C 2.06113 2.42694 5.42697
H 3.11654 2.32037 5.7277
H 1.51122 1.50188 5.63256
H 1.64741 3.21068 6.09129
O -0.337007 8.5872 8.79529
C -0.213467 8.16709 0.578295
H 12.8099 8.07057 0.870697
H 0.192509 8.95863 1.23787
H 0.322069 7.2369 0.803568
O 3.87437 4.4483 4.2564
C 3.92435 5.31148 5.37014
H 3.01958 5.12448 5.96701
H 4.71557 5.07366 6.09208
H 4.02372 6.37537 5.08503
O 11.8504 10.1491 9.07737
C 11.9645 11.0296 0.610758
H 12.8619 10.8768 1.2285
H 11.1702 10.7758 1.32388
H 11.618 0.749495 9.86654
O 4.68252 1.54506 1.12174
C 4.46722 2.27486 9.47348
H 5.17604 1.88198 8.71109
H 3.45158 2.23109 9.03496
H 4.69551 3.33835 9.67504
O 11.1355 7.34449 5.86808
C 11.1326 7.99764 4.61653
H 10.5668 7.44316 3.83731
H 12.1774 8.08853 4.26286
H 10.7173 9.01957 4.71533
O 0.366156 5.04654 1.62954
C 0.996551 4.50385 0.482054
H 1.22065 5.32489 9.44116
H 1.84051 3.86605 0.810956
H 0.12423 3.90655 9.37826
140
Atoms. Timestep: 9810
Ni 2.65493 9.30249 8.92859
Ni 6.42893 2.96365 3.61217
O 0.352139 4.65927 4.30873
O 4.05697 8.24482 9.02308
O 4.89046 2.11045 3.7513
O 1.28401 10.3834 9.04203
O 6.30615 3.78776 5.1524
O 2.47152 8.23626 0.764919
O -0.644321 2.49772 5.54017
O 3.43923 10.5581 0.528219
N 3.39974 10.3185 7.47383
N -0.0464642 2.37495 2.97191
N 1.73924 8.07915 7.75417
N 5.68651 4.50738 2.72147
C 3.55651 11.0759 5.188
C 0.31465 1.39532 0.800119
H 3.21923 10.9121 4.18976
H 5.84636 10.3959 1.05749
C 4.86429 11.578 5.40812
C 1.51915 0.81157 1.21006
C 5.43939 11.3383 6.64078
C 1.99833 1.15677 2.46028
H 13.0844 11.8076 7.4401
H 3.02075 0.959294 2.68331
C 1.48087 6.99906 5.62356
C 5.66896 6.14691 0.943897
H 1.83397 6.88403 4.61212
H 12.5789 5.48906 9.0559
C 2.278 7.6779 6.57477
C 6.30605 5.10477 1.657
H 3.27753 7.98718 6.31697
C 2.77415 10.5771 6.28384
C -0.520126 2.04944 1.74052
C 4.73225 10.6249 7.61205
C 1.26918 2.04908 3.28461
H 5.26354 10.2712 8.46425
C 0.41459 7.75513 8.0307
C 4.4921 5.01693 3.17593
C -0.283996 6.84266 7.20588
C 3.76995 5.9708 2.40721
H 6.28904 6.66982 5.02741
H 2.75653 6.22822 2.67642
C 0.253812 6.44371 5.99933
C 4.37401 6.57826 1.30637
C 5.55941 1.14809 4.40782
C 1.98579 11.1089 9.89774
C -0.380918 5.37681 5.14167
C 3.68075 7.65775 0.496786
Ni 9.31137 8.67844 8.34986
Ni 13.0766 3.57836 4.14362
O 7.99801 3.7602 3.73736
O 10.8398 7.81637 8.53373
O 11.6798 2.51117 4.18412
O 7.73886 9.48593 8.43103
O 12.4582 4.81966 5.30183
O 8.81518 7.18489 9.19235
O 6.88662 1.46873 4.47693
O 9.38828 9.49382 9.89831
N 10.0873 10.2181 7.48617
N 6.80888 2.12227 1.93856
N 8.9891 7.8452 6.663
N 12.3724 4.60765 2.68898
C 10.1836 11.8314 5.68717
C 6.4711 11.2758 1.04016
H 9.70553 0.949249 4.82703
H -0.212998 1.31224 9.33617
C 11.489 0.88784 6.06069
C 7.81492 11.188 0.665429
C 12.0567 11.6073 7.17821
C 8.60598 1.00169 0.786717
H 6.44995 11.6672 6.84827
H 9.56869 1.05706 0.310347
C 9.40593 5.66474 5.79476
C 12.3429 5.49611 0.454381
H 10.0701 4.81602 5.78313
H 5.96404 6.5967 9.66122
C 9.87361 6.9371 6.16065
C 13.0645 4.96025 1.56382
H 7.27729 4.76604 1.33719
C 9.50302 10.8188 6.40388
C 5.95828 1.19202 1.42467
H 8.52667 10.5026 6.07207
H 12.5835 2.38782 1.44287
C 11.2857 10.699 7.95496
C 8.10398 2.11659 1.47889
H 8.75267 2.96117 1.64972
C 7.70204 7.797 6.19105
C 11.0282 4.88777 2.77256
H 7.03488 8.63476 6.32527
H 10.4688 4.54 3.61536
C 7.23403 6.64604 5.5383
C 10.3565 5.61076 1.78279
H 12.7648 6.65369 7.39122
H 9.33037 5.91408 1.94494
C 8.05702 5.51569 5.46542
C 11.006 5.93314 0.6058
C 12.2407 1.91285 5.22988
C 8.14959 9.94115 9.62611
C 7.5519 4.236 4.90841
C 10.1408 6.8582 9.16445
O 1.38287 10.6105 6.24494
C 0.838995 10.0639 5.0584
H 0.501789 10.886 4.39704
H -0.0600987 9.47161 5.32397
H 1.52696 9.40584 4.48407
O 1.99962 2.89043 4.09482
C 2.07096 2.45594 5.43458
H 3.12869 2.33882 5.73102
H 1.51999 1.53033 5.64485
H 1.66659 3.2466 6.09793
O -0.341419 8.59753 8.81587
C -0.222582 8.17463 0.597162
H 12.798 8.06376 0.881571
H 0.171302 8.97035 1.26079
H 0.317087 7.24549 0.822861
O 3.91221 4.4726 4.29952
C 3.98861 5.35004 5.39912
H 3.10762 5.15778 6.03294
H 4.81064 5.13341 6.09549
H 4.06402 6.41296 5.09915
O 11.8219 10.1616 9.10255
C 11.9131 11.0429 0.63147
H 12.7943 10.8861 1.27441
H 11.0988 10.7936 1.32599
H 11.5791 0.764482 9.88518
O 4.67315 1.54874 1.08605
C 4.48054 2.29054 9.44611
H 5.21511 1.91386 8.6984
H 3.47724 2.22995 8.97681
H 4.681 3.35867 9.6586
O 11.1526 7.32656 5.83353
C 11.1301 8.0025 4.59478
H 10.4944 7.50062 3.83182
H 12.1627 8.03208 4.19055
H 10.7933 9.04966 4.7299
O 0.370995 5.03517 1.61397
C 1.00113 4.49477 0.466318
H 1.20982 5.31985 9.41936
H 1.85437 3.86592 0.792947
H 0.134127 3.88025 9.37212
140
Atoms. Timestep: 9813
Ni 2.65443 9.29434 8.92661
Ni 6.42901 2.97248 3.61297
O 0.351159 4.66357 4.30914
O 4.05672 8.23951 9.02102
O 4.89027 2.12158 3.75201
O 1.28327 10.3724 9.03997
O 6.30623 3.79439 5.1524
O 2.47084 8.23096 0.767214
O -0.645443 2.5078 5.53997
O 3.43875 10.5466 0.530634
N 3.39934 10.3076 7.47262
N -0.0475446 2.38535 2.97306
N 1.73857 8.07427 7.75281
N 5.68646 4.51208 2.72275
C 3.55611 11.063 5.18796
C 0.313608 1.40836 0.80238
H 3.21875 10.8996 4.19025
H 5.84629 10.3848 1.05962
C 4.86413 11.5637 5.40797
C 1.51833 0.826171 1.21211
C 5.43934 11.3247 6.63999
C 1.99761 1.17044 2.46168
H 13.0858 11.7928 7.4389
H 3.02022 0.9735 2.68459
C 1.48012 6.99708 5.6233
C 5.66886 6.14722 0.946083
H 1.83326 6.88237 4.61238
H 12.5802 5.49113 9.05385
C 2.2774 7.6741 6.57401
C 6.30608 5.10788 1.65882
H 3.2771 7.98256 6.31635
C 2.77363 10.5656 6.28324
C -0.5213 2.06072 1.74229
C 4.7321 10.6132 7.61076
C 1.26835 2.06036 3.28558
H 5.26349 10.2605 8.46251
C 0.413674 7.75111 8.02919
C 4.49182 5.02027 3.17696
C -0.285042 6.8411 7.20479
C 3.76954 5.97158 2.40863
H 6.28911 6.66872 5.02747
H 2.75595 6.22831 2.67771
C 0.252835 6.44322 5.99888
C 4.37369 6.57742 1.30837
C 5.55935 1.16177 4.40821
C 1.98518 11.096 9.89525
C -0.38201 5.37919 5.14167
C 3.68031 7.654 0.49922
Ni 9.31203 8.67197 8.34819
Ni 13.0779 3.58555 4.14414
O 7.99837 3.76691 3.73808
O 10.8407 7.81222 8.53193
O 11.6808 2.52121 4.1846
O 7.73925 9.4773 8.42929
O 12.4593 4.82353 5.30174
O 8.81576 7.1824 9.19023
O 6.8868 1.48155 4.47727
O 9.38899 9.48517 9.89582
N 10.0881 10.2075 7.48495
N 6.809 2.13338 1.94024
N 8.98969 7.84098 6.66221
N 12.3735 4.61209 2.69028
C 10.1844 11.8165 5.68688
C 6.47114 11.2624 1.0423
H 9.70621 0.963488 4.82718
H -0.214 1.3255 9.33397
C 11.49 0.902241 6.0602
C 7.81521 11.1748 0.667767
C 12.0578 11.593 7.17714
C 8.6064 1.01578 0.788994
H 6.45009 11.6527 6.84737
H 9.35757 1.071 9.86998
C 9.40657 5.66633 5.79441
C 12.3439 5.49816 0.456823
H 10.0708 4.81988 5.78279
H 5.96413 6.5958 9.65885
C 9.87434 6.93527 6.1601
C 13.0657 4.96374 1.56569
H 7.27748 4.77004 1.33918
C 9.50368 10.8066 6.40321
C 5.95825 1.20559 1.42661
H 8.52715 10.4913 6.07158
H 12.5847 2.3982 1.4448
C 11.2867 10.6871 7.95348
C 8.10434 2.12771 1.4808
H 8.75313 2.97003 1.65155
C 7.70238 7.7929 6.19049
C 11.0291 4.89145 2.7738
H 7.03511 8.62842 6.32465
H 10.4696 4.5446 3.61617
C 7.23428 6.64501 5.53809
C 10.3573 5.6125 1.78454
H 12.766 6.65264 7.39003
H 9.33093 5.91501 1.94661
C 8.05741 5.51768 5.46524
C 11.0068 5.93402 0.60817
C 12.2418 1.92449 5.22983
C 8.15007 9.93128 9.62377
C 7.5522 4.24142 4.90854
C 10.1417 6.85658 9.16235
O 1.38211 10.5989 6.24437
C 0.83811 10.0538 5.05843
H 0.500834 10.8737 4.39742
H -0.0611407 9.463 5.32388
H 1.5262 9.39741 4.4844
O 1.99893 2.89949 4.09536
C 2.07031 2.46613 5.43443
H 3.12822 2.34933 5.73071
H 1.51923 1.54299 5.64459
H 1.66587 3.25469 6.09744
O -0.342455 8.5913 8.81395
C -0.223728 8.1695 0.599547
H 12.7991 8.05893 0.8838
H 0.170247 8.9631 1.26282
H 0.316053 7.24284 0.825123
O 3.91186 4.47736 4.29996
C 3.98829 5.35249 5.399
H 3.10715 5.16073 6.03248
H 4.81047 5.13643 6.09499
H 4.06371 6.41258 5.09917
O 11.823 10.1511 9.10047
C 11.9141 11.03 0.633844
H 12.7955 10.8737 1.27643
H 11.0997 10.7814 1.32799
H 11.5802 0.779227 9.88269
O 4.67288 1.56137 1.08819
C 4.48036 2.30118 9.44384
H 5.21506 1.9255 8.69653
H 3.47688 2.24075 8.97479
H 4.68087 3.36647 9.65624
O 11.1535 7.3237 5.83318
C 11.131 7.99784 4.59505
H 10.4952 7.4973 3.8325
H 12.1638 8.02734 4.19105
H 10.7941 9.04221 4.73011
O 0.369977 5.03847 1.61583
C 1.00021 4.4995 0.468757
H 1.20907 5.32239 9.41712
H 1.85361 3.87234 0.795223
H 0.133186 3.88662 9.3699
140
Atoms. Timestep: 12942
Ni 2.65329 9.29764 8.9302
Ni 6.43239 2.96629 3.6103
O 0.349347 4.66958 4.31107
O 4.0541 8.24056 9.02449
O 4.89222 2.11821 3.74899
O 1.28407 10.3778 9.04173
O 6.31546 3.78313 5.15405
O 2.46985 8.234 0.773286
O -0.644958 2.51058 5.54461
O 3.43915 10.5531 0.531947
N 3.39687 10.3106 7.47362
N -0.0466968 2.38733 2.97877
N 1.73749 8.07508 7.76002
N 5.69267 4.51475 2.72891
C 3.55395 11.0574 5.18454
C 0.307895 1.40379 0.809809
H 3.21432 10.894 4.1868
H 5.84011 10.3754 1.06345
C 4.8636 11.5554 5.40201
C 1.51805 0.829904 1.21499
C 5.43795 11.3215 6.63572
C 2.00032 1.17704 2.46287
H 13.0834 11.7899 7.44383
H 3.02328 0.980611 2.68421
C 1.48422 6.99243 5.63239
C 5.67118 6.15417 0.952831
H 1.84103 6.87385 4.6228
H 12.5759 5.46984 9.04452
C 2.2791 7.67009 6.58415
C 6.31055 5.11365 1.66469
H 3.27936 7.97822 6.32891
C 2.77118 10.5649 6.28265
C -0.524522 2.05644 1.75127
C 4.72979 10.6149 7.61009
C 1.27074 2.06597 3.28872
H 5.2611 10.2619 8.46212
C 0.411632 7.75473 8.03474
C 4.49851 5.0226 3.18542
C -0.28767 6.84593 7.20848
C 3.77292 5.97298 2.41656
H 6.30651 6.66832 4.99887
H 2.75851 6.22681 2.68528
C 0.252228 6.44621 6.00346
C 4.37506 6.5812 1.31547
C 5.5592 1.15117 4.39991
C 1.98628 11.1036 9.8956
C -0.384186 5.38681 5.1427
C 3.67866 7.65509 0.50397
Ni 9.30907 8.66609 8.34342
Ni 13.0784 3.58935 4.14714
O 8.00358 3.75688 3.73474
O 10.8392 7.8091 8.52799
O 11.6829 2.52242 4.18673
O 7.73415 9.46765 8.4229
O 12.458 4.82975 5.30349
O 8.81497 7.1677 9.17721
O 6.88776 1.46659 4.46677
O 9.37879 9.47412 9.89517
N 10.0822 10.2106 7.4895
N 6.80531 2.13265 1.93283
N 8.99561 7.84063 6.65262
N 12.3755 4.6167 2.69144
C 10.1815 11.825 5.69317
C 6.46431 11.2557 1.04025
H 9.70445 0.975219 4.83347
H -0.223622 1.3173 9.34254
C 11.4882 0.906726 6.0662
C 7.80668 11.1675 0.661317
C 12.0544 11.5944 7.18339
C 8.59705 1.01276 0.773819
H 6.44879 11.6502 6.84195
H 9.34338 1.06939 9.8453
C 9.41293 5.65736 5.79621
C 12.3434 5.48864 0.450404
H 10.0753 4.80702 5.79323
H 5.96499 6.60542 9.66509
C 9.88066 6.9309 6.15532
C 13.0666 4.96111 1.56292
H 7.28207 4.77707 1.34408
C 9.4991 10.8135 6.40807
C 5.95317 1.20351 1.42108
H 8.52262 10.4994 6.07535
H 12.5802 2.39269 1.45671
C 11.2805 10.6892 7.95995
C 8.09843 2.12756 1.46788
H 8.74791 2.97203 1.63643
C 7.71127 7.79436 6.17356
C 11.032 4.89853 2.77548
H 7.04483 8.63354 6.30258
H 10.4733 4.55437 3.61989
C 7.24538 6.64278 5.52118
C 10.3595 5.61401 1.78194
H 12.7632 6.65832 7.39298
H 9.33405 5.91982 1.94394
C 8.0655 5.50954 5.4618
C 11.0066 5.92584 0.601128
C 12.2432 1.92519 5.23304
C 8.14003 9.91956 9.62083
C 7.56144 4.22957 4.90832
C 10.1419 6.84612 9.15247
O 1.3798 10.5991 6.24389
C 0.834812 10.0521 5.05806
H 0.499534 10.8739 4.39547
H -0.0656741 9.46208 5.32428
H 1.52135 9.3916 4.48485
O 2.00038 2.90846 4.09861
C 2.07316 2.47334 5.43812
H 3.13112 2.3524 5.73243
H 1.52007 1.54933 5.64928
H 1.67163 3.26494 6.10218
O -0.343263 8.59772 8.82045
C -0.226437 8.173 0.605961
H 12.7963 8.05757 0.887657
H 0.164197 8.96924 1.27099
H 0.315948 7.24582 0.831898
O 3.92347 4.48105 4.31286
C 4.00815 5.36068 5.4101
H 3.1336 5.16775 6.05282
H 4.83785 5.14826 6.09852
H 4.07852 6.42299 5.10671
O 11.8131 10.1526 9.10955
C 11.8967 11.0334 0.642924
H 12.7732 10.8762 1.29242
H 11.0769 10.7852 1.33111
H 11.5655 0.785289 9.89049
O 4.67038 1.56368 1.07727
C 4.4844 2.30778 9.43379
H 5.22578 1.93536 8.69053
H 3.48476 2.24487 8.95701
H 4.67981 3.3761 9.65023
O 11.1579 7.3208 5.82176
C 11.129 8.0018 4.58576
H 10.4762 7.51332 3.82828
H 12.1567 8.01857 4.16848
H 10.8093 9.05305 4.73039
O 0.37084 5.03571 1.61141
C 1.00079 4.49636 0.463198
H 1.20546 5.32214 9.40949
H 1.85701 3.87117 0.788982
H 0.135115 3.8783 9.36636
140
Atoms. Timestep: 12945
Ni 2.65255 9.2918 8.92932
Ni 6.43246 2.97262 3.61066
O 0.348034 4.67265 4.31125
O 4.05368 8.23675 9.02357
O 4.89194 2.12619 3.7493
O 1.28303 10.3699 9.04082
O 6.31552 3.78791 5.15405
O 2.46898 8.2302 0.774301
O -0.646474 2.51779 5.54452
O 3.43851 10.5448 0.533015
N 3.39629 10.3028 7.47308
N -0.0481176 2.39478 2.97928
N 1.73654 8.07159 7.75942
N 5.69258 4.51811 2.72948
C 3.55338 11.0482 5.18452
C 0.306539 1.41314 0.810808
H 3.21367 10.8851 4.18701
H 5.84002 10.3675 1.0644
C 4.86334 11.5452 5.40195
C 1.51699 0.840353 1.2159
C 5.43783 11.3118 6.63537
C 1.99937 1.18682 2.46348
H 13.085 11.7793 7.4433
H 3.02256 0.990771 2.68478
C 1.48319 6.99103 5.63227
C 5.67106 6.15438 0.953796
H 1.84007 6.87268 4.62291
H 12.5774 5.47136 9.04361
C 2.27825 7.66738 6.58381
C 6.31058 5.11586 1.66549
H 3.27874 7.97492 6.32863
C 2.77045 10.5566 6.28238
C -0.526056 2.06453 1.75206
C 4.72952 10.6065 7.60952
C 1.26963 2.07402 3.28915
H 5.26095 10.2542 8.46135
C 0.410371 7.75184 8.03406
C 4.49813 5.02499 3.18587
C -0.289093 6.8448 7.208
C 3.77237 5.97354 2.41719
H 6.30657 6.66754 4.99891
H 2.75773 6.22688 2.68585
C 0.250908 6.44585 6.00326
C 4.37464 6.58059 1.31635
C 5.55909 1.16098 4.40009
C 1.9854 11.0943 9.8945
C -0.385652 5.38851 5.1427
C 3.67807 7.6524 0.505048
Ni 9.30985 8.66146 8.34268
Ni 13.08 3.59449 4.14738
O 8.00401 3.7617 3.73505
O 10.8404 7.80613 8.52719
O 11.6842 2.52961 4.18693
O 7.73457 9.46149 8.42212
O 12.4594 4.83251 5.30345
O 8.81565 7.16594 9.17627
O 6.88795 1.4758 4.46692
O 9.3796 9.46795 9.89407
N 10.0831 10.203 7.48897
N 6.80544 2.14061 1.93358
N 8.99631 7.8376 6.65228
N 12.3769 4.61988 2.69201
C 10.1824 11.8143 5.69303
C 6.46436 11.2461 1.04119
H 9.70528 0.985392 4.83353
H -0.225011 1.32681 9.34156
C 11.4894 0.917031 6.06598
C 7.80704 11.158 0.662354
C 12.0558 11.5841 7.18291
C 8.59758 1.02285 0.774832
H 6.4489 11.6398 6.84156
H 9.34418 1.07938 9.8442
C 9.41371 5.65851 5.79606
C 12.3448 5.49013 0.451485
H 10.0762 4.8098 5.79308
H 5.96502 6.60476 9.66404
C 9.88154 6.9296 6.15508
C 13.0681 4.96362 1.56375
H 7.28232 4.77993 1.34496
C 9.49991 10.8047 6.40777
C 5.95312 1.21323 1.42193
H 8.5232 10.4912 6.07514
H 12.5817 2.40013 1.45756
C 11.2818 10.6807 7.9593
C 8.09887 2.13552 1.46874
H 8.7485 2.97836 1.63725
C 7.71166 7.79142 6.17332
C 11.0332 4.90115 2.77603
H 7.04507 8.62899 6.30231
H 10.4743 4.55765 3.62025
C 7.24566 6.64205 5.52109
C 10.3604 5.61526 1.78271
H 12.7647 6.65756 7.39245
H 9.33477 5.92047 1.94469
C 8.06597 5.51097 5.46172
C 11.0077 5.92648 0.60218
C 12.2446 1.93352 5.23302
C 8.14055 9.91251 9.61979
C 7.56179 4.23347 4.90838
C 10.1429 6.84498 9.15154
O 1.37875 10.5908 6.24365
C 0.833619 10.0448 5.05808
H 0.498258 10.865 4.39564
H -0.0670715 9.45592 5.32424
H 1.52031 9.38558 4.485
O 1.99945 2.91493 4.09885
C 2.07226 2.48062 5.43805
H 3.13046 2.35992 5.73229
H 1.51904 1.55839 5.64917
H 1.67064 3.27071 6.10196
O -0.344687 8.59324 8.81959
C -0.227922 8.16932 0.607017
H 12.7978 8.05412 0.888644
H 0.162816 8.96404 1.27189
H 0.314599 7.24392 0.8329
O 3.92297 4.48445 4.31305
C 4.00769 5.36241 5.41005
H 3.13294 5.16985 6.05261
H 4.83759 5.1504 6.0983
H 4.07808 6.42269 5.10672
O 11.8145 10.1451 9.10863
C 11.898 11.0242 0.643979
H 12.7747 10.8673 1.29331
H 11.078 10.7765 1.33199
H 11.5668 0.795838 9.88939
O 4.67003 1.57272 1.07823
C 4.48409 2.31539 9.43278
H 5.22563 1.94368 8.68971
H 3.48421 2.2526 8.95612
H 4.67954 3.38167 9.64918
O 11.159 7.31876 5.82162
C 11.1301 7.99846 4.58588
H 10.4772 7.51091 3.82858
H 12.1581 8.01519 4.1687
H 10.8103 9.0477 4.73049
O 0.369506 5.03807 1.61224
C 0.99959 4.49975 0.464279
H 1.2044 5.32396 9.40849
H 1.85601 3.87577 0.789992
H 0.133807 3.88288 9.36537
140
Atoms. Timestep: 15423
Ni 2.65175 9.29375 8.9312
Ni 6.43458 2.96863 3.60927
O 0.346566 4.6766 4.31191
O 4.05157 8.23679 9.02537
O 4.89333 2.12382 3.74734
O 1.2839 10.3736 9.04145
O 6.32127 3.78044 5.15542
O 2.46819 8.23195 0.777715
O -0.646029 2.51927 5.54705
O 3.43888 10.549 0.533282
N 3.39467 10.3046 7.47341
N -0.0474215 2.3956 2.98275
N 1.73565 8.07183 7.76381
N 5.69671 4.52026 2.73413
C 3.55211 11.0442 5.18214
C 0.30314 1.41004 0.815456
H 3.21064 10.8817 4.18471
H 5.8362 10.3615 1.06629
C 4.86299 11.5394 5.39789
C 1.51712 0.842852 1.21733
C 5.43671 11.3096 6.6324
C 2.00136 1.19109 2.46375
H 13.0834 11.7771 7.44635
H 3.02473 0.995505 2.68393
C 1.48586 6.98758 5.6381