Created on Tue Aug 25 11:51:33 2020 

         164 atoms
         184 bonds
         348 angles
         368 dihedrals
         168 impropers

           7 atom types
          11 bond types
          20 angle types
           6 dihedral types
           1 improper types
           0.000000  12.505600 xlo xhi
           0.000000  12.523400 ylo yhi
           0.000000  10.274279 zlo zhi
           0.000000  -0.227594   0.000000 xy xz yz

Masses

    1    58.693400000 # Ni4+2
    2    15.999400000 # O_R
    3    14.006700000 # N_R
    4    12.010700000 # C_R
    5     1.007940000 # H_
    6    15.999400000 # O_3
    7    12.010700000 # C_3

Bond Coeffs

    1      321.720028        1.793457  # Ni4+2 O_R
    2      328.673665        1.841585  # Ni4+2 N_R
    3      646.680887        1.311940  # O_R C_R
    4      663.718927        1.345073  # N_R C_R
    5      462.655054        1.379256  # C_R C_R
    6      357.440381        1.081418  # C_R H_
    7      391.669513        1.458000  # C_R C_R
    8      572.510195        1.366311  # C_R O_3
    9      539.248552        1.393845  # O_3 C_3
   10      349.795899        1.514000  # C_3 C_3
   11      331.069389        1.109401  # C_3 H_

Angle Coeffs

    1              cosine/periodic      322.980216               1               4 # O_R Ni4+2 O_R
    2              cosine/periodic      343.030950               1               4 # O_R Ni4+2 N_R
    3              cosine/periodic      364.965660               1               4 # N_R Ni4+2 N_R
    4              cosine/periodic      238.346347              -1               3 # C_R O_R Ni4+2
    5              cosine/periodic      177.809033              -1               3 # Ni4+2 N_R C_R
    6              cosine/periodic      240.001032              -1               3 # C_R N_R C_R
    7              cosine/periodic      114.578032              -1               3 # C_R C_R H_
    8              cosine/periodic      222.595017              -1               3 # C_R C_R C_R
    9              cosine/periodic      204.366560              -1               3 # C_R C_R C_R
   10              cosine/periodic      307.398705              -1               3 # N_R C_R C_R
   11              cosine/periodic      159.573934              -1               3 # N_R C_R H_
   12              cosine/periodic      271.563462              -1               3 # C_R C_R O_3
   13              cosine/periodic      375.147287              -1               3 # N_R C_R O_3
   14              cosine/periodic      263.511421              -1               3 # O_R C_R C_R
   15              cosine/periodic      374.272657              -1               3 # O_R C_R O_R
   16                      fourier      320.948910        0.300235        0.267331        0.266745 # C_R O_3 C_3
   17                      fourier      290.032745        0.343737        0.374972        0.281246 # O_3 C_3 C_3
   18                      fourier      165.777838        0.343737        0.374972        0.281246 # O_3 C_3 H_
   19                      fourier      117.318683        0.343737        0.374972        0.281246 # C_3 C_3 H_
   20                      fourier       75.498766        0.343737        0.374972        0.281246 # H_ C_3 H_

Dihedral Coeffs

    1        2.245703              -1               2 # Ni4+2 O_R C_R C_R
    2        1.497136              -1               2 # Ni4+2 N_R C_R C_R
    3        0.555556              -1               2 # C_R C_R C_R O_R
    4        0.833333               1               2 # C_R C_R O_3 C_3
    5        0.128665               1               2 # C_R O_3 C_3 C_3
    6        0.066219               1               3 # O_3 C_3 C_3 H_

Improper Coeffs

    1        2.000000        1.000000       -1.000000        0.000000               0 # Ni4+2 N_R C_R C_R

Pair Coeffs

    1        0.015000        2.524807 # Ni4+2 Ni4+2
    2        0.060000        3.118146 # O_R O_R
    3        0.069000        3.260689 # N_R N_R
    4        0.105000        3.430851 # C_R C_R
    5        0.044000        2.571134 # H_ H_
    6        0.060000        3.118146 # O_3 O_3
    7        0.105000        3.430851 # C_3 C_3

Atoms

       1      444        1     0.00000    2.89857    9.41116    8.59265
       2      444        1     0.00000    6.17525    3.10579    3.48481
       3      444        2     0.00000    1.44827    4.35425    3.93374
       4      444        2     0.00000    4.44160    8.15245    9.05464
       5      444        2     0.00000    4.63665    1.84729    3.87523
       6      444        2     0.00000    1.36499   10.67435    9.00295
       7      444        2     0.00000    5.80609    4.46033    4.96242
       8      444        2     0.00000    2.54244    8.03270   10.06753
       9      444        2     0.00000    0.25117    1.69264    4.94273
      10      444        2     0.00000    3.23722   10.80466   10.06262
      11      444        3     0.00000    3.69677   10.66058    7.24160
      12      444        3     0.00000    0.71256    1.86420    2.11704
      13      444        3     0.00000    2.17217    8.14409    7.25198
      14      444        3     0.00000    5.44023    4.39481    2.13747
      15      444        4     0.00000    3.48546   12.14832    5.36301
      16      444        4     0.00000    0.47488    0.38955    0.22920
      17      444        5     0.00000    2.86453   12.51808    4.55267
      18      444        5     0.00000    5.86971    0.03371    9.69377
      19      444        4     0.00000    4.76073    0.14740    5.61481
      20      444        4     0.00000    1.74333   12.36991    0.47412
      21      444        4     0.00000    5.50345   12.15023    6.68209
      22      444        4     0.00000    2.49852    0.35508    1.54004
      23      444        5     0.00000    0.24768   12.50843    6.91993
      24      444        5     0.00000    3.49155   12.50668    1.77336
      25      444        4     0.00000    2.48363    6.63370    5.40822
      26      444        4     0.00000    5.72803    5.90364    0.28669
      27      444        5     0.00000    3.13294    6.27291    4.61605
      28      444        5     0.00000   -0.10828    6.26667    9.76620
      29      444        4     0.00000    2.92756    7.68099    6.23068
      30      444        4     0.00000    6.18830    4.86756    1.11596
      31      444        5     0.00000    3.89994    8.14655    6.08890
      32      444        4     0.00000    2.98256   11.13588    6.19748
      33      444        4     0.00000   -0.01036    1.40553    1.07106
      34      444        5     0.00000    1.99392   10.70905    6.04703
      35      444        5     0.00000    5.26093    1.85011    0.92351
      36      444        4     0.00000    4.93641   11.13810    7.47507
      37      444        4     0.00000    1.94823    1.37190    2.34060
      38      444        4     0.00000    0.94573    7.62654    7.47302
      39      444        4     0.00000    4.21083    4.90458    2.35686
      40      444        4     0.00000    0.43859    6.57577    6.69176
      41      444        4     0.00000    3.68763    5.94500    1.56944
      42      444        5     0.00000    5.70774    6.17693    6.91975
      43      444        5     0.00000    2.69824    6.32683    1.80071
      44      444        4     0.00000    1.22745    6.06471    5.65205
      45      444        4     0.00000    4.46338    6.45777    0.52027
      46      444        4     0.00000    5.31260    1.24381    4.79419
      47      444        4     0.00000    2.05020   11.26755    9.92158
      48      444        4     0.00000    0.73548    4.94016    4.83586
      49      444        4     0.00000    3.73174    7.56629    9.95688
      50      444        1     0.00000    9.15137    9.41116    8.59265
      51      444        1     0.00000   12.42805    3.10579    3.48481
      52      444        2     0.00000    7.70109    4.35425    3.93374
      53      444        2     0.00000   10.69440    8.15245    9.05464
      54      444        2     0.00000   10.88945    1.84729    3.87523
      55      444        2     0.00000    7.61779   10.67435    9.00295
      56      444        2     0.00000   12.05889    4.46033    4.96242
      57      444        2     0.00000    8.79524    8.03270   10.06753
      58      444        2     0.00000    6.50397    1.69264    4.94273
      59      444        2     0.00000    9.49002   10.80466   10.06262
      60      444        3     0.00000    9.94957   10.66058    7.24160
      61      444        3     0.00000    6.96536    1.86420    2.11704
      62      444        3     0.00000    8.42499    8.14409    7.25198
      63      444        3     0.00000   11.69303    4.39481    2.13747
      64      444        4     0.00000    9.73826   12.14832    5.36301
      65      444        4     0.00000    6.72768    0.38955    0.22920
      66      444        5     0.00000    9.11733   12.51808    4.55267
      67      444        5     0.00000   12.12251    0.03371    9.69377
      68      444        4     0.00000   11.01353    0.14740    5.61481
      69      444        4     0.00000    7.99613   12.36991    0.47412
      70      444        4     0.00000   11.75625   12.15023    6.68209
      71      444        4     0.00000    8.75132    0.35508    1.54004
      72      444        5     0.00000    6.50047   12.50843    6.91993
      73      444        5     0.00000    9.74435   12.50668    1.77336
      74      444        4     0.00000    8.73644    6.63370    5.40822
      75      444        4     0.00000   11.98084    5.90364    0.28669
      76      444        5     0.00000    9.38574    6.27291    4.61605
      77      444        5     0.00000    6.14452    6.26667    9.76620
      78      444        4     0.00000    9.18036    7.68099    6.23068
      79      444        4     0.00000   12.44110    4.86756    1.11596
      80      444        5     0.00000    7.16869    4.41889    0.97634
      81      444        4     0.00000    9.23536   11.13588    6.19748
      82      444        4     0.00000    6.24244    1.40553    1.07106
      83      444        5     0.00000   11.51373    1.85011    0.92351
      84      444        4     0.00000   11.18921   11.13810    7.47507
      85      444        4     0.00000    8.20102    1.37190    2.34060
      86      444        5     0.00000   11.73839   10.70967    8.30944
      87      444        4     0.00000    7.19853    7.62654    7.47302
      88      444        4     0.00000   10.46363    4.90458    2.35686
      89      444        5     0.00000    6.61608    8.05184    8.28732
      90      444        5     0.00000    9.88885    4.47744    3.17528
      91      444        4     0.00000    6.69139    6.57577    6.69176
      92      444        4     0.00000    9.94043    5.94500    1.56944
      93      444        5     0.00000   11.96054    6.17693    6.91975
      94      444        5     0.00000    8.95104    6.32683    1.80071
      95      444        4     0.00000    7.48025    6.06471    5.65205
      96      444        4     0.00000   10.71618    6.45777    0.52027
      97      444        4     0.00000   11.56540    1.24381    4.79419
      98      444        4     0.00000    8.30300   11.26755    9.92158
      99      444        4     0.00000    6.98827    4.94016    4.83586
     100      444        4     0.00000    9.98454    7.56629    9.95688
     101      444        6     0.00000    5.71366   10.64197    8.52332
     102      444        7     0.00000    5.31741    9.65038    9.39983
     103      444        7     0.00000    6.65992    9.38367    0.12470
     104      444        5     0.00000    5.10315    8.71314    8.84104
     105      444        5     0.00000    4.40835    9.97349    9.95275
     106      444        5     0.00000    7.34945    9.05303    9.86662
     107      444        5     0.00000    6.34706    8.58708    0.83224
     108      444        5     0.00000    6.88554   10.30743    0.69881
     109      444        6     0.00000    2.73853    1.85548    3.38466
     110      444        7     0.00000    2.35985    2.84885    4.26689
     111      444        7     0.00000    3.48464    3.09954    5.25910
     112      444        5     0.00000    1.45094    2.53454    4.82514
     113      444        5     0.00000    2.15259    3.79021    3.71246
     114      444        5     0.00000    3.70350    2.17146    5.82884
     115      444        5     0.00000    3.18591    3.89748    5.97121
     116      444        5     0.00000    4.40184    3.42121    4.72139
     117      444        6     0.00000    0.12866    8.11658    8.49095
     118      444        7     0.00000    0.46749    9.14300    9.35129
     119      444        7     0.00000   12.05463    9.39002    0.04550
     120      444        5     0.00000    0.65833   10.07440    8.77454
     121      444        5     0.00000    1.37571    8.86820    9.93106
     122      444        5     0.00000   10.91001    9.67251    9.76022
     123      444        5     0.00000   12.32128   10.21445    0.73994
     124      444        5     0.00000   11.85160    8.47199    0.63701
     125      444        6     0.00000    3.40089    4.41590    3.38329
     126      444        7     0.00000    3.75246    3.40015    4.25112
     127      444        7     0.00000    2.61255    3.15118    5.22634
     128      444        5     0.00000    3.94952    2.46553    3.68172
     129      444        5     0.00000    4.66043    3.68824    4.82482
     130      444        5     0.00000    1.69594    2.85547    4.67294
     131      444        5     0.00000    2.88946    2.33528    5.92683
     132      444        5     0.00000    2.40349    4.07243    5.81066
     133      444        6     0.00000    7.96682   10.63902    5.90559
     134      444        7     0.00000    7.32280    9.64698    6.61947
     135      444        7     0.00000    5.96142    9.37892    5.99718
     136      444        5     0.00000    7.92149    8.71029    6.59258
     137      444        5     0.00000    7.17923    9.97015    7.67373
     138      444        5     0.00000    6.08291    9.04821    4.94375
     139      444        5     0.00000    5.43873    8.58197    6.56701
     140      444        5     0.00000    5.34415   10.30214    6.01979
     141      444        6     0.00000    8.99132    1.85548    3.38467
     142      444        7     0.00000    8.61264    2.84884    4.26690
     143      444        7     0.00000    9.73741    3.09953    5.25912
     144      444        5     0.00000    7.70372    2.53452    4.82514
     145      444        5     0.00000    8.40538    3.79019    3.71247
     146      444        5     0.00000    9.95627    2.17143    5.82886
     147      444        5     0.00000    9.43869    3.89747    5.97123
     148      444        5     0.00000   10.65463    3.42119    4.72142
     149      444        6     0.00000   10.43154    8.22631    5.95411
     150      444        7     0.00000   11.01869    9.25797    6.66082
     151      444        7     0.00000   -0.12605    9.57244    6.05945
     152      444        5     0.00000   10.38150   10.16757    6.60448
     153      444        5     0.00000   11.15490    8.96076    7.72365
     154      444        5     0.00000   12.26505    9.87814    4.99772
     155      444        5     0.00000    0.35101   10.40137    6.62364
     156      444        5     0.00000    0.52920    8.67701    6.11160
     157      444        6     0.00000    1.19761    4.34402    0.84390
     158      444        7     0.00000    1.80191    3.32630    1.55636
     159      444        7     0.00000    3.16958    3.03408    0.95924
     160      444        5     0.00000    1.18152    2.40501    1.50268
     161      444        5     0.00000    1.93038    3.63056    2.61816
     162      444        5     0.00000    2.83538    2.72172   10.17289
     163      444        5     0.00000    3.66043    2.21643    1.52805
     164      444        5     0.00000    3.80831    3.94151    1.00883

Bonds

       1        1        1        4
       2        1        1        6
       3        1        1        8
       4        1        1       10
       5        2        1       11
       6        2        1       13
       7        1        2        5
       8        1        2        7
       9        2        2       14
      10        1        2       52
      11        1        2       58
      12        2        2       61
      13        3        3       48
      14        1        3       51
      15        3        4       49
      16        3        5       46
      17        3        6       47
      18        3        7       99
      19        3        8       49
      20        1        9       51
      21        3        9       97
      22        3       10       47
      23        4       11       32
      24        4       11       36
      25        4       12       33
      26        4       12       37
      27        2       12       51
      28        4       13       29
      29        4       13       38
      30        4       14       30
      31        4       14       39
      32        6       15       17
      33        5       15       19
      34        5       15       32
      35        5       16       20
      36        5       16       33
      37        6       16       67
      38        6       18       65
      39        5       19       21
      40        7       19       46
      41        5       20       22
      42        7       20       47
      43        5       21       36
      44        6       21       72
      45        6       22       24
      46        5       22       37
      47        6       23       70
      48        6       25       27
      49        5       25       29
      50        5       25       44
      51        5       26       30
      52        5       26       45
      53        6       26       77
      54        6       28       75
      55        6       29       31
      56        6       30       80
      57        6       32       34
      58        6       33       83
      59        6       35       82
      60        8       36      101
      61        8       37      109
      62        5       38       40
      63        8       38      117
      64        5       39       41
      65        8       39      125
      66        5       40       44
      67        6       40       93
      68        6       41       43
      69        5       41       45
      70        6       42       91
      71        7       44       48
      72        7       45       49
      73        3       46       58
      74        3       48       56
      75        1       50       53
      76        1       50       55
      77        1       50       57
      78        1       50       59
      79        2       50       60
      80        2       50       62
      81        1       51       54
      82        1       51       56
      83        2       51       63
      84        3       52       99
      85        3       53      100
      86        3       54       97
      87        3       55       98
      88        3       57      100
      89        3       59       98
      90        4       60       81
      91        4       60       84
      92        4       61       82
      93        4       61       85
      94        4       62       78
      95        4       62       87
      96        4       63       79
      97        4       63       88
      98        6       64       66
      99        5       64       68
     100        5       64       81
     101        5       65       69
     102        5       65       82
     103        5       68       70
     104        7       68       97
     105        5       69       71
     106        7       69       98
     107        5       70       84
     108        6       71       73
     109        5       71       85
     110        6       74       76
     111        5       74       78
     112        5       74       95
     113        5       75       79
     114        5       75       96
     115        8       78      149
     116        8       79      157
     117        8       81      133
     118        6       84       86
     119        8       85      141
     120        6       87       89
     121        5       87       91
     122        6       88       90
     123        5       88       92
     124        5       91       95
     125        6       92       94
     126        5       92       96
     127        7       95       99
     128        7       96      100
     129        9      101      102
     130       10      102      103
     131       11      102      104
     132       11      102      105
     133       11      103      106
     134       11      103      107
     135       11      103      108
     136        9      109      110
     137       10      110      111
     138       11      110      112
     139       11      110      113
     140       11      111      114
     141       11      111      115
     142       11      111      116
     143        9      117      118
     144       10      118      119
     145       11      118      120
     146       11      118      121
     147       11      119      122
     148       11      119      123
     149       11      119      124
     150        9      125      126
     151       10      126      127
     152       11      126      128
     153       11      126      129
     154       11      127      130
     155       11      127      131
     156       11      127      132
     157        9      133      134
     158       10      134      135
     159       11      134      136
     160       11      134      137
     161       11      135      138
     162       11      135      139
     163       11      135      140
     164        9      141      142
     165       10      142      143
     166       11      142      144
     167       11      142      145
     168       11      143      146
     169       11      143      147
     170       11      143      148
     171        9      149      150
     172       10      150      151
     173       11      150      152
     174       11      150      153
     175       11      151      154
     176       11      151      155
     177       11      151      156
     178        9      157      158
     179       10      158      159
     180       11      158      160
     181       11      158      161
     182       11      159      162
     183       11      159      163
     184       11      159      164

Angles

       1        1        4        1        6
       2        1        4        1        8
       3        1        4        1       10
       4        2        4        1       11
       5        2        4        1       13
       6        1        6        1        8
       7        1        6        1       10
       8        2        6        1       11
       9        2        6        1       13
      10        1        8        1       10
      11        2        8        1       11
      12        2        8        1       13
      13        2       10        1       11
      14        2       10        1       13
      15        3       11        1       13
      16        2       14        2        5
      17        2       14        2        7
      18        2       14        2       52
      19        2       14        2       58
      20        3       14        2       61
      21        1        5        2        7
      22        1        5        2       52
      23        1        5        2       58
      24        2        5        2       61
      25        1        7        2       52
      26        1        7        2       58
      27        2        7        2       61
      28        1       52        2       58
      29        2       52        2       61
      30        2       58        2       61
      31        4       48        3       51
      32        4        1        4       49
      33        4        2        5       46
      34        4        1        6       47
      35        4        2        7       99
      36        4        1        8       49
      37        4       51        9       97
      38        4        1       10       47
      39        5        1       11       32
      40        5        1       11       36
      41        6       32       11       36
      42        6       33       12       37
      43        5       33       12       51
      44        5       37       12       51
      45        5        1       13       29
      46        5        1       13       38
      47        6       29       13       38
      48        5        2       14       30
      49        5        2       14       39
      50        6       30       14       39
      51        7       19       15       17
      52        8       19       15       32
      53        7       17       15       32
      54        8       20       16       33
      55        7       20       16       67
      56        7       33       16       67
      57        8       15       19       21
      58        9       15       19       46
      59        9       21       19       46
      60        8       16       20       22
      61        9       16       20       47
      62        9       22       20       47
      63        8       19       21       36
      64        7       19       21       72
      65        7       36       21       72
      66        8       20       22       37
      67        7       20       22       24
      68        7       37       22       24
      69        8       29       25       44
      70        7       29       25       27
      71        7       44       25       27
      72        8       30       26       45
      73        7       30       26       77
      74        7       45       26       77
      75       10       13       29       25
      76       11       13       29       31
      77        7       25       29       31
      78       10       14       30       26
      79       11       14       30       80
      80        7       26       30       80
      81       10       11       32       15
      82       11       11       32       34
      83        7       15       32       34
      84       10       12       33       16
      85       11       12       33       83
      86        7       16       33       83
      87       10       21       36       11
      88       12       21       36      101
      89       13       11       36      101
      90       10       12       37       22
      91       13       12       37      109
      92       12       22       37      109
      93       10       13       38       40
      94       13       13       38      117
      95       12       40       38      117
      96       10       14       39       41
      97       13       14       39      125
      98       12       41       39      125
      99        8       38       40       44
     100        7       38       40       93
     101        7       44       40       93
     102        8       39       41       45
     103        7       39       41       43
     104        7       45       41       43
     105        8       25       44       40
     106        9       25       44       48
     107        9       40       44       48
     108        8       26       45       41
     109        9       26       45       49
     110        9       41       45       49
     111       14        5       46       19
     112       15        5       46       58
     113       14       19       46       58
     114       14       10       47       20
     115       15       10       47        6
     116       14       20       47        6
     117       14        3       48       44
     118       15        3       48       56
     119       14       44       48       56
     120       14        8       49       45
     121       15        8       49        4
     122       14       45       49        4
     123        1       53       50       55
     124        1       53       50       57
     125        1       53       50       59
     126        2       53       50       60
     127        2       53       50       62
     128        1       55       50       57
     129        1       55       50       59
     130        2       55       50       60
     131        2       55       50       62
     132        1       57       50       59
     133        2       57       50       60
     134        2       57       50       62
     135        2       59       50       60
     136        2       59       50       62
     137        3       60       50       62
     138        2        9       51       12
     139        1        9       51       54
     140        1        9       51        3
     141        1        9       51       56
     142        2        9       51       63
     143        2       12       51       54
     144        2       12       51        3
     145        2       12       51       56
     146        3       12       51       63
     147        1       54       51        3
     148        1       54       51       56
     149        2       54       51       63
     150        1        3       51       56
     151        2        3       51       63
     152        2       56       51       63
     153        4        2       52       99
     154        4       50       53      100
     155        4       51       54       97
     156        4       50       55       98
     157        4       48       56       51
     158        4       50       57      100
     159        4        2       58       46
     160        4       50       59       98
     161        5       50       60       81
     162        5       50       60       84
     163        6       81       60       84