ITEM: TIMESTEP
0
ITEM: NUMBER OF ATOMS
164
ITEM: BOX BOUNDS xy xz yz pp pp pp
-2.2759399999999999e-01 1.2505599999999999e+01 0.0000000000000000e+00
0.0000000000000000e+00 1.2523400000000001e+01 -2.2759399999999999e-01
0.0000000000000000e+00 1.0274279000000000e+01 0.0000000000000000e+00
ITEM: ATOMS id type x y z
1 1 2.89853 9.37921 8.75235
2 1 6.15511 3.09822 3.65425
3 2 1.35538 4.15439 3.88718
4 2 4.38593 8.35655 8.87013
5 2 4.61862 2.12724 3.81952
6 2 1.41746 10.3949 8.99733
7 2 5.73266 4.28174 4.90246
8 2 2.4769 8.10247 9.97882
9 2 0.313254 1.8895 4.97897
10 2 3.32627 10.5113 10.1167
11 3 3.61547 10.678 7.41167
12 3 0.654177 1.85655 2.32711
13 3 2.16733 8.22914 7.28999
14 3 5.506 4.38737 2.25122
15 4 3.45682 12.0912 5.4004
16 4 0.447818 0.330041 0.396241
17 5 2.93844 12.2954 4.48919
18 4 4.67814 0.239573 5.69265
19 4 1.67724 12.1866 0.679117
20 4 5.34915 12.3293 6.86952
21 4 2.37086 0.150699 1.80659
22 5 0.378513 12.0858 6.5438
23 5 3.28705 12.1921 2.1079
24 4 2.38735 6.82252 5.27083
25 4 5.93828 6.26138 0.768562
26 4 2.91186 7.8061 6.20974
27 4 6.16504 5.57541 2.00095
28 5 3.9078 8.20189 6.06372
29 5 0.962794 4.50471 1.23188
30 4 2.91861 11.0882 6.29572
31 4 12.4067 1.32622 1.31479
32 5 1.99077 10.5994 6.03982
33 5 5.38805 0.307193 2.57036
34 4 4.88657 11.16 7.57154
35 4 1.87733 1.27964 2.56882
36 5 5.45594 10.7906 8.3938
37 5 2.42409 1.61254 3.42202
38 4 0.841863 7.87746 7.31468
39 4 4.25995 4.26718 1.6614
40 5 0.214202 8.30277 8.06309
41 5 3.6201 3.44103 1.92334
42 4 0.296237 6.9095 6.40259
43 4 3.75498 5.29425 0.763148
44 5 2.74737 5.25261 0.414807
45 4 1.12346 6.21557 5.50593
46 4 4.58462 6.35361 0.318734
47 4 5.26274 1.43553 4.80962
48 4 2.0578 11.0143 10.0285
49 4 0.647309 4.86482 4.8128
50 4 3.74825 7.62108 9.82451
51 1 9.1626 9.42491 8.76267
52 1 12.3926 3.10034 3.69882
53 2 7.68222 4.06432 3.88482
54 2 10.646 8.4182 9.04785
55 2 10.9158 2.04168 3.8271
56 2 7.66816 10.4373 8.84408
57 2 11.9179 4.29848 4.97162
58 2 8.70253 8.29641 10.1118
59 2 6.52258 1.91056 4.91247
60 2 9.54435 10.7051 10.001
61 3 9.92492 10.577 7.3147
62 3 6.86574 1.81845 2.26893
63 3 8.49135 8.11859 7.40889
64 3 11.683 4.35974 2.32226
65 4 9.79498 11.9309 5.24719
66 4 6.49524 12.4674 0.774472
67 4 11.0523 0.019937 5.52068
68 4 7.85051 12.42 0.323447
69 4 11.8333 11.8736 6.47767
70 4 8.63601 0.999751 0.746922
71 5 9.61153 1.12994 0.327051
72 4 8.75348 6.65531 5.44333
73 4 12.0291 5.98842 0.501378
74 5 9.33381 6.39751 4.57782
75 4 9.23453 7.69767 6.32649
76 4 0.0020936 4.94894 1.40402
77 5 10.1596 8.2005 6.09154
78 5 7.03997 5.84074 2.55484
79 4 9.23055 10.9658 6.18703
80 4 6.25253 0.606597 2.01642
81 5 8.24647 10.5559 6.0009
82 5 11.4714 1.79598 1.08235
83 4 11.2416 10.9373 7.39285
84 4 8.10003 1.994 1.66639
85 5 11.8234 10.5417 8.18862
86 5 8.7067 2.8429 1.92818
87 4 7.2267 7.60959 7.54399
88 4 10.4527 4.94048 2.52505
89 5 6.62164 7.97613 8.34516
90 5 9.85904 4.58925 3.33947
91 4 6.81192 6.42231 6.84551
92 4 10.0134 6.10255 1.78683
93 5 11.7521 6.68661 6.42732
94 5 9.08881 6.58523 2.0611
95 4 7.52762 5.98303 5.70328
96 4 10.7721 6.62555 0.71902
97 4 11.5888 1.32696 4.77821
98 4 8.27219 11.1725 9.82189
99 4 6.99592 4.758 4.84226
100 4 9.97451 7.80089 10.0611
101 6 6.09172 0.723675 7.57805
102 7 7.43339 0.729168 7.18378
103 7 7.95544 2.13685 7.33139
104 5 7.59184 0.372735 6.15348
105 5 8.02929 0.0997968 7.84037
106 5 8.80708 2.31176 6.64233
107 5 8.25635 2.29001 8.38545
108 5 7.1655 2.87466 7.09692
109 6 12.1693 0.206013 9.42518
110 7 -0.126125 1.40701 8.70499
111 7 11.0386 1.91304 8.21624
112 5 0.567588 1.23974 7.8628
113 5 0.353645 2.2182 9.28216
114 5 11.1714 2.63555 7.38449
115 5 10.5049 2.40064 9.05084
116 5 10.4038 1.07101 7.89269
117 6 3.00889 6.64963 4.05192
118 7 2.51671 7.6255 3.14543
119 7 3.53941 8.7402 2.95816
120 5 1.52976 8.07756 3.42015
121 5 2.34013 7.13385 2.17089
122 5 4.50848 8.32181 2.61555
123 5 3.69507 9.2911 3.90726
124 5 3.16538 9.4596 2.2037
125 6 6.75758 6.29871 10.122
126 7 7.32929 4.98843 9.97411
127 7 8.54551 4.97351 9.04691
128 5 7.95159 4.60902 0.660655
129 5 6.5742 4.25479 9.61192
130 5 8.92278 5.97049 8.83658
131 5 9.36243 4.36892 9.48827
132 5 8.3099 4.5563 8.06331
133 6 9.23131 12.0667 3.99588
134 7 9.84418 11.1341 3.11759
135 7 8.95774 9.90966 2.92549
136 5 10.8688 10.7997 3.41855
137 5 9.99075 11.6281 2.14094
138 5 7.97752 10.2039 2.49713
139 5 8.79457 9.38946 3.88953
140 5 9.45951 9.20075 2.23864
141 6 5.23017 12.4544 10.1186
142 7 4.6803 1.24913 9.9753
143 7 3.5174 1.29886 8.98512
144 5 4.47052 1.60615 0.655225
145 5 5.45949 1.98086 9.66206
146 5 3.09049 0.319086 8.78027
147 5 2.71849 1.96033 9.37076
148 5 3.82859 1.67936 8.00748
149 6 6.06262 5.49865 7.53647
150 7 4.72339 5.52052 7.14312
151 7 4.16125 4.13091 7.31387
152 5 4.15537 6.18165 7.79767
153 5 4.58315 5.84647 6.09872
154 5 4.91607 3.36999 7.04184
155 5 3.89625 3.98454 8.37939
156 5 3.27677 3.98664 6.66111
157 6 -0.0524956 6.17456 9.58443
158 7 12.2694 5.01526 8.79196
159 7 1.11367 4.54133 8.2912
160 5 11.5714 5.22205 7.96488
161 5 11.798 4.16155 9.3123
162 5 0.985771 3.87957 7.411
163 5 1.62883 3.97903 9.08809
164 5 1.76731 5.39617 8.04306
