
# --------------------------------- Initialization -------------------------------------- #
units           real
atom_style      full
boundary        p p p

pair_style      lj/cut 14.000
bond_style      harmonic
angle_style     cosine/periodic
dihedral_style  harmonic
improper_style  fourier

special_bonds   lj/coul 0.0 0.0 1.0
#dielectric      1.0
pair_modify     tail yes mix arithmetic
box tilt        large
read_data       data.Pn_Ni-PyC-NH2_with_Kr
  triclinic box = (0 0 0) to (31.854 35.6358 28.3672) with tilt (0 0.013863 0)
  1 by 1 by 1 MPI processor grid
  reading atoms ...
  2233 atoms
  scanning bonds ...
  6 = max bonds/atom
  scanning angles ...
  15 = max angles/atom
  scanning dihedrals ...
  12 = max dihedrals/atom
  scanning impropers ...
  3 = max impropers/atom
  reading bonds ...
  2592 bonds
  reading angles ...
  4824 angles
  reading dihedrals ...
  5184 dihedrals
  reading impropers ...
  3456 impropers
  6 = max # of 1-2 neighbors
  9 = max # of 1-3 neighbors
  12 = max # of special neighbors
  special bonds CPU = 0.000941536 secs
  read_data CPU = 0.0292559 secs

#### Atom Groupings ####
group           kr       id   2233   # 63
1 atoms in group kr
group           fram     id   1:2232 # 1:62 64:2233
2232 atoms in group fram
#### END Atom Groupings ####

###
# Speed up Calculations by exluding framework-framework interactions
#   since we are keeping the framework rigid and stationary
#
# neigh_modify keyword values ...
# keyword = exclude
# values  = group group1-ID group2-ID
#
# group1-ID, group2-ID = exclude if one atom is in 1st group, other in 2nd
###
neigh_modify exclude group fram fram

# ----------------------------- Variables ---------------------- #
dump            Pn_Ni-PyC-NH2_with_Kr_xyzmov all xyz 1000 Pn_Ni-PyC-NH2_with_Kr_mov.xyz
dump_modify     Pn_Ni-PyC-NH2_with_Kr_xyzmov element Ni O C H N Kr
variable        dt         equal 1.00
variable        tdamp      equal 100*${dt}
variable        tdamp      equal 100*1
variable        eqtemp     equal 298.00

# ------------------------------ Equilibriation -------------------------------------------- #
# we do not need to perform equilibriation since we are using a rigid framework
# and the (single) adsorbate has already been inserted into the material via GCMC
# which already included an equilibriation phase.
fix             1 kr langevin ${eqtemp} ${eqtemp} ${tdamp} 759401
fix             1 kr langevin 298 ${eqtemp} ${tdamp} 759401
fix             1 kr langevin 298 298 ${tdamp} 759401
fix             1 kr langevin 298 298 100 759401
fix             2 kr nve
#fix             3 fram langevin 298.00 298.00 ${tdamp} 1500201
#fix             4 fram nve
thermo          1000
run             200000
Neighbor list info ...
  update every 1 steps, delay 10 steps, check yes
  max neighbors/atom: 2000, page size: 100000
  master list distance cutoff = 16
  ghost atom cutoff = 16
  binsize = 8, bins = 4 5 4
  1 neighbor lists, perpetual/occasional/extra = 1 0 0
  (1) pair lj/cut, perpetual
      attributes: half, newton on
      pair build: half/bin/newton/tri
      stencil: half/bin/3d/newton/tri
      bin: standard
WARNING: Inconsistent image flags (src/domain.cpp:785)
Per MPI rank memory allocation (min/avg/max) = 33.51 | 33.51 | 33.51 Mbytes
Step Temp E_pair E_mol TotEng Press 
       0            0   -39.208834    31301.618    31262.409   -109816.13 
    1000   0.13620272   -39.358313    31301.618    31263.166    -109812.2 
    2000   0.15158832   -38.977416    31301.618    31263.649   -109807.72 
    3000   0.18279064   -38.941411    31301.618    31263.893   -109813.28 
    4000   0.11936084   -39.247048    31301.618    31263.165   -109815.73 
    5000   0.12118924   -37.883309    31301.618    31264.541   -109796.05 
    6000   0.18089712   -38.578318    31301.618    31264.243   -109803.64 
    7000   0.21879966   -39.208304    31301.618    31263.866   -109811.77 
    8000  0.033070406   -38.536784    31301.618    31263.301   -109806.49 
    9000  0.052985636   -38.948328    31301.618    31263.022   -109812.94 
   10000  0.099420863   -39.115313    31301.618    31263.164   -109816.19 
   11000   0.15865002   -39.179445    31301.618    31263.494   -109817.41 
   12000  0.063970917   -39.191894    31301.618    31262.852   -109813.65 
   13000   0.45360842   -39.169116    31301.618    31265.467   -109809.05 
   14000 0.0053033311   -39.136462    31301.618    31262.517   -109818.43 
   15000   0.24543251   -39.161948    31301.618    31264.089   -109814.46 
   16000 0.0097043271    -39.04529    31301.618    31262.637   -109814.45 
   17000  0.031998763   -39.061476    31301.618     31262.77   -109816.34 
   18000   0.16181208   -39.260622    31301.618    31263.434   -109818.83 
   19000   0.21372257   -39.328776    31301.618    31263.711   -109813.09 
   20000   0.16143442   -39.251644    31301.618    31263.441   -109811.91 
   21000   0.18908327   -39.261245    31301.618    31263.615   -109811.35 
   22000   0.11168494   -39.099232    31301.618    31263.262   -109814.41 
   23000   0.12886017   -38.723373    31301.618    31263.752    -109809.3 
   24000   0.24800456   -38.879309    31301.618    31264.389   -109808.96 
   25000  0.076668881   -39.050641    31301.618    31263.078   -109817.21 
   26000  0.095915073   -38.982418    31301.618    31263.274   -109812.78 
   27000  0.037157727   -38.845549    31301.618     31263.02   -109811.93 
   28000   0.20663379   -39.333807    31301.618    31263.659   -109818.16 
   29000   0.16749515   -39.462323    31301.618     31263.27   -109816.84 
   30000  0.039557345   -39.037172    31301.618    31262.844   -109808.02 
   31000   0.13499764   -39.100422    31301.618    31263.416   -109810.56 
   32000   0.04938588   -39.091372    31301.618    31262.855   -109814.45 
   33000   0.35982198   -39.396939    31301.618    31264.615   -109816.07 
   34000   0.12735335   -39.274543    31301.618    31263.191   -109816.63 
   35000 0.0083690361   -38.764289    31301.618     31262.91   -109810.84 
   36000   0.25574357   -39.187195    31301.618    31264.132   -109810.44 
   37000  0.061574357   -38.897064    31301.618    31263.131   -109809.32 
   38000  0.033726988   -39.331226    31301.618    31262.511   -109810.97 
   39000   0.18842652   -38.774733    31301.618    31264.097   -109810.09 
   40000   0.13683529   -39.351868    31301.618    31263.177   -109814.03 
   41000   0.09583458   -38.936277    31301.618     31263.32   -109814.77 
   42000   0.55114336   -39.078815    31301.618    31266.206   -109812.73 
   43000  0.034513432   -39.326799    31301.618    31262.521   -109816.02 
   44000  0.020941329   -39.252737    31301.618    31262.505   -109816.69 
   45000   0.05963755   -38.576708    31301.618    31263.438   -109802.98 
   46000   0.13503482   -38.826343    31301.618     31263.69   -109804.75 
   47000  0.019557751   -38.792817    31301.618    31262.955   -109804.71 
   48000  0.047925961   -38.667814    31301.618    31263.269    -109801.9 
   49000   0.25649003   -38.378919    31301.618    31264.946   -109797.75 
   50000  0.048156164   -38.213008    31301.618    31263.726   -109796.34 
   51000    0.2035861   -37.466322    31301.618    31265.506   -109789.14 
   52000   0.11935525    -38.51442    31301.618    31263.898   -109806.01 
   53000   0.14585453   -39.095301    31301.618    31263.493   -109815.56 
   54000   0.21002019    -39.04255    31301.618    31263.973   -109814.55 
   55000  0.079687617   -37.962427    31301.618    31264.186   -109799.58 
   56000  0.077835025   -39.216906    31301.618    31262.919   -109819.31 
   57000  0.067182754   -38.707523    31301.618    31263.358   -109808.26 
   58000   0.02412424   -39.134609    31301.618    31262.644   -109820.04 
   59000  0.098357643   -39.186284    31301.618    31263.086   -109817.26 
   60000    0.2988168   -38.335372    31301.618    31265.271   -109798.11 
   61000  0.060042881   -39.162458    31301.618    31262.855   -109813.22 
   62000  0.089157817   -37.413595    31301.618    31264.798   -109792.89 
   63000  0.078039374   -39.163975    31301.618    31262.973   -109817.46 
   64000   0.16011533   -39.103451    31301.618     31263.58   -109813.36 
   65000   0.27461617   -38.080951    31301.618    31265.364    -109798.1 
   66000  0.092841095   -38.281326    31301.618    31263.955   -109800.83 
   67000  0.087699445   -39.056751    31301.618    31263.145   -109810.59 
   68000  0.087218565   -38.621649    31301.618    31263.577   -109808.64 
   69000   0.19304592   -39.182305    31301.618     31263.72   -109812.36 
   70000   0.14825893   -39.131568    31301.618    31263.473   -109810.81 
   71000   0.21418134   -39.307484    31301.618    31263.736   -109816.16 
   72000   0.10736536   -39.271096    31301.618    31263.061   -109817.02 
   73000  0.030988533   -38.594678    31301.618     31263.23      -109803 
   74000   0.25716337   -39.103564    31301.618    31264.226   -109810.37 
   75000   0.33998612   -38.467712    31301.618    31265.412   -109800.62 
   76000  0.059943365   -38.921678    31301.618    31263.095   -109807.44 
   77000   0.14063021   -39.161324    31301.618    31263.393   -109819.55 
   78000   0.10262073   -39.175993    31301.618    31263.125   -109813.65 
   79000   0.14011366   -39.235108    31301.618    31263.315   -109819.33 
   80000  0.080205172   -39.113886    31301.618    31263.038   -109816.56 
   81000   0.46239501   -39.039327    31301.618    31265.655   -109810.69 
   82000  0.038485664   -39.310162    31301.618    31262.564   -109816.42 
   83000  0.026083101   -39.290797    31301.618    31262.501   -109815.77 
   84000   0.14212583   -39.266728    31301.618    31263.297   -109818.75 
   85000   0.12548953   -39.126025    31301.618    31263.327    -109820.2 
   86000  0.029710437   -39.215853    31301.618      31262.6   -109818.47 
   87000  0.063696424   -39.091524    31301.618     31262.95   -109814.45 
   88000   0.10265871   -38.468615    31301.618    31263.833   -109804.33 
   89000   0.21777103   -38.513224    31301.618    31264.554   -109797.74 
   90000   0.16116707   -39.364955    31301.618    31263.326   -109817.23 
   91000 0.0045503693   -38.834643    31301.618    31262.814   -109804.53 
   92000  0.096380969   -39.325896    31301.618    31262.934   -109817.29 
   93000   0.12511853   -39.418241    31301.618    31263.032   -109816.96 
   94000  0.016896065   -39.382072    31301.618    31262.349   -109811.93 
   95000   0.12638869   -38.827494    31301.618    31263.632   -109808.38 
   96000  0.024871987   -38.955043    31301.618    31262.829   -109814.49 
   97000   0.25505627    -39.07088    31301.618    31264.244   -109814.18 
   98000  0.026402503   -39.108577    31301.618    31262.685   -109817.11 
   99000   0.12018332   -39.072135    31301.618    31263.346   -109814.35 
  100000   0.29610268   -39.154981    31301.618    31264.433   -109818.25 
  101000  0.046578563   -39.188828    31301.618    31262.739   -109812.06 
  102000  0.077750151   -39.079102    31301.618    31263.056   -109816.06 
  103000  0.015004224   -38.267909    31301.618     31263.45   -109800.31 
  104000  0.048975934   -39.052656    31301.618    31262.891   -109811.32 
  105000   0.15992311   -39.233664    31301.618    31263.449   -109818.03 
  106000  0.040590419   -39.256236    31301.618    31262.632   -109820.25 
  107000 0.0032636329   -39.147004    31301.618    31262.493   -109816.79 
  108000   0.11366816   -38.769701    31301.618    31263.605   -109811.07 
  109000   0.10513648   -39.143993    31301.618    31263.174   -109817.23 
  110000   0.12353649   -38.570436    31301.618     31263.87   -109807.49 
  111000   0.04508151   -39.107145    31301.618    31262.811   -109816.56 
  112000  0.054022327   -39.038742    31301.618    31262.939   -109812.55 
  113000   0.37309157   -38.826734    31301.618    31265.274   -109810.03 
  114000  0.016067347   -38.338751    31301.618    31263.386   -109803.34 
  115000  0.096761599   -39.277904    31301.618    31262.984   -109818.17 
  116000   0.14117911   -38.948487    31301.618    31263.609   -109813.64 
  117000   0.31860181   -39.231224    31301.618    31264.507    -109815.8 
  118000   0.12002899   -38.933987    31301.618    31263.483    -109812.7 
  119000  0.059854268   -39.184566    31301.618    31262.832   -109819.89 
  120000   0.25851899    -39.30591    31301.618    31264.032   -109815.24 
  121000  0.034778559   -39.068444    31301.618    31262.781   -109809.69 
  122000   0.17157513   -39.223809    31301.618    31263.536   -109812.62 
  123000   0.24672287   -39.300907    31301.618    31263.959   -109815.32 
  124000    0.1514511   -39.032741    31301.618    31263.593   -109809.89 
  125000  0.026159093   -39.194172    31301.618    31262.598   -109819.81 
  126000   0.10162011   -39.087585    31301.618    31263.207   -109812.06 
  127000   0.37496826   -38.081953    31301.618    31266.031   -109791.33 
  128000  0.098409842   -39.261793    31301.618    31263.011   -109819.79 
  129000  0.076443654   -39.270359    31301.618    31262.856   -109818.29 
  130000  0.054566476   -39.174166    31301.618    31262.807   -109814.24 
  131000   0.27869423   -39.056212    31301.618    31264.416   -109808.18 
  132000   0.54381798   -38.715332    31301.618    31266.521   -109802.82 
  133000  0.057860611   -39.250122    31301.618    31262.753    -109816.5 
  134000    0.1885338   -39.171802    31301.618    31263.701   -109814.41 
  135000  0.045891769   -39.295116    31301.618    31262.628   -109820.09 
  136000  0.068962613   -38.944609    31301.618    31263.132    -109813.4 
  137000   0.31820405    -39.11684    31301.618    31264.618   -109815.67 
  138000    0.2364856   -39.166753    31301.618    31264.025   -109817.82 
  139000   0.17475516   -39.294305    31301.618    31263.487   -109818.15 
  140000   0.12846045   -39.156916    31301.618    31263.316   -109813.27 
  141000  0.022889762   -39.114777    31301.618    31262.656   -109815.15 
  142000  0.028626564   -39.303884    31301.618    31262.505   -109812.81 
  143000   0.17575587   -38.722457    31301.618    31264.065   -109808.03 
  144000   0.22859832   -39.278704    31301.618     31263.86   -109818.18 
  145000   0.14007482   -38.916245    31301.618    31263.634   -109809.94 
  146000    0.0590175   -39.289845    31301.618    31262.721   -109815.38 
  147000  0.061891127   -39.277359    31301.618    31262.753    -109819.1 
  148000   0.23402565   -39.174094    31301.618    31264.001   -109817.57 
  149000   0.20311516   -39.429224    31301.618     31263.54      -109816 
  150000   0.18353165   -38.682162    31301.618    31264.157   -109804.92 
  151000   0.14980265   -38.835379    31301.618    31263.779   -109803.27 
  152000   0.14280302   -37.501061    31301.618    31265.067   -109788.41 
  153000  0.026327344   -39.018039    31301.618    31262.775   -109809.75 
  154000   0.16642887    -39.38035    31301.618    31263.345   -109815.45 
  155000  0.094055628   -39.162414    31301.618    31263.082   -109819.45 
  156000   0.30595711   -39.301126    31301.618    31264.353   -109816.63 
  157000  0.094180299   -39.036366    31301.618    31263.208   -109811.19 
  158000   0.45617106   -39.175546    31301.618    31265.478    -109816.4 
  159000   0.15587758   -39.256514    31301.618    31263.399   -109814.36 
  160000   0.24071452   -38.920353    31301.618    31264.299    -109811.8 
  161000     0.167721   -39.094645    31301.618    31263.639    -109817.3 
  162000  0.092774686   -39.154292    31301.618    31263.081   -109820.21 
  163000  0.027379389   -39.078361    31301.618    31262.722   -109810.53 
  164000    0.1345202   -39.190269    31301.618    31263.323   -109814.84 
  165000  0.037788414   -39.032458    31301.618    31262.837   -109816.84 
  166000   0.14836849   -38.960528    31301.618    31263.645   -109811.47 
  167000  0.012143086    -39.13468    31301.618    31262.564   -109814.66 
  168000  0.041837218   -38.824967    31301.618    31263.072   -109808.52 
  169000  0.068365328   -39.270286    31301.618    31262.803   -109816.41 
  170000  0.046230372   -38.900616    31301.618    31263.025   -109810.33 
  171000   0.09775268   -38.622617    31301.618    31263.646   -109806.53 
  172000  0.086271555   -39.286619    31301.618    31262.906   -109818.16 
  173000   0.19131756   -39.144374    31301.618    31263.747    -109818.9 
  174000   0.31046283   -39.311348    31301.618    31264.372   -109814.92 
  175000  0.053794863    -39.30167    31301.618    31262.674   -109811.29 
  176000   0.12637074   -39.464584    31301.618    31262.994   -109816.08 
  177000   0.13813732   -39.369413    31301.618    31263.168   -109817.26 
  178000   0.11780278   -38.901981    31301.618      31263.5    -109810.9 
  179000   0.17302976   -38.689492    31301.618     31264.08   -109809.39 
  180000  0.057811772   -39.315807    31301.618    31262.687   -109817.21 
  181000   0.14272264     -38.8847    31301.618    31263.683   -109808.03 
  182000   0.10238856   -39.195023    31301.618    31263.104   -109816.55 
  183000  0.057207971   -39.222985    31301.618    31262.776   -109818.89 
  184000   0.14950097   -39.055142    31301.618    31263.558   -109815.43 
  185000   0.10677674   -39.087001    31301.618    31263.242   -109809.48 
  186000   0.16855426   -39.214257    31301.618    31263.525   -109818.07 
  187000   0.19495233   -39.302764    31301.618    31263.612   -109813.09 
  188000  0.078833673   -38.994642    31301.618    31263.148   -109813.35 
  189000   0.27196322   -38.984165    31301.618    31264.443   -109810.36 
  190000  0.045674875   -39.267718    31301.618    31262.654   -109819.59 
  191000  0.096222872   -39.524253    31301.618    31262.734   -109816.17 
  192000  0.098782483    -39.24215    31301.618    31263.033   -109814.73 
  193000   0.18980658   -38.536497    31301.618    31264.345   -109801.73 
  194000  0.017509505   -39.260171    31301.618    31262.475   -109819.99 
  195000  0.092441706    -39.33001    31301.618    31262.903   -109817.27 
  196000  0.017553881    -39.28298    31301.618    31262.452   -109816.82 
  197000  0.038990136    -39.26781    31301.618     31262.61   -109819.15 
  198000  0.093781609   -39.016272    31301.618    31263.226   -109815.92 
  199000   0.22691148   -39.292834    31301.618    31263.835   -109817.46 
  200000   0.10574128   -39.212945    31301.618    31263.109   -109819.93 
Loop time of 165.942 on 1 procs for 200000 steps with 2233 atoms

Performance: 104.133 ns/day, 0.230 hours/ns, 1205.243 timesteps/s
100.0% CPU use with 1 MPI tasks x no OpenMP threads

MPI task timing breakdown:
Section |  min time  |  avg time  |  max time  |%varavg| %total
---------------------------------------------------------------
Pair    | 3.9349     | 3.9349     | 3.9349     |   0.0 |  2.37
Bond    | 135.47     | 135.47     | 135.47     |   0.0 | 81.64
Neigh   | 9.2788     | 9.2788     | 9.2788     |   0.0 |  5.59
Comm    | 11.932     | 11.932     | 11.932     |   0.0 |  7.19
Output  | 0.51689    | 0.51689    | 0.51689    |   0.0 |  0.31
Modify  | 1.1118     | 1.1118     | 1.1118     |   0.0 |  0.67
Other   |            | 3.696      |            |       |  2.23

Nlocal:    2233 ave 2233 max 2233 min
Histogram: 1 0 0 0 0 0 0 0 0 0
Nghost:    15409 ave 15409 max 15409 min
Histogram: 1 0 0 0 0 0 0 0 0 0
Neighs:    1204 ave 1204 max 1204 min
Histogram: 1 0 0 0 0 0 0 0 0 0

Total # of neighbors = 1204
Ave neighs/atom = 0.539185
Ave special neighs/atom = 6.38424
Neighbor list builds = 163
Dangerous builds = 0
unfix           1
unfix           2
#unfix           3
#unfix           4

# --------------------- Production (data gathering) --------------------------------------- #
# A simple way to hold atoms stationary is to not include those atoms in your time integration.
reset_timestep  0

fix             3 kr nvt temp ${eqtemp} ${eqtemp} ${tdamp}
fix             3 kr nvt temp 298 ${eqtemp} ${tdamp}
fix             3 kr nvt temp 298 298 ${tdamp}
fix             3 kr nvt temp 298 298 100
#fix             6 fram nvt temp 298.00 298.00 ${tdamp}


###
#  mean-squared disp of grp 1
#
# A vector of four quantities is calculated by this compute:
# The first 3 elements of the vector are the squared dx,dy,dz displacements, summed and averaged over atoms in the group.
# The fourth element is the total squared displacement, i.e. (dx*dx + dy*dy + dz*dz),
#  summed and averaged over atoms in the group.
#
# The slope of the MSD versus time is proportional to the diffusion coefficient.
# MSD values can be accumulated in a vector via the fix vector command,
#   and a line fit to the vector to compute its slope via the variable slope function,
#   and thus extract D.
#
# fix ID group-ID vector Nevery value1 value2 ...
#
# c_ID[I] = Ith component of global vector calculated by a compute with ID
# f_ID = global scalar calculated by a fix with ID
# v_name = value calculated by an equal-style variable with name
#
# variable name style args...
#
# The slope() function uses linear regression to fit a line to the set of points,
#   equally spaced by 1 in their x coordinate: (1,V1), (2,V2), …, (N,VN),
#   where the Vi are the values in the global vector of length N.
#   The returned value is the slope of the line.
#   If the line has a single point or is vertical, it returns 1.0e20.
###
compute         msd all msd com yes
fix             4 kr vector 500 c_msd[4]
variable        fitslope equal slope(f_4)/6/(500*dt) # why dividing slope?

thermo_style    custom step v_eqtemp c_msd[4] v_fitslope # prints this info to log file



thermo          1000
run             1000000
WARNING: Inconsistent image flags (src/domain.cpp:785)
Per MPI rank memory allocation (min/avg/max) = 34.26 | 34.26 | 34.26 Mbytes
Step v_eqtemp c_msd[4] v_fitslope 
       0          298 2.234105e-30 3.3333333e+16 
    1000          298 0.00048086549 8.0144249e-08 
    2000          298 0.00061243907  4.97294e-08 
    3000          298 0.0014384762 6.0912687e-08 
    4000          298  0.001252442 6.1070356e-08 
    5000          298 0.0006955457  3.24709e-08 
    6000          298 0.00098308106 2.2637958e-08 
    7000          298 0.00027627859 3.8607595e-09 
    8000          298 0.00032809648 -3.2578525e-09 
    9000          298 0.00028503061 -5.4991653e-09 
   10000          298 0.0012417624 -3.6042282e-09 
   11000          298  0.002675807 6.780371e-09 
   12000          298 0.0018740155 1.4671666e-08 
   13000          298 0.00032870926 8.1309008e-09 
   14000          298 0.00032287559 3.5215193e-09 
   15000          298 0.0024035742 5.8453513e-09 
   16000          298 0.0017012932 1.0524461e-08 
   17000          298 0.00035740307 6.486563e-09 
   18000          298 0.00068581327 5.0035995e-09 
   19000          298 0.00077371395 2.7975958e-09 
   20000          298 0.0011149192 2.1710924e-09 
   21000          298 0.0023272062 3.5264271e-09 
   22000          298 0.0020376864 6.0690824e-09 
   23000          298 0.00039553815 4.507715e-09 
   24000          298 0.00014846087 2.6536748e-09 
   25000          298 0.00093373476 2.001393e-09 
   26000          298 0.0013321213 2.4004901e-09 
   27000          298 0.00075201984 1.9161251e-09 
   28000          298 0.00084001939 1.7835992e-09 
   29000          298 0.00029616126 7.6691433e-10 
   30000          298 0.00051974073 8.4609429e-11 
   31000          298 0.0025952561 1.1235284e-09 
   32000          298 0.00059891384 1.0214181e-09 
   33000          298 0.00057117485 4.1848066e-10 
   34000          298 0.00079620094 -7.8150386e-11 
   35000          298  0.001733238 4.0946081e-10 
   36000          298 0.00020428387 1.0033023e-10 
   37000          298 0.00022081373 -4.4973317e-10 
   38000          298 0.0017304865 -3.4855029e-10 
   39000          298 0.0014377189 4.062686e-10 
   40000          298 0.00028826987 -6.3978439e-11 
   41000          298 0.00025076718 -4.0918222e-10 
   42000          298 0.0024178347 -1.0742088e-10 
   43000          298 0.00078344385 1.4934254e-10 
   44000          298 0.00046786779 -1.9624043e-10 
   45000          298 0.0013618577 3.5636629e-11 
   46000          298 0.00027631522 -2.6351201e-10 
   47000          298 0.0012440899 -3.1704362e-10 
   48000          298 0.0010806602 -2.8408165e-10 
   49000          298 0.00066559144 -2.4370128e-10 
   50000          298 0.0003043189 -4.3991488e-10 
   51000          298 0.00028238362 -6.3860441e-10 
   52000          298 0.0030983203 -2.3205403e-10 
   53000          298 0.0010935191 9.2870051e-11 
   54000          298 0.00047148331 -1.4823095e-10 
   55000          298 0.00036222798 -2.3618745e-10 
   56000          298 0.00079250641 -3.5670416e-10 
   57000          298 0.0025637286 8.5044453e-11 
   58000          298 0.00027093987 3.6454096e-11 
   59000          298 0.00024770562 -1.7801162e-10 
   60000          298 0.0024921111 -3.3009764e-11 
   61000          298 0.00053509623 5.2882956e-11 
   62000          298 0.00027655311 -1.2156956e-10 
   63000          298 0.0011084318 -1.778479e-10 
   64000          298 0.0037571987 3.910507e-10 
   65000          298 0.00025918151 3.8030226e-10 
   66000          298 0.00014095544 1.8269432e-10 
   67000          298  0.001905213 2.0546467e-10 
   68000          298 0.0019552785 5.5611822e-10 
   69000          298 0.00020597949 4.1114285e-10 
   70000          298 0.00036503837 2.6603861e-10 
   71000          298 0.0025020794 4.8760525e-10 
   72000          298 0.00060822451 4.1103873e-10 
   73000          298 0.00035626667 3.2291491e-10 
   74000          298 0.0016281128 3.6698479e-10 
   75000          298 0.0011831084 4.2877728e-10 
   76000          298 0.00063126831 3.2518275e-10 
   77000          298 0.0004666175 1.8948882e-10 
   78000          298 0.00060050911 8.1026442e-11 
   79000          298 0.00032172939 -4.0636486e-11 
   80000          298 0.00056203014 -1.3575464e-10 
   81000          298 0.0013189934 -1.3894547e-10 
   82000          298 0.0016616788 2.2259986e-11 
   83000          298 0.00079865928 -1.0246755e-11 
   84000          298 0.00045381021 -1.0933927e-10 
   85000          298 0.00067483643 -1.8266237e-10 
   86000          298 0.0017733511 -6.0514106e-11 
   87000          298 0.0012354183 -4.3772509e-11 
   88000          298 4.7761974e-05 -9.5961698e-11 
   89000          298 0.00028169568 -1.6657238e-10 
   90000          298 0.0018795946 -8.7866458e-11 
   91000          298 0.0008571276 -6.3176242e-11 
   92000          298 0.0005562114 -1.3480817e-10 
   93000          298 0.00051753215 -1.9452171e-10 
   94000          298 0.0029399836 -7.0492267e-11 
   95000          298 0.00076037674 -1.1802911e-11 
   96000          298 0.00025732233 -8.2960545e-11 
   97000          298 0.00031262944 -1.4957391e-10 
   98000          298 0.0026276172 -6.3485733e-11 
   99000          298 0.0016256617 1.205823e-10 
  100000          298 0.0006969123 8.1556099e-11 
  101000          298 0.00064228457 3.1310481e-11 
  102000          298 0.0019538369 1.1150065e-10 
  103000          298 0.00065179182 1.0136736e-10 
  104000          298 0.00074832817 4.7566884e-11 
  105000          298 0.0011149679 3.5309043e-11 
  106000          298 0.0026684717 1.5911463e-10 
  107000          298 0.0001957891 1.0557158e-10 
  108000          298 0.00028813047 4.2245099e-11 
  109000          298 0.0023819769 8.5442375e-11 
  110000          298 0.0035474059 3.2630702e-10 
  111000          298 0.00090384461 3.326823e-10 
  112000          298  0.001027619 3.0156838e-10 
  113000          298 0.00037008428 2.5578026e-10 
  114000          298 0.00022386407 1.917366e-10 
  115000          298 0.0010519222 1.7627579e-10 
  116000          298 0.0017197987 2.0768949e-10 
  117000          298 0.0010431467 2.0520328e-10 
  118000          298 0.00039804905 1.6115205e-10 
  119000          298 0.0014323053 1.6135691e-10 
  120000          298 0.0026984251 2.6661439e-10 
  121000          298 0.0001003681 2.1127063e-10 
  122000          298 0.0016252821 2.2757833e-10 
  123000          298 0.00013271054 1.9244993e-10 
  124000          298 0.00097147272 1.6673149e-10 
  125000          298 0.0013774479 1.9363885e-10 
  126000          298 0.0010795627 1.9395466e-10 
  127000          298 0.00012698196 1.6445947e-10 
  128000          298 6.7482313e-05 1.1297496e-10 
  129000          298 0.00046637029 8.8661576e-11 
  130000          298 6.785575e-05 4.6355771e-11 
  131000          298 0.00041213848 8.8782551e-12 
  132000          298 0.00016604333 -3.5739993e-11 
  133000          298 0.00080974903 -5.3586733e-11 
  134000          298 0.00023057303 -6.9099466e-11 
  135000          298 0.00085505561 -8.555703e-11 
  136000          298 0.0012968281 -7.0330383e-11 
  137000          298 0.00067200132 -7.4845788e-11 
  138000          298 0.0013191446 -7.3728528e-11 
  139000          298 8.514314e-05 -9.3584447e-11 
  140000          298 2.6755103e-05 -1.2793448e-10 
  141000          298 0.00034049928 -1.463661e-10 
  142000          298 0.00014706983 -1.7282457e-10 
  143000          298 0.00020306753 -1.9495521e-10 
  144000          298 0.00027389603 -2.1734368e-10 
  145000          298 0.00027843158 -2.4698134e-10 
  146000          298 0.00036941258 -2.7320952e-10 
  147000          298 0.0012114427 -2.6954881e-10 
  148000          298 0.0019363331 -2.2706584e-10 
  149000          298 0.0012647998 -1.9641813e-10 
  150000          298 0.00078172276 -2.0855914e-10 
  151000          298 0.00049882712 -2.0613294e-10 
  152000          298 0.00085647536 -2.0683155e-10 
  153000          298 0.0019017087 -1.7081287e-10 
  154000          298   0.00152461 -1.2940142e-10 
  155000          298 5.6299798e-05 -1.4805702e-10 
  156000          298 0.00019961829 -1.6844001e-10 
  157000          298 0.0020814658 -1.4679824e-10 
  158000          298 0.0007891037 -1.299683e-10 
  159000          298 0.00024296572 -1.5430881e-10 
  160000          298 0.00071404215 -1.5870939e-10 
  161000          298 0.00039640792 -1.8192827e-10 
  162000          298 0.0032852798 -1.2168654e-10 
  163000          298 0.00012846927 -1.2520353e-10 
  164000          298 0.0020541406 -1.1167068e-10 
  165000          298 0.0059088001 2.9292266e-11 
  166000          298  0.017949279 5.0891682e-10 
  167000          298  0.021588757 1.2020579e-09 
  168000          298  0.018466056 1.7858895e-09 
  169000          298 0.0083771783 2.0857348e-09 
  170000          298 0.0077989343 2.252776e-09 
  171000          298  0.018347349 2.6725063e-09 
  172000          298  0.025367361 3.3744308e-09 
  173000          298  0.017414231 3.9221525e-09 
  174000          298  0.006707313 4.0939922e-09 
  175000          298  0.004803394 4.1255605e-09 
  176000          298   0.01039017 4.2691945e-09 
  177000          298  0.018788218 4.7090784e-09 
  178000          298  0.017006266 5.1425423e-09 
  179000          298  0.012945502 5.4250192e-09 
  180000          298  0.016573039 5.7202825e-09 
  181000          298  0.027967206 6.3343257e-09 
  182000          298  0.022432585 6.9333633e-09 
  183000          298  0.010409102 7.1273802e-09 
  184000          298  0.014456707 7.3055053e-09 
  185000          298  0.020998403 7.7093174e-09 
  186000          298  0.019130438 8.0948383e-09 
  187000          298  0.016921221 8.4160272e-09 
  188000          298  0.013514675 8.5809264e-09 
  189000          298   0.01229561 8.7676564e-09 
  190000          298 0.0098390381 8.8190195e-09 
  191000          298  0.017029908 9.0163397e-09 
  192000          298  0.017404133 9.237449e-09 
  193000          298  0.028348386 9.7057972e-09 
  194000          298  0.021128658 1.0108191e-08 
  195000          298   0.01557126 1.029182e-08 
  196000          298  0.019756996 1.0510484e-08 
  197000          298  0.028530705 1.0944646e-08 
  198000          298   0.02424476 1.1355527e-08 
  199000          298  0.018532145 1.1584594e-08 
  200000          298  0.019129377 1.1779669e-08 
  201000          298  0.023204208 1.2040672e-08 
  202000          298  0.020266675 1.2328767e-08 
  203000          298   0.01353828 1.2390483e-08 
  204000          298  0.013761656 1.2449817e-08 
  205000          298  0.021880418 1.2617295e-08 
  206000          298  0.019581126 1.2842717e-08 
  207000          298  0.022602735 1.3035666e-08 
  208000          298  0.019819538 1.3249898e-08 
  209000          298  0.026222738 1.349376e-08 
  210000          298  0.023662834 1.3763126e-08 
  211000          298  0.022976643 1.3967571e-08 
  212000          298  0.020179682 1.4120517e-08 
  213000          298  0.033678514 1.4471818e-08 
  214000          298   0.03130944 1.489295e-08 
  215000          298  0.016815633 1.500416e-08 
  216000          298  0.016919211 1.5032061e-08 
  217000          298  0.026755088 1.5222732e-08 
  218000          298    0.0216021 1.5413844e-08 
  219000          298  0.014373955 1.5403438e-08 
  220000          298  0.011787269 1.5374394e-08 
  221000          298 0.0092714426 1.5243912e-08 
  222000          298  0.017471896 1.5236805e-08 
  223000          298  0.018053043 1.526673e-08 
  224000          298  0.029502287 1.5480561e-08 
  225000          298   0.02795627 1.5742385e-08 
  226000          298  0.017799741 1.5811421e-08 
  227000          298  0.022234079 1.5892111e-08 
  228000          298  0.026378167 1.6059304e-08 
  229000          298   0.01562828 1.6070099e-08 
  230000          298  0.018326171 1.6075457e-08 
  231000          298   0.01941768 1.6099787e-08 
  232000          298  0.026483009 1.6235774e-08 
  233000          298  0.017420622 1.6306626e-08 
  234000          298  0.007074872 1.6153683e-08 
  235000          298 0.0078056333 1.5963888e-08 
  236000          298  0.020488167 1.5952513e-08 
  237000          298  0.024110012 1.6085613e-08 
  238000          298  0.013674161 1.6046804e-08 
  239000          298  0.015092278 1.5978722e-08 
  240000          298  0.029047726 1.6102118e-08 
  241000          298  0.035223011 1.6393341e-08 
  242000          298  0.021898708 1.6515754e-08 
  243000          298  0.018790599 1.6499409e-08 
  244000          298  0.022937492 1.656689e-08 
  245000          298  0.025866917 1.6661936e-08 
  246000          298  0.020548135 1.6733864e-08 
  247000          298  0.014754758 1.6663674e-08 
  248000          298  0.018440434 1.6628248e-08 
  249000          298   0.03050385 1.6765427e-08 
  250000          298    0.0247947 1.6890126e-08 
  251000          298  0.010943667 1.6793084e-08 
  252000          298  0.011139668 1.6636923e-08 
  253000          298  0.021491724 1.6617601e-08 
  254000          298  0.021859686 1.6677505e-08 
  255000          298  0.017139246 1.663843e-08 
  256000          298  0.027648114 1.6699595e-08 
  257000          298  0.023725011 1.6788942e-08 
  258000          298   0.02067421 1.6781333e-08 
  259000          298  0.022140389 1.6812936e-08 
  260000          298  0.021946264 1.6810223e-08 
  261000          298  0.023073763 1.6858842e-08 
  262000          298  0.011983378 1.6765164e-08 
  263000          298  0.013041018 1.6626592e-08 
  264000          298  0.022366749 1.6617948e-08 
  265000          298  0.019755256 1.6631798e-08 
  266000          298  0.018524545 1.6581879e-08 
  267000          298  0.025455819 1.6631601e-08 
  268000          298  0.021933172 1.6661517e-08 
  269000          298  0.016535068 1.6613435e-08 
  270000          298  0.015599403 1.652897e-08 
  271000          298  0.019423001 1.6482725e-08 
  272000          298  0.018402147 1.6456038e-08 
  273000          298  0.012795762 1.6358937e-08 
  274000          298  0.012968771 1.6232457e-08 
  275000          298  0.014279857 1.6154023e-08 
  276000          298  0.015669901 1.6061025e-08 
  277000          298  0.025303343 1.6073383e-08 
  278000          298  0.023273179 1.6104863e-08 
  279000          298  0.013682711 1.6026477e-08 
  280000          298  0.014379897 1.5930766e-08 
  281000          298  0.018124654 1.5861061e-08 
  282000          298  0.020753272 1.5861288e-08 
  283000          298   0.01996599 1.5828579e-08 
  284000          298   0.02254881 1.5828909e-08 
  285000          298  0.018443571 1.5792432e-08 
  286000          298  0.025677926 1.5797909e-08 
  287000          298  0.034710572 1.5937212e-08 
  288000          298  0.022553706 1.5981849e-08 
  289000          298  0.018949081 1.5937573e-08 
  290000          298  0.020437207 1.5914717e-08 
  291000          298  0.015148273 1.5848524e-08 
  292000          298   0.01371947 1.5741954e-08 
  293000          298  0.019379377  1.56909e-08 
  294000          298   0.02033653 1.5675692e-08 
  295000          298    0.0180304 1.5615588e-08 
  296000          298  0.027962288 1.5648887e-08 
  297000          298  0.020874115 1.5658245e-08 
  298000          298  0.016240601 1.5589559e-08 
  299000          298  0.016529339 1.5512431e-08 
  300000          298  0.019907437 1.5462435e-08 
  301000          298  0.023545514 1.545096e-08 
  302000          298  0.025036379 1.5470527e-08 
  303000          298  0.017403919 1.5425164e-08 
  304000          298  0.010845208 1.529343e-08 
  305000          298  0.017464577 1.520258e-08 
  306000          298  0.020516136 1.5173425e-08 
  307000          298  0.014182057 1.5098373e-08 
  308000          298   0.01522659 1.4994282e-08 
  309000          298   0.02787419 1.5005581e-08 
  310000          298  0.027531335 1.5066079e-08 
  311000          298  0.016454505 1.5020033e-08 
  312000          298  0.020416624 1.4964524e-08 
  313000          298  0.022934193 1.496259e-08 
  314000          298  0.013299364 1.4876101e-08 
  315000          298  0.017561185 1.4793239e-08 
  316000          298  0.026662235 1.4807501e-08 
  317000          298  0.018963836 1.4780666e-08 
  318000          298  0.012382265 1.4675625e-08 
  319000          298  0.015408529 1.458835e-08 
  320000          298  0.022893307 1.4559865e-08 
  321000          298  0.020692103 1.4536193e-08 
  322000          298  0.021482583 1.4503989e-08 
  323000          298  0.021202934 1.4489192e-08 
  324000          298   0.01646785 1.4417636e-08 
  325000          298  0.012314365 1.4331447e-08 
  326000          298  0.011523013 1.4209912e-08 
  327000          298  0.019416148 1.4151948e-08 
  328000          298  0.019352687 1.4110668e-08 
  329000          298   0.01262851 1.401871e-08 
  330000          298  0.018996558  1.39542e-08 
  331000          298  0.024197924 1.3954726e-08 
  332000          298  0.015861191 1.3902013e-08 
  333000          298  0.014446075 1.3807259e-08 
  334000          298  0.016481388 1.3739351e-08 
  335000          298  0.027857319 1.3745378e-08 
  336000          298  0.021728403 1.3750774e-08 
  337000          298  0.015032872 1.3678854e-08 
  338000          298  0.023439088 1.3647815e-08 
  339000          298  0.025807915 1.3666917e-08 
  340000          298  0.012625587 1.3593029e-08 
  341000          298  0.011557315 1.3476074e-08 
  342000          298  0.024914634 1.3450042e-08 
  343000          298  0.030548554 1.3505383e-08 
  344000          298   0.01702089 1.3474588e-08 
  345000          298  0.011193545 1.3363549e-08 
  346000          298  0.021342411 1.3311342e-08 
  347000          298  0.035333781 1.3377956e-08 
  348000          298  0.029543714 1.3443601e-08 
  349000          298  0.015459546 1.3393283e-08 
  350000          298   0.01355455 1.3294505e-08 
  351000          298  0.023925141 1.3266271e-08 
  352000          298  0.029490596 1.3301893e-08 
  353000          298  0.019974561 1.3285186e-08 
  354000          298  0.011966036 1.3190886e-08 
  355000          298  0.014922054 1.3098288e-08 
  356000          298  0.014999204 1.3024646e-08 
  357000          298  0.023358168 1.2995121e-08 
  358000          298  0.018406014 1.2959289e-08 
  359000          298  0.023586772 1.2932453e-08 
  360000          298  0.017814614 1.2897228e-08 
  361000          298  0.021983381 1.2858228e-08 
  362000          298  0.022273748 1.2843523e-08 
  363000          298  0.028079035 1.2853157e-08 
  364000          298  0.022409027 1.2843349e-08 
  365000          298  0.027642646 1.2854172e-08 
  366000          298  0.023379454 1.2844949e-08 
  367000          298  0.021047595 1.2827085e-08 
  368000          298  0.014261424 1.2751729e-08 
  369000          298  0.014259796 1.2675153e-08 
  370000          298  0.015935714 1.2600008e-08 
  371000          298  0.022196114 1.2569583e-08 
  372000          298  0.022099781 1.2556212e-08 
  373000          298  0.018022056 1.251495e-08 
  374000          298  0.016917825 1.2452714e-08 
  375000          298  0.015732515 1.2394253e-08 
  376000          298  0.023708443 1.2359299e-08 
  377000          298  0.027863208 1.2377299e-08 
  378000          298  0.017642555 1.2337024e-08 
  379000          298   0.02329145 1.230805e-08 
  380000          298  0.025807053 1.2311243e-08 
  381000          298  0.021228164 1.2285294e-08 
  382000          298  0.014471717 1.2220832e-08 
  383000          298   0.01750236 1.2156199e-08 
  384000          298   0.02227317 1.2129913e-08 
  385000          298  0.027186874 1.2138216e-08 
  386000          298     0.019168 1.2109737e-08 
  387000          298  0.018106631 1.2054165e-08 
  388000          298 0.0096019679 1.1963427e-08 
  389000          298 0.0086274805 1.1847402e-08 
  390000          298  0.019239032 1.1785753e-08 
  391000          298  0.022099822 1.1761046e-08 
  392000          298  0.017149003 1.1709742e-08 
  393000          298 0.0091428961 1.1615192e-08 
  394000          298  0.012666256 1.1524926e-08 
  395000          298  0.016380258 1.1473134e-08 
  396000          298  0.020815547 1.1428089e-08 
  397000          298  0.024055148 1.1430635e-08 
  398000          298  0.018850385 1.139764e-08 
  399000          298  0.016235356 1.1339528e-08 
  400000          298 0.0090080065 1.1249268e-08 
  401000          298  0.012165691 1.1155974e-08 
  402000          298  0.026574064 1.1139708e-08 
  403000          298  0.024701337 1.1148523e-08 
  404000          298  0.010946621 1.1079826e-08 
  405000          298  0.010827433 1.0986416e-08 
  406000          298  0.017294219 1.0934797e-08 
  407000          298  0.014623602 1.0868879e-08 
  408000          298  0.012632023 1.0809403e-08 
  409000          298 0.0066029044 1.0703481e-08 
  410000          298   0.01284313 1.0619203e-08 
  411000          298  0.018196795 1.0578351e-08 
  412000          298  0.017978324 1.0542454e-08 
  413000          298  0.010064066 1.0472355e-08 
  414000          298 0.0066497088 1.036745e-08 
  415000          298  0.015232356 1.0296429e-08 
  416000          298   0.01389208 1.0241254e-08 
  417000          298  0.023048387 1.0215332e-08 
  418000          298  0.025733701 1.0219414e-08 
  419000          298  0.019884799 1.019743e-08 
  420000          298  0.013724943 1.0146177e-08 
  421000          298  0.015882641 1.0094705e-08 
  422000          298  0.020790309 1.0060094e-08 
  423000          298  0.023198496 1.0050365e-08 
  424000          298   0.02521076 1.0044377e-08 
  425000          298  0.022464002 1.0040882e-08 
  426000          298  0.011996013 9.9810538e-09 
  427000          298  0.016056962 9.9219655e-09 
  428000          298  0.023004453 9.9000063e-09 
  429000          298  0.022713695 9.8940095e-09 
  430000          298  0.017830327 9.8589298e-09 
  431000          298  0.019409243 9.8320148e-09 
  432000          298  0.019694146 9.7992762e-09 
  433000          298  0.020908515 9.7802408e-09 
  434000          298  0.018708095 9.7444596e-09 
  435000          298  0.025697066 9.7420694e-09 
  436000          298  0.022496492 9.727807e-09 
  437000          298  0.028745229 9.7452947e-09 
  438000          298  0.017082653 9.7204216e-09 
  439000          298  0.015046881 9.6667352e-09 
  440000          298  0.025259875 9.6503005e-09 
  441000          298  0.027034211 9.6629737e-09 
  442000          298  0.017653157  9.63767e-09 
  443000          298  0.023134584 9.6133008e-09 
  444000          298  0.025635252 9.6194316e-09 
  445000          298  0.014954122 9.5817125e-09 
  446000          298 0.0095116802 9.5053966e-09 
  447000          298  0.016755086 9.4523621e-09 
  448000          298  0.020508528 9.4216143e-09 
  449000          298   0.02080072 9.4100273e-09 
  450000          298  0.015136637 9.3614694e-09 
  451000          298  0.013611464 9.3153518e-09 
  452000          298  0.010040847 9.2419379e-09 
  453000          298  0.017904343 9.1949833e-09 
  454000          298  0.016932631 9.1553529e-09 
  455000          298   0.02770996 9.1555433e-09 
  456000          298  0.028363378 9.1762982e-09 
  457000          298  0.016488111 9.1502552e-09 
  458000          298  0.017141763 9.1059063e-09 
  459000          298  0.013139014 9.0597286e-09 
  460000          298  0.014204875 9.0050739e-09 
  461000          298  0.018904218 8.9735376e-09 
  462000          298  0.017202051 8.9423862e-09 
  463000          298  0.012785154 8.8907115e-09 
  464000          298  0.016381667 8.8418714e-09 
  465000          298  0.028677339 8.8459033e-09 
  466000          298  0.027317966 8.8651494e-09 
  467000          298  0.016613645 8.8361269e-09 
  468000          298  0.026176052 8.8268353e-09 
  469000          298  0.026955146 8.8426063e-09 
  470000          298  0.017100487 8.8152006e-09 
  471000          298  0.015464827 8.7690463e-09 
  472000          298  0.022780187 8.7481115e-09 
  473000          298  0.019771622 8.7388905e-09 
  474000          298 0.0095365763 8.6790747e-09 
  475000          298  0.011040698 8.6108441e-09 
  476000          298   0.02319858 8.5885413e-09 
  477000          298  0.025257047 8.5909237e-09 
  478000          298  0.015833397 8.5640917e-09 
  479000          298  0.010715576 8.503332e-09 
  480000          298  0.019683137  8.46656e-09 
  481000          298  0.026786709 8.467887e-09 
  482000          298  0.019020316 8.4570813e-09 
  483000          298   0.01409207 8.4103623e-09 
  484000          298  0.019473522 8.3785522e-09 
  485000          298  0.021214023 8.3602329e-09 
  486000          298   0.01365344 8.3180607e-09 
  487000          298  0.015958688 8.2748799e-09 
  488000          298  0.027842397 8.2723988e-09 
  489000          298   0.02588671 8.283596e-09 
  490000          298  0.013532948 8.2470061e-09 
  491000          298  0.014352013 8.196462e-09 
  492000          298  0.027765491 8.1925777e-09 
  493000          298  0.022897001 8.1904979e-09 
  494000          298  0.010140078 8.1408659e-09 
  495000          298 0.0085877024 8.0715466e-09 
  496000          298  0.017632884 8.0305601e-09 
  497000          298  0.024522396 8.0215362e-09 
  498000          298  0.018404199 8.0025703e-09 
  499000          298  0.012366034 7.9555267e-09 
  500000          298  0.016535984 7.9152275e-09 
  501000          298  0.012605335 7.8684756e-09 
  502000          298  0.014480779 7.8289411e-09 
  503000          298 0.0097745072 7.7712895e-09 
  504000          298  0.019127631 7.7362711e-09 
  505000          298  0.027832183 7.7392844e-09 
  506000          298  0.021970219 7.739315e-09 
  507000          298  0.019263887 7.7147176e-09 
  508000          298  0.028921612 7.7215094e-09 
  509000          298  0.021569505 7.720248e-09 
  510000          298  0.011469303 7.6763048e-09 
  511000          298  0.018000721 7.6416018e-09 
  512000          298  0.024180847 7.6341785e-09 
  513000          298  0.014755278 7.6036423e-09 
  514000          298  0.019533394 7.5760354e-09 
  515000          298  0.024270872 7.569165e-09 
  516000          298  0.023663657 7.5662521e-09 
  517000          298  0.017513226 7.5416212e-09 
  518000          298  0.026369291 7.5372216e-09 
  519000          298  0.025422741 7.5463283e-09 
  520000          298  0.016820206 7.5218374e-09 
  521000          298  0.024620782 7.5072375e-09 
  522000          298  0.039138042 7.5483258e-09 
  523000          298  0.036523191 7.5955256e-09 
  524000          298  0.020071628 7.5915739e-09 
  525000          298  0.014714446 7.5521177e-09 
  526000          298  0.010819187 7.508412e-09 
  527000          298 0.0099706901 7.4519379e-09 
  528000          298  0.019151957 7.4240514e-09 
  529000          298  0.020953494 7.4091448e-09 
  530000          298  0.021605968 7.3975661e-09 
  531000          298  0.015709706 7.3716935e-09 
  532000          298  0.013250239 7.3285229e-09 
  533000          298  0.024199251 7.3140115e-09 
  534000          298  0.020523367 7.3045312e-09 
  535000          298  0.011971424 7.2626015e-09 
  536000          298  0.019030828 7.2316868e-09 
  537000          298  0.031056526 7.2415539e-09 
  538000          298  0.027142842 7.2561818e-09 
  539000          298  0.016880458 7.2337338e-09 
  540000          298 0.0093716032 7.1835237e-09 
  541000          298  0.014793747 7.1420207e-09 
  542000          298  0.026313931 7.1376136e-09 
  543000          298  0.022430602 7.1352691e-09 
  544000          298  0.012032405 7.0966468e-09 
  545000          298  0.011899708 7.0490414e-09 
  546000          298  0.016528034 7.0204035e-09 
  547000          298  0.021029379 7.0037316e-09 
  548000          298  0.018042978 6.9866277e-09 
  549000          298  0.017787354 6.9571323e-09 
  550000          298  0.023262289 6.9497734e-09 
  551000          298  0.020856144 6.937898e-09 
  552000          298  0.014804867 6.9106461e-09 
  553000          298  0.018222361 6.8820816e-09 
  554000          298  0.018791383 6.8613739e-09 
  555000          298  0.019725032 6.8455696e-09 
  556000          298   0.02485774 6.8385925e-09 
  557000          298  0.024113681 6.8368833e-09 
  558000          298  0.013737349 6.8073496e-09 
  559000          298  0.014994949 6.7723398e-09 
  560000          298  0.016549934 6.7414249e-09 
  561000          298  0.022108956 6.7297916e-09 
  562000          298  0.021450899 6.7172692e-09 
  563000          298  0.021897043 6.7060033e-09 
  564000          298  0.018626009 6.6900947e-09 
  565000          298  0.014243169 6.6574133e-09 
  566000          298  0.014796662 6.6243197e-09 
  567000          298  0.025655034 6.6148366e-09 
  568000          298   0.03289817 6.6379405e-09 
  569000          298  0.020347289 6.633211e-09 
  570000          298  0.013254247 6.6007735e-09 
  571000          298  0.017858542 6.5705299e-09 
  572000          298  0.024058011 6.5633135e-09 
  573000          298  0.016619528 6.5434525e-09 
  574000          298  0.010623668 6.5016304e-09 
  575000          298  0.015682332 6.4687231e-09 
  576000          298 0.0096231753 6.4250124e-09 
  577000          298  0.018760978 6.3958992e-09 
  578000          298  0.032638087 6.4083697e-09 
  579000          298  0.026704921 6.4220723e-09 
  580000          298  0.015648052 6.398554e-09 
  581000          298  0.014014645 6.365664e-09 
  582000          298  0.017846843 6.342624e-09 
  583000          298   0.02021813 6.3287866e-09 
  584000          298  0.023945953 6.3247526e-09 
  585000          298  0.017710859 6.3104154e-09 
  586000          298  0.012060464 6.2749371e-09 
  587000          298  0.017685595 6.2463874e-09 
  588000          298  0.025157426 6.2435334e-09 
  589000          298  0.020077171 6.2329053e-09 
  590000          298 0.0085479525 6.1932361e-09 
  591000          298 0.0054417788 6.137594e-09 
  592000          298  0.012568652 6.095007e-09 
  593000          298  0.027126415 6.0901819e-09 
  594000          298  0.034948174 6.1167065e-09 
  595000          298  0.022007683 6.1189559e-09 
  596000          298  0.010882637 6.0860014e-09 
  597000          298  0.015129704 6.0531456e-09 
  598000          298  0.026261332 6.0487584e-09 
  599000          298  0.020822661 6.0428116e-09 
  600000          298  0.018148589 6.0237945e-09 
  601000          298  0.026215761 6.0227038e-09 
  602000          298  0.020844263 6.0163629e-09 
  603000          298  0.017808688 5.9956996e-09 
  604000          298  0.016715754 5.9760731e-09 
  605000          298  0.019535974 5.9577651e-09 
  606000          298  0.017896338 5.939727e-09 
  607000          298 0.0074317426 5.8986873e-09 
  608000          298 0.0063759235 5.8476102e-09 
  609000          298  0.016117648 5.8153943e-09 
  610000          298   0.01812613 5.7962601e-09 
  611000          298  0.021740498 5.784681e-09 
  612000          298  0.024000554 5.7848627e-09 
  613000          298  0.014086148 5.7619398e-09 
  614000          298  0.013610219 5.7293694e-09 
  615000          298  0.026269454 5.7247219e-09 
  616000          298   0.02342184 5.728475e-09 
  617000          298  0.010178979 5.6978769e-09 
  618000          298 0.0061007404 5.6495236e-09 
  619000          298  0.013818894 5.613809e-09 
  620000          298  0.028865573 5.6141359e-09 
  621000          298  0.025422354 5.6225062e-09 
  622000          298  0.019559664 5.6105943e-09 
  623000          298  0.016881058 5.5912498e-09 
  624000          298  0.025089439 5.5840257e-09 
  625000          298   0.02894571 5.5961781e-09 
  626000          298  0.015068079 5.5801825e-09 
  627000          298  0.011377542 5.5471389e-09 
  628000          298  0.023806615 5.5357391e-09 
  629000          298  0.027717196 5.5438965e-09 
  630000          298  0.012732062 5.5215378e-09 
  631000          298 0.0087111366 5.4811171e-09 
  632000          298  0.016809709 5.4552318e-09 
  633000          298  0.020350768 5.4418691e-09 
  634000          298  0.015517135 5.4227187e-09 
  635000          298  0.011705054 5.391505e-09 
  636000          298  0.020261138 5.3741718e-09 
  637000          298  0.019475807 5.3618765e-09 
  638000          298  0.020537351 5.349115e-09 
  639000          298  0.024135735 5.348382e-09 
  640000          298  0.020356836 5.341544e-09 
  641000          298  0.016508129 5.3217468e-09 
  642000          298  0.010659423 5.2946341e-09 
  643000          298 0.0065879122 5.2516155e-09 
  644000          298  0.014768745 5.2215537e-09 
  645000          298  0.020465472 5.2090027e-09 
  646000          298  0.018924318 5.1959506e-09 
  647000          298 0.0089810064 5.1649928e-09 
  648000          298  0.006509227 5.1220511e-09 
  649000          298  0.016333097 5.0949031e-09 
  650000          298  0.024238672 5.0903012e-09 
  651000          298   0.02024803 5.084026e-09 
  652000          298  0.010841553 5.0570113e-09 
  653000          298  0.014619942 5.0287783e-09 
  654000          298  0.028377214 5.0305559e-09 
  655000          298  0.032399743 5.0511886e-09 
  656000          298  0.018173765 5.0453276e-09 
  657000          298  0.013347991 5.0223792e-09 
  658000          298  0.017823772 5.0024865e-09 
  659000          298   0.02200538 4.997802e-09 
  660000          298  0.019695204 4.9866859e-09 
  661000          298  0.027014072 4.9906423e-09 
  662000          298  0.022297721 4.9888658e-09 
  663000          298  0.020528585 4.9822907e-09 
  664000          298  0.018555731 4.9699158e-09 
  665000          298  0.024880542 4.9678143e-09 
  666000          298  0.020692985  4.96457e-09 
  667000          298  0.011475071 4.9416581e-09 
  668000          298  0.011022005 4.9104821e-09 
  669000          298  0.016327159 4.8913275e-09 
  670000          298  0.019085217 4.8785014e-09 
  671000          298  0.017755271 4.8656009e-09 
  672000          298  0.017201355 4.8488998e-09 
  673000          298  0.023306398 4.8442981e-09 
  674000          298  0.022585866 4.8411048e-09 
  675000          298   0.02629993 4.8439113e-09 
  676000          298   0.01732209 4.833144e-09 
  677000          298  0.023007942 4.8251601e-09 
  678000          298  0.021366037 4.8203099e-09 
  679000          298   0.01363804 4.8006008e-09 
  680000          298  0.014923049 4.7776988e-09 
  681000          298  0.027050325 4.7776332e-09 
  682000          298  0.028437515 4.7883432e-09 
  683000          298  0.017025852 4.7797117e-09 
  684000          298 0.0085955723 4.7487706e-09 
  685000          298  0.012335974 4.719537e-09 
  686000          298  0.026201643 4.7147467e-09 
  687000          298    0.0272214 4.7228214e-09 
  688000          298  0.016435753 4.7113651e-09 
  689000          298  0.013970375 4.690561e-09 
  690000          298  0.022022501 4.6796362e-09 
  691000          298  0.022914933  4.67788e-09 
  692000          298   0.02769237  4.68023e-09 
  693000          298  0.023584064 4.6821396e-09 
  694000          298  0.023060952 4.6782917e-09 
  695000          298   0.01864353 4.6685808e-09 
  696000          298  0.014069843 4.6485387e-09 
  697000          298  0.014316971 4.6267324e-09 
  698000          298  0.027367951 4.6246119e-09 
  699000          298   0.02232402 4.624745e-09 
  700000          298  0.011245172 4.6024093e-09 
  701000          298  0.015534173 4.5794964e-09 
  702000          298  0.027319547 4.5804018e-09 
  703000          298  0.019826139 4.5747803e-09 
  704000          298 0.0097597474 4.5489173e-09 
  705000          298  0.014804071 4.5257008e-09 
  706000          298  0.025758807 4.5240786e-09 
  707000          298  0.022348092 4.5227199e-09 
  708000          298  0.021916562 4.5188958e-09 
  709000          298  0.016781391 4.5082008e-09 
  710000          298  0.013999843 4.4876032e-09 
  711000          298   0.01547875 4.4695289e-09 
  712000          298  0.026119885 4.465637e-09 
  713000          298  0.037479177 4.4880262e-09 
  714000          298  0.027077635 4.5008497e-09 
  715000          298  0.013712885 4.4851569e-09 
  716000          298  0.014256827 4.4638328e-09 
  717000          298  0.020190703 4.4520059e-09 
  718000          298  0.019714307 4.442501e-09 
  719000          298  0.024769505 4.4407316e-09 
  720000          298   0.01957732 4.4364046e-09 
  721000          298  0.017579506 4.4217112e-09 
  722000          298 0.0092903575 4.3987802e-09 
  723000          298  0.004242447 4.3615015e-09 
  724000          298 0.0039847818  4.32255e-09 
  725000          298 0.0068166396 4.2872966e-09 
  726000          298  0.018353038 4.2698984e-09 
  727000          298  0.018553025 4.2587805e-09 
  728000          298  0.021335423 4.2509891e-09 
  729000          298  0.023173849 4.2500973e-09 
  730000          298  0.015763972 4.2381487e-09 
  731000          298  0.014415623 4.2185518e-09 
  732000          298  0.020643771 4.2095907e-09 
  733000          298  0.022724585 4.2049085e-09 
  734000          298  0.023322487 4.2048295e-09 
  735000          298  0.019729384 4.1987109e-09 
  736000          298  0.019947727 4.1882635e-09 
  737000          298  0.020690266 4.1833061e-09 
  738000          298  0.014340672 4.1685077e-09 
  739000          298  0.015678832 4.1500759e-09 
  740000          298  0.024775295  4.14733e-09 
  741000          298  0.018353498 4.142914e-09 
  742000          298  0.010679072 4.1208599e-09 
  743000          298  0.015849823 4.1010306e-09 
  744000          298  0.021515524 4.0938107e-09 
  745000          298  0.024167452 4.0935117e-09 
  746000          298  0.017808008 4.0847117e-09 
  747000          298  0.016805668 4.0722327e-09 
  748000          298 0.0058839647 4.0435681e-09 
  749000          298 0.0031404864 4.0071616e-09 
  750000          298 0.00055859075 3.9669213e-09 
  751000          298 0.0012952605 3.9259136e-09 
  752000          298 0.0025385188 3.8894134e-09 
  753000          298 0.00062395064 3.8491798e-09 
  754000          298 0.00058637171 3.8083317e-09 
  755000          298 0.00097491824 3.7682331e-09 
  756000          298 0.0034521673 3.7321019e-09 
  757000          298 0.0024982837 3.6968698e-09 
  758000          298  0.000836981 3.6586274e-09 
  759000          298 0.00062036423 3.6198411e-09 
  760000          298 0.00018734062 3.5809002e-09 
  761000          298 0.00034205437 3.5421516e-09 
  762000          298 2.8829004e-05 3.5035368e-09 
  763000          298 0.00015812701 3.4650659e-09 
  764000          298 0.00013604026 3.426833e-09 
  765000          298 0.00026061298 3.3889217e-09 
  766000          298 0.00029905213 3.3517632e-09 
  767000          298 0.00021270589 3.3144632e-09 
  768000          298 0.00036569057 3.2775564e-09 
  769000          298 0.0014124089 3.2421568e-09 
  770000          298 0.0014628841 3.2076591e-09 
  771000          298 0.0002804087 3.171801e-09 
  772000          298 0.00036136278 3.1355109e-09 
  773000          298 0.0012525946 3.1002367e-09 
  774000          298  0.001607187 3.0668043e-09 
  775000          298 0.00043146074 3.032086e-09 
  776000          298 0.00055013057 2.9969554e-09 
  777000          298 0.00016296041 2.9622734e-09 
  778000          298 0.0012927165 2.9285221e-09 
  779000          298 0.00016975463 2.8939046e-09 
  780000          298 0.00058092567 2.859683e-09 
  781000          298 0.0015062322 2.8278581e-09 
  782000          298  0.001451499 2.7962762e-09 
  783000          298 0.00011140692 2.7632864e-09 
  784000          298 0.00011330628 2.7298024e-09 
  785000          298 0.0013832905 2.6980099e-09 
  786000          298 0.0009920349 2.6659956e-09 
  787000          298 0.0028657233 2.6365555e-09 
  788000          298 0.0026823995 2.6081421e-09 
  789000          298 0.00028794618 2.5763271e-09 
  790000          298  0.000180395 2.5443035e-09 
  791000          298 0.00055221229 2.5126033e-09 
  792000          298 0.00021039836 2.4808922e-09 
  793000          298 0.00059441004 2.449631e-09 
  794000          298 0.00069307863 2.4195728e-09 
  795000          298 0.00034893854 2.3885921e-09 
  796000          298 0.00023002267 2.3579248e-09 
  797000          298 0.00044748537 2.3274743e-09 
  798000          298 0.00059074661 2.2977266e-09 
  799000          298 0.00013147086 2.2677408e-09 
  800000          298 0.00012431444 2.237768e-09 
  801000          298 0.00057709944 2.2083484e-09 
  802000          298 0.0024858497 2.1816315e-09 
  803000          298 0.00056578886 2.1532807e-09 
  804000          298 0.00045786942 2.1239887e-09 
  805000          298 0.0015822206 2.0958909e-09 
  806000          298 0.00068462455 2.0693014e-09 
  807000          298 0.00023533014 2.0405664e-09 
  808000          298 0.0010206384 2.012728e-09 
  809000          298 0.0063931421 1.9916063e-09 
  810000          298 0.0081130481 1.9750294e-09 
  811000          298 0.0067584752 1.9578034e-09 
  812000          298 0.0016086439 1.934073e-09 
  813000          298 3.5910627e-05 1.9063706e-09 
  814000          298 0.00039866749 1.879007e-09 
  815000          298 0.0033894083 1.8546573e-09 
  816000          298 0.0048806902 1.834575e-09 
  817000          298 0.00071591396 1.809911e-09 
  818000          298 0.00014587091 1.7830313e-09 
  819000          298 0.0012144291 1.7569843e-09 
  820000          298 0.0018002538 1.7341395e-09 
  821000          298 0.00011847336 1.7078854e-09 
  822000          298 0.0002415749 1.6818232e-09 
  823000          298 0.0014204771 1.6571006e-09 
  824000          298 0.00041004558 1.6315757e-09 
  825000          298 0.00039765528 1.6058891e-09 
  826000          298 0.00037517588 1.5803574e-09 
  827000          298 0.0011383488 1.5561106e-09 
  828000          298 0.00025189176 1.5311062e-09 
  829000          298 0.00033857295 1.5061973e-09 
  830000          298 0.00098479306 1.4823115e-09 
  831000          298 0.00012513494 1.4576544e-09 
  832000          298 0.0014176199 1.4343554e-09 
  833000          298 7.6004841e-05 1.4103348e-09 
  834000          298 0.00074249447 1.3867205e-09 
  835000          298 0.0016524498 1.3644726e-09 
  836000          298 0.00090030935 1.3419039e-09 
  837000          298 0.00019576033 1.3184686e-09 
  838000          298 0.00025245022 1.2950271e-09 
  839000          298 0.00080879639 1.2720897e-09 
  840000          298 0.0024388991 1.2519783e-09 
  841000          298 0.00026115022 1.2290859e-09 
  842000          298 0.00030022189 1.2062318e-09 
  843000          298 0.0015804325 1.1843389e-09 
  844000          298 0.0036966872 1.1666453e-09 
  845000          298 0.00070343731 1.1456396e-09 
  846000          298 0.00028229066 1.1233943e-09 
  847000          298 0.00056466982 1.1012389e-09 
  848000          298 0.0019702086 1.0807912e-09 
  849000          298 0.0011824339 1.060331e-09 
  850000          298 0.0018711795 1.0402481e-09 
  851000          298 0.0021210059 1.0207651e-09 
  852000          298 0.0015267175 1.0011604e-09 
  853000          298 0.0015219933 9.8125024e-10 
  854000          298 0.0049438582 9.6521789e-10 
  855000          298 0.0010491311 9.4648921e-10 
  856000          298 3.4943981e-05 9.2541521e-10 
  857000          298 0.00041226396 9.0467125e-10 
  858000          298 0.0036448992 8.8692439e-10 
  859000          298 0.0034495467 8.7111986e-10 
  860000          298 0.0010926423 8.523417e-10 
  861000          298 0.00061580756 8.3234948e-10 
  862000          298 0.00022088227 8.1197881e-10 
  863000          298 0.0011801451 7.9242592e-10 
  864000          298 0.00015864011 7.7277383e-10 
  865000          298 0.00021943715 7.5295015e-10 
  866000          298 0.00083122923 7.3369252e-10 
  867000          298 0.0020355602 7.1578108e-10 
  868000          298 0.0025672611 6.9920312e-10 
  869000          298  0.001411546 6.8216028e-10 
  870000          298 0.00052527248 6.6339928e-10 
  871000          298 0.00027246922 6.4414001e-10 
  872000          298  0.000318367 6.252397e-10 
  873000          298 0.0028306841 6.0864761e-10 
  874000          298  0.000707474 5.9084572e-10 
  875000          298 0.00044678653 5.7231919e-10 
  876000          298 0.00045166526 5.5380214e-10 
  877000          298 0.00054642466 5.354624e-10 
  878000          298 0.00091661184 5.1756989e-10 
  879000          298 0.00060959746 5.0010252e-10 
  880000          298 0.00029347731 4.8193245e-10 
  881000          298  0.001324323 4.6472793e-10 
  882000          298 0.0020803695 4.4919666e-10 
  883000          298 0.00048417322 4.3184054e-10 
  884000          298 0.00031706593 4.1425006e-10 
  885000          298 0.00063423751 3.9714996e-10 
  886000          298 0.00064370936 3.8044045e-10 
  887000          298 0.00039281221 3.6318945e-10 
  888000          298 0.0003088219 3.4644345e-10 
  889000          298 0.0013047317 3.3013615e-10 
  890000          298 0.0036522032 3.1738072e-10 
  891000          298 0.0019184565 3.0300195e-10 
  892000          298 0.00093365449 2.8720153e-10 
  893000          298 0.00021954894 2.7056056e-10 
  894000          298 0.00022289033 2.5393332e-10 
  895000          298 0.00067731726 2.3791116e-10 
  896000          298 0.0039993659 2.251074e-10 
  897000          298 0.0021516809 2.1263504e-10 
  898000          298  0.000388141 1.9703221e-10 
  899000          298 0.00052772501 1.8125688e-10 
  900000          298 0.0017155381 1.665744e-10 
  901000          298 0.0049767708 1.5550968e-10 
  902000          298 0.0020115466 1.4330946e-10 
  903000          298 0.00078141735 1.2859662e-10 
  904000          298 0.00070440729 1.140011e-10 
  905000          298 0.00064422002 9.9150847e-11 
  906000          298 1.2043309e-05 8.3950207e-11 
  907000          298 0.00063607265 6.9110403e-11 
  908000          298 0.00039967234 5.4029169e-11 
  909000          298   0.00193579 4.0353437e-11 
  910000          298 0.00092189748 2.6785232e-11 
  911000          298 0.00015644302 1.2178916e-11 
  912000          298 0.00011970649 -2.5063771e-12 
  913000          298 0.0014609099 -1.6120683e-11 
  914000          298 0.0016641841 -2.8386603e-11 
  915000          298 0.00028777443 -4.2626064e-11 
  916000          298 0.00051248302 -5.6781928e-11 
  917000          298 0.00038908142 -7.0992132e-11 
  918000          298 0.00056238225 -8.4869688e-11 
  919000          298 0.0002885426 -9.9058626e-11 
  920000          298 0.00092472815 -1.1272507e-10 
  921000          298 0.00062013638 -1.2628757e-10 
  922000          298 0.00061020323 -1.3991665e-10 
  923000          298 0.00086849526 -1.5316635e-10 
  924000          298 0.0026074176 -1.6485473e-10 
  925000          298 0.00039750243 -1.7776984e-10 
  926000          298 0.00057964931 -1.9098213e-10 
  927000          298 0.00039082642 -2.0434934e-10 
  928000          298 0.00069541155 -2.167777e-10 
  929000          298 0.00031692157 -2.299325e-10 
  930000          298 0.0005162264 -2.4298393e-10 
  931000          298  0.003919286 -2.5301959e-10 
  932000          298 0.00070295921 -2.6456069e-10 
  933000          298 0.00088333821 -2.7722743e-10 
  934000          298 0.0026752422 -2.8756961e-10 
  935000          298 0.0011877105 -2.9857622e-10 
  936000          298 0.00036261776 -3.1128786e-10 
  937000          298 0.0024831672 -3.2146848e-10 
  938000          298 0.00026614762 -3.3374458e-10 
  939000          298 0.00045021542 -3.4606912e-10 
  940000          298 0.00070994601 -3.5829249e-10 
  941000          298 0.0013273381 -3.6973183e-10 
  942000          298 0.0005136013 -3.8119222e-10 
  943000          298 0.00041084023 -3.9295967e-10 
  944000          298 0.0012183033 -4.0416461e-10 
  945000          298 0.0016809475 -4.1418272e-10 
  946000          298 0.00021869922 -4.2595994e-10 
  947000          298 0.0014037181 -4.3662379e-10 
  948000          298 0.00023795007 -4.4823589e-10 
  949000          298 0.0031188889 -4.5779769e-10 
  950000          298 0.00085189897 -4.6827665e-10 
  951000          298 0.00039959265 -4.7971277e-10 
  952000          298 0.00041459446 -4.9118827e-10 
  953000          298 0.00058812975 -5.02313e-10 
  954000          298 0.00097469398 -5.1286468e-10 
  955000          298 0.00091837717 -5.2332206e-10 
  956000          298 0.00032755439 -5.3431114e-10 
  957000          298 0.00041617422 -5.4535299e-10 
  958000          298 0.00052341028 -5.5626728e-10 
  959000          298 0.00051620883 -5.6692662e-10 
  960000          298 0.00019153771 -5.7785457e-10 
  961000          298 0.00037135588 -5.8855079e-10 
  962000          298   0.00103122 -5.9848375e-10 
  963000          298  0.002160777 -6.0700563e-10 
  964000          298 0.0017568179 -6.1591286e-10 
  965000          298 0.0027392896 -6.2418806e-10 
  966000          298 0.0016641513 -6.3236653e-10 
  967000          298 0.00034624992 -6.4278821e-10 
  968000          298 0.00031936191 -6.5305237e-10 
  969000          298 0.0016010244 -6.6242245e-10 
  970000          298 0.0020227941 -6.7097277e-10 
  971000          298 0.00083235746 -6.8006366e-10 
  972000          298 4.5061762e-05 -6.9017384e-10 
  973000          298 0.00019133394 -7.0014088e-10 
  974000          298 0.0017643343 -7.0901286e-10 
  975000          298 0.0037420439 -7.1556076e-10 
  976000          298 0.0012692183 -7.2379359e-10 
  977000          298 0.00043735673 -7.3338336e-10 
  978000          298 0.00032799579 -7.4307691e-10 
  979000          298 0.0022968455 -7.5120437e-10 
  980000          298 0.0043315563 -7.5655209e-10 
  981000          298  0.001150044 -7.6427007e-10 
  982000          298 0.00014524299 -7.7383145e-10 
  983000          298 0.00073384354 -7.8309415e-10 
  984000          298 0.0013994618 -7.9175565e-10 
  985000          298 4.5715207e-05 -8.009447e-10 
  986000          298 0.0005291809 -8.0994622e-10 
  987000          298 0.0010024182 -8.1879869e-10 
  988000          298 0.0018280171 -8.25613e-10 
  989000          298 0.00014726234 -8.3455413e-10 
  990000          298 0.00022955443 -8.4360763e-10 
  991000          298 0.0019808194 -8.5123276e-10 
  992000          298 0.0006694226 -8.5955522e-10 
  993000          298 0.00076182609 -8.6822977e-10 
  994000          298 2.4295347e-05 -8.7697913e-10 
  995000          298 0.00021122684 -8.8575635e-10 
  996000          298 0.00025917426 -8.9443534e-10 
  997000          298 0.00054491836 -9.029189e-10 
  998000          298 0.00066150745 -9.1098272e-10 
  999000          298  0.003402989 -9.1719149e-10 
 1000000          298 0.00031480006 -9.2519937e-10 
Loop time of 871.327 on 1 procs for 1000000 steps with 2233 atoms

Performance: 99.159 ns/day, 0.242 hours/ns, 1147.675 timesteps/s
100.0% CPU use with 1 MPI tasks x no OpenMP threads

MPI task timing breakdown:
Section |  min time  |  avg time  |  max time  |%varavg| %total
---------------------------------------------------------------
Pair    | 19.449     | 19.449     | 19.449     |   0.0 |  2.23
Bond    | 673.52     | 673.52     | 673.52     |   0.0 | 77.30
Neigh   | 89.969     | 89.969     | 89.969     |   0.0 | 10.33
Comm    | 58.72      | 58.72      | 58.72      |   0.0 |  6.74
Output  | 2.6042     | 2.6042     | 2.6042     |   0.0 |  0.30
Modify  | 9.1627     | 9.1627     | 9.1627     |   0.0 |  1.05
Other   |            | 17.9       |            |       |  2.05

Nlocal:    2233 ave 2233 max 2233 min
Histogram: 1 0 0 0 0 0 0 0 0 0
Nghost:    15409 ave 15409 max 15409 min
Histogram: 1 0 0 0 0 0 0 0 0 0
Neighs:    1213 ave 1213 max 1213 min
Histogram: 1 0 0 0 0 0 0 0 0 0

Total # of neighbors = 1213
Ave neighs/atom = 0.543215
Ave special neighs/atom = 6.38424
Neighbor list builds = 1597
Dangerous builds = 0
unfix           3
unfix           4
undump          Pn_Ni-PyC-NH2_with_Kr_xyzmov


Total wall time: 0:17:17
