
# --------------------------------- Initialization -------------------------------------- #
units           real
atom_style      full
boundary        p p p

pair_style      lj/cut 14.000
bond_style      harmonic
angle_style     cosine/periodic
dihedral_style  harmonic
improper_style  fourier

special_bonds   lj/coul 0.0 0.0 1.0
pair_modify     tail no mix arithmetic
#dielectric      1.0
box tilt        large
read_data       data.NiPyC2_experiment_with_Kr
  triclinic box = (0 0 0) to (31.264 37.5702 30.8228) with tilt (0 -0.682783 0)
  1 by 1 by 1 MPI processor grid
  reading atoms ...
  2431 atoms
  scanning bonds ...
  6 = max bonds/atom
  scanning angles ...
  15 = max angles/atom
  scanning dihedrals ...
  8 = max dihedrals/atom
  scanning impropers ...
  3 = max impropers/atom
  reading bonds ...
  2880 bonds
  reading angles ...
  5490 angles
  reading dihedrals ...
  5760 dihedrals
  reading impropers ...
  3780 impropers
  6 = max # of 1-2 neighbors
  9 = max # of 1-3 neighbors
  12 = max # of special neighbors
  special bonds CPU = 0.000760195 secs
  read_data CPU = 0.0191493 secs

#### Atom Groupings ####
group           kr       id   2431   # 55
1 atoms in group kr
group           fram     id   1:2430 # 1:54 56:2431
2430 atoms in group fram
#### END Atom Groupings ####

###
# Speed up Calculations by exluding framework-framework interactions
#   since we are keeping the framework rigid and stationary
#
# neigh_modify keyword values ...
# keyword = exclude
# values  = group group1-ID group2-ID
#
# group1-ID, group2-ID = exclude if one atom is in 1st group, other in 2nd
###
neigh_modify exclude group fram fram

# ----------------------------- Variables ---------------------- #
dump            NiPyC2_experiment_with_Kr_xyzmov all xyz 1000 NiPyC2_experiment_with_Kr_mov.xyz
dump_modify     NiPyC2_experiment_with_Kr_xyzmov element Ni O N C H Kr
variable        dt         equal 1.00
variable        tdamp      equal 100*${dt}
variable        tdamp      equal 100*1
variable        eqtemp     equal 298.00

# ------------------------------ Equilibriation -------------------------------------------- #
# we do not need to perform equilibriation since we are using a rigid framework
# and the (single) adsorbate has already been inserted into the material via GCMC
# which already included an equilibriation phase.
fix             1 kr langevin ${eqtemp} ${eqtemp} ${tdamp} 1995256
fix             1 kr langevin 298 ${eqtemp} ${tdamp} 1995256
fix             1 kr langevin 298 298 ${tdamp} 1995256
fix             1 kr langevin 298 298 100 1995256
fix             2 kr nve
#fix             3 fram langevin 298.00 298.00 ${tdamp} 965287
#fix             4 fram nve
thermo          1000
run             200000
Neighbor list info ...
  update every 1 steps, delay 10 steps, check yes
  max neighbors/atom: 2000, page size: 100000
  master list distance cutoff = 16
  ghost atom cutoff = 16
  binsize = 8, bins = 4 5 4
  1 neighbor lists, perpetual/occasional/extra = 1 0 0
  (1) pair lj/cut, perpetual
      attributes: half, newton on
      pair build: half/bin/newton/tri
      stencil: half/bin/3d/newton/tri
      bin: standard
WARNING: Inconsistent image flags (src/domain.cpp:785)
Per MPI rank memory allocation (min/avg/max) = 31.08 | 31.08 | 31.08 Mbytes
Step Temp E_pair E_mol TotEng Press 
       0            0   -4.8843438    41619.543    41614.659   -78615.936 
    1000  0.025883465   -5.1539547    41619.543    41614.577   -78619.461 
    2000   0.34783201   -4.4430324    41619.543     41617.62   -78606.331 
    3000   0.48173559   -4.9073917    41619.543    41618.125   -78611.954 
    4000  0.017986391   -5.1285042    41619.543    41614.545   -78621.205 
    5000   0.03324486   -5.1718651    41619.543    41614.612   -78619.908 
    6000  0.027030647    -5.161252    41619.543    41614.578   -78621.205 
    7000  0.073401092   -5.0547522    41619.543     41615.02   -78617.518 
    8000  0.073975812   -5.2904466    41619.543    41614.789   -78617.013 
    9000 0.0077034713   -4.5882343    41619.543    41615.011   -78611.382 
   10000  0.012536305   -3.1419633    41619.543    41616.492   -78593.429 
   11000   0.15110104   -4.4139447    41619.543    41616.224   -78605.821 
   12000   0.16256931   -4.7030524    41619.543    41616.018   -78610.651 
   13000   0.32009946   -4.4883087    41619.543    41617.374   -78605.076 
   14000   0.10168342   -4.1330579    41619.543    41616.147   -78602.917 
   15000  0.095676623   -4.5648819    41619.543    41615.672   -78607.447 
   16000  0.056019525    -4.100582    41619.543    41615.849   -78604.183 
   17000   0.16774266   -5.0754823    41619.543    41615.683     -78616.7 
   18000  0.077450965   -4.3503619    41619.543    41615.754   -78602.174 
   19000 0.0099899724   -5.1459759    41619.543     41614.47   -78616.618 
   20000  0.052997461   -5.0430789    41619.543    41614.884   -78615.488 
   21000  0.039236754   -5.1335214    41619.543    41614.694   -78618.975 
   22000  0.043865602   -4.9338161    41619.543    41614.927   -78618.389 
   23000    0.3390327   -4.9513803    41619.543    41617.048   -78614.036 
   24000   0.37026564   -4.9940797    41619.543    41617.231   -78608.781 
   25000  0.033900128   -4.9286933    41619.543     41614.86   -78616.471 
   26000  0.097583889   -4.8777969    41619.543    41615.372   -78613.436 
   27000   0.10258184    -4.078194    41619.543    41616.208   -78602.194 
   28000   0.10541683   -5.3918531    41619.543    41614.915   -78619.479 
   29000   0.03470306   -5.2358936    41619.543    41614.559   -78617.047 
   30000  0.020388502   -5.1987502    41619.543    41614.492   -78618.241 
   31000   0.10631623   -4.5593777    41619.543    41615.754   -78611.734 
   32000  0.014434652   -5.1331884    41619.543    41614.515   -78617.963 
   33000 0.0052674454   -5.1653339    41619.543    41614.416   -78617.882 
   34000  0.038528654   -5.1525567    41619.543     41614.67   -78620.018 
   35000   0.11939303   -4.6514676    41619.543    41615.757   -78608.867 
   36000   0.21550965   -3.5057222    41619.543    41617.599   -78596.501 
   37000  0.085221584   -3.7303212    41619.543     41616.43   -78597.149 
   38000  0.042047895   -3.7806545    41619.543    41616.067    -78598.66 
   39000   0.10439846   -3.6659371    41619.543    41616.634   -78599.029 
   40000 0.0061208452   -5.1506919    41619.543    41614.437   -78616.033 
   41000  0.015128654   -5.1917192    41619.543    41614.461   -78619.737 
   42000  0.089940297    -5.305334    41619.543     41614.89   -78619.572 
   43000  0.098068622   -4.5401314    41619.543    41615.714    -78606.73 
   44000   0.19465429   -5.2203019    41619.543    41615.733   -78614.898 
   45000   0.14175352   -5.0372337    41619.543    41615.533   -78613.244 
   46000   0.28808786   -3.7955712    41619.543    41617.835   -78598.316 
   47000 0.0068929007    -5.169994    41619.543    41614.423   -78619.594 
   48000  0.044418115   -4.8237082    41619.543    41615.041   -78612.965 
   49000 0.0034469848   -5.1352089    41619.543    41614.433   -78621.052 
   50000   0.21191821   -4.9004227    41619.543    41616.178    -78612.88 
   51000   0.14750901   -5.0728487    41619.543    41615.539   -78615.704 
   52000  0.073578269   -4.0972265    41619.543    41615.979   -78604.719 
   53000   0.17555412   -5.0778894    41619.543    41615.737   -78615.857 
   54000   0.29112532   -4.1885941    41619.543    41617.464    -78601.97 
   55000   0.21960074   -4.7014432    41619.543    41616.433   -78610.177 
   56000  0.062379962   -5.1420945    41619.543    41614.853   -78618.286 
   57000   0.25233091   -5.1574254    41619.543    41616.214   -78616.812 
   58000    0.2969012   -4.7840124    41619.543     41616.91   -78609.917 
   59000   0.11822251   -4.7380242    41619.543    41615.662   -78613.209 
   60000  0.048916692   -5.1395929    41619.543    41614.758   -78618.697 
   61000     0.044054   -5.1855098    41619.543    41614.677    -78617.82 
   62000   0.03418854   -4.8972297    41619.543    41614.894   -78612.347 
   63000  0.010041924   -4.9528777    41619.543    41614.663   -78612.078 
   64000   0.11428025   -5.4056987    41619.543    41614.966   -78618.266 
   65000   0.12098001   -5.3152744    41619.543    41615.104   -78615.766 
   66000  0.084893628   -4.7211632    41619.543    41615.437    -78607.78 
   67000   0.10155124   -5.1551129    41619.543    41615.124   -78616.535 
   68000  0.097194451   -4.8513474    41619.543    41615.396   -78612.133 
   69000  0.059561006   -3.2818399    41619.543    41616.693   -78594.245 
   70000   0.12634575    -4.955437    41619.543    41615.503   -78615.044 
   71000   0.16200329   -5.4232695    41619.543    41615.294    -78615.63 
   72000  0.069795177   -5.0262374    41619.543    41615.023   -78608.791 
   73000    0.1617511   -4.4020794    41619.543    41616.313   -78600.589 
   74000  0.063974725   -5.1893461    41619.543    41614.817   -78618.919 
   75000  0.068764769    -4.349938    41619.543    41615.692   -78600.727 
   76000    0.2413348   -4.1887844    41619.543    41617.103    -78599.66 
   77000  0.099627076   -5.0665144    41619.543    41615.199   -78614.728 
   78000   0.17870292   -4.8494067    41619.543    41615.988   -78611.184 
   79000    0.2156282   -4.3947594    41619.543    41616.711    -78603.99 
   80000   0.16811284   -3.8379679    41619.543    41616.923   -78601.659 
   81000   0.13437868   -4.6028549    41619.543    41615.914   -78610.081 
   82000  0.057036138   -4.2952108    41619.543    41615.661   -78605.406 
   83000   0.11043461   -5.0498678    41619.543    41615.293   -78615.666 
   84000  0.066389164   -5.3216819    41619.543    41614.703   -78616.943 
   85000  0.072284163   -5.2963896    41619.543    41614.771   -78620.418 
   86000   0.63149197   -5.2956345    41619.543    41618.822   -78612.282 
   87000   0.42268624   -5.1393224    41619.543    41617.466     -78617.7 
   88000  0.088708005   -4.9405056    41619.543    41615.245   -78617.132 
   89000  0.093079722   -5.1849905    41619.543    41615.033   -78618.039 
   90000   0.13120991   -5.0029838    41619.543    41615.491   -78611.771 
   91000   0.30010777   -4.1718665    41619.543    41617.545   -78605.871 
   92000  0.067738775   -5.1254685    41619.543    41614.909   -78620.447 
   93000     0.103305   -5.0811103    41619.543    41615.211    -78613.04 
   94000   0.12656798    -4.593753    41619.543    41615.866   -78608.012 
   95000  0.038605575   -4.5076902    41619.543    41615.315   -78610.647 
   96000  0.070947067   -4.4132532    41619.543    41615.644   -78607.725 
   97000  0.070428709   -5.0071181    41619.543    41615.046   -78614.371 
   98000  0.046068986   -5.1254154    41619.543    41614.752   -78617.761 
   99000  0.010525601   -4.9770821    41619.543    41614.643   -78617.303 
  100000  0.068486878   -4.9782038    41619.543    41615.061   -78616.878 
  101000   0.15680672   -5.0583788    41619.543    41615.621   -78617.381 
  102000   0.16868569   -5.2212498    41619.543    41615.544   -78619.816 
  103000   0.47369862   -4.5356982    41619.543    41618.439   -78607.657 
  104000   0.35678483   -5.3481051    41619.543     41616.78   -78615.771 
  105000  0.026888242   -5.2475846    41619.543    41614.491   -78613.331 
  106000  0.073155905   -5.1735258    41619.543      41614.9   -78619.307 
  107000   0.19506141   -5.0076471    41619.543    41615.949   -78610.923 
  108000   0.16451889   -5.3957955    41619.543    41615.339   -78619.064 
  109000  0.061385128   -5.0176324    41619.543     41614.97   -78618.682 
  110000   0.21477267   -3.9899248    41619.543    41617.109   -78599.367 
  111000  0.040550992   -3.5001457    41619.543    41616.337   -78595.437 
  112000   0.25605112   -5.1472411    41619.543    41616.251    -78615.86 
  113000    0.1085815   -5.1870555    41619.543    41615.143   -78617.589 
  114000   0.11528259   -5.0808659    41619.543    41615.298   -78617.607 
  115000  0.055988812   -4.3008995    41619.543    41615.648   -78606.265 
  116000    0.1920807   -5.0792354    41619.543    41615.856   -78614.632 
  117000  0.065700938   -4.5319005    41619.543    41615.487   -78609.045 
  118000  0.019627112   -5.1193336    41619.543    41614.566   -78619.926 
  119000   0.15231995   -4.8618194    41619.543    41615.785   -78614.307 
  120000   0.17702367   -5.1314505    41619.543    41615.694     -78617.5 
  121000   0.30744431   -5.2779134    41619.543    41616.492   -78615.752 
  122000   0.13388271   -3.9901778    41619.543    41616.523   -78600.712 
  123000   0.23722967   -5.2306847    41619.543    41616.031   -78613.757 
  124000 0.0090855502   -5.1917323    41619.543    41614.418   -78619.439 
  125000  0.068835139   -5.0604561    41619.543    41614.982   -78615.886 
  126000   0.37234586   -5.0440029    41619.543    41617.196   -78612.589 
  127000   0.21610728   -5.2994768    41619.543    41615.809   -78618.035 
  128000    0.1081267   -5.0622913    41619.543    41615.264   -78613.849 
  129000   0.10400094   -4.6329206    41619.543    41615.664   -78612.647 
  130000  0.007037106   -4.2519409    41619.543    41615.342   -78607.684 
  131000  0.062020229   -4.7348012    41619.543    41615.258   -78611.662 
  132000   0.20014659   -4.7588862    41619.543    41616.234     -78611.4 
  133000  0.012966202   -4.5471184    41619.543     41615.09   -78612.457 
  134000  0.082237711   -3.6551506    41619.543    41616.484   -78601.002 
  135000   0.19854695   -5.1746443    41619.543    41615.807   -78615.184 
  136000  0.062046419   -5.1284052    41619.543    41614.864    -78621.09 
  137000  0.018991714   -5.2001556    41619.543    41614.481   -78617.568 
  138000  0.056872816   -4.4494488    41619.543    41615.506   -78608.631 
  139000  0.020800043   -4.7255824    41619.543    41614.969   -78610.827 
  140000   0.22090806   -5.1650077    41619.543    41615.979   -78615.754 
  141000  0.051949052   -5.1270118    41619.543    41614.793   -78617.471 
  142000  0.044728681   -5.1284167    41619.543    41614.739   -78615.696 
  143000   0.25203056   -4.8174332    41619.543    41616.552   -78613.674 
  144000  0.069758038   -5.1696361    41619.543    41614.879   -78620.685 
  145000  0.062583017   -5.2395091    41619.543    41614.757   -78618.754 
  146000  0.053838143   -5.1941684    41619.543    41614.739    -78620.77 
  147000   0.14493514   -3.5988584    41619.543    41616.994   -78599.059 
  148000   0.25869452   -5.1489728    41619.543    41616.268   -78617.996 
  149000   0.15519565   -4.1031306    41619.543    41616.564   -78602.088 
  150000    0.1085056   -4.3191719    41619.543     41616.01   -78604.172 
  151000  0.084643726   -4.7265586    41619.543     41615.43   -78609.816 
  152000   0.25075286   -3.8741398    41619.543    41617.486   -78599.171 
  153000   0.21145117   -5.1409764    41619.543    41615.934   -78615.983 
  154000   0.05965762   -4.3609095    41619.543    41615.615   -78608.211 
  155000  0.081293672   -5.1592946    41619.543    41614.973   -78619.125 
  156000   0.10327959   -5.0043142    41619.543    41615.287    -78616.24 
  157000  0.085493767   -5.1131804    41619.543     41615.05   -78618.517 
  158000   0.10294955   -4.8386034    41619.543    41615.451   -78612.608 
  159000  0.054707214    -2.374618    41619.543    41617.565   -78586.636 
  160000   0.26670372   -3.9763252    41619.543    41617.499   -78598.915 
  161000   0.11936457   -4.0920254    41619.543    41616.316   -78601.343 
  162000   0.22983036    -4.249453    41619.543    41616.959   -78602.195 
  163000   0.39215819   -5.1496623    41619.543    41617.234   -78618.253 
  164000   0.13626067   -5.2038523    41619.543    41615.327   -78619.752 
  165000   0.19927186   -5.1076739    41619.543    41615.879   -78619.692 
  166000  0.042254698   -4.2259161    41619.543    41615.624   -78607.317 
  167000    0.1047023   -5.2120057    41619.543     41615.09   -78617.518 
  168000  0.064425699   -4.9800906    41619.543     41615.03   -78618.281 
  169000  0.043299638   -4.7082678    41619.543    41615.149   -78612.811 
  170000  0.072526077   -5.1347133    41619.543    41614.934   -78617.501 
  171000   0.11144655   -3.9689035    41619.543    41616.382    -78598.34 
  172000   0.16507207   -5.1914223    41619.543    41615.548   -78618.733 
  173000  0.048132492   -5.1477475    41619.543    41614.744   -78614.971 
  174000   0.15696478   -5.1871963    41619.543    41615.493   -78615.495 
  175000   0.16027398   -5.0844384    41619.543     41615.62    -78616.09 
  176000   0.24128399     -5.17729    41619.543    41616.114   -78618.654 
  177000  0.032555154   -4.8402969    41619.543    41614.939   -78616.686 
  178000   0.23956787   -4.6557325    41619.543    41616.623   -78612.173 
  179000  0.035066951   -5.1466102    41619.543    41614.651   -78620.621 
  180000  0.032327336   -4.7294156    41619.543    41615.048   -78610.414 
  181000  0.080577324    -5.163175    41619.543    41614.964   -78618.831 
  182000   0.36170758   -5.2381983    41619.543    41616.925   -78618.221 
  183000  0.036584478   -5.1451954    41619.543    41614.663   -78619.385 
  184000  0.037723913    -4.999079    41619.543    41614.818    -78613.35 
  185000  0.066696386   -5.0281985    41619.543    41614.998   -78615.501 
  186000  0.054374996   -4.2594266    41619.543    41615.678   -78606.394 
  187000  0.072960221   -4.3247848    41619.543    41615.747   -78600.964 
  188000   0.32136918    -4.849117    41619.543    41617.022   -78612.455 
  189000   0.31136255   -4.5958711    41619.543    41617.203   -78606.356 
  190000   0.14281588   -5.0507494    41619.543    41615.527   -78613.623 
  191000   0.29161053   -4.7071767    41619.543    41616.949   -78611.991 
  192000  0.040812892   -4.8551561    41619.543    41614.984   -78606.402 
  193000  0.049227676   -3.8392131    41619.543    41616.061    -78594.71 
  194000   0.12248751   -4.2639698    41619.543    41616.167   -78606.502 
  195000   0.25254798   -4.8832306    41619.543     41616.49   -78610.533 
  196000   0.34303338   -4.8012132    41619.543    41617.227   -78611.403 
  197000   0.19860011   -5.0942889    41619.543    41615.888   -78613.843 
  198000    0.2564438    -4.647419    41619.543    41616.754   -78608.644 
  199000  0.021016485   -5.1714754    41619.543    41614.524     -78616.9 
  200000   0.10924788    -4.787339    41619.543    41615.547   -78613.308 
Loop time of 178.187 on 1 procs for 200000 steps with 2431 atoms

Performance: 96.977 ns/day, 0.247 hours/ns, 1122.417 timesteps/s
100.0% CPU use with 1 MPI tasks x no OpenMP threads

MPI task timing breakdown:
Section |  min time  |  avg time  |  max time  |%varavg| %total
---------------------------------------------------------------
Pair    | 3.7876     | 3.7876     | 3.7876     |   0.0 |  2.13
Bond    | 146.56     | 146.56     | 146.56     |   0.0 | 82.25
Neigh   | 10.641     | 10.641     | 10.641     |   0.0 |  5.97
Comm    | 11.835     | 11.835     | 11.835     |   0.0 |  6.64
Output  | 0.54544    | 0.54544    | 0.54544    |   0.0 |  0.31
Modify  | 1.1091     | 1.1091     | 1.1091     |   0.0 |  0.62
Other   |            | 3.706      |            |       |  2.08

Nlocal:    2431 ave 2431 max 2431 min
Histogram: 1 0 0 0 0 0 0 0 0 0
Nghost:    16166 ave 16166 max 16166 min
Histogram: 1 0 0 0 0 0 0 0 0 0
Neighs:    1175 ave 1175 max 1175 min
Histogram: 1 0 0 0 0 0 0 0 0 0

Total # of neighbors = 1175
Ave neighs/atom = 0.48334
Ave special neighs/atom = 6.58988
Neighbor list builds = 156
Dangerous builds = 0
unfix           1
unfix           2
#unfix           3
#unfix           4

# --------------------- Production (data gathering) --------------------------------------- #
# A simple way to hold atoms stationary is to not include those atoms in your time integration.
reset_timestep  0

fix             3 kr nvt temp ${eqtemp} ${eqtemp} ${tdamp}
fix             3 kr nvt temp 298 ${eqtemp} ${tdamp}
fix             3 kr nvt temp 298 298 ${tdamp}
fix             3 kr nvt temp 298 298 100

###
#  mean-squared disp of grp 1
#
# A vector of four quantities is calculated by this compute:
# The first 3 elements of the vector are the squared dx,dy,dz displacements, summed and averaged over atoms in the group.
# The fourth element is the total squared displacement, i.e. (dx*dx + dy*dy + dz*dz),
#  summed and averaged over atoms in the group.
#
# The slope of the MSD versus time is proportional to the diffusion coefficient.
# MSD values can be accumulated in a vector via the fix vector command,
#   and a line fit to the vector to compute its slope via the variable slope function,
#   and thus extract D.
#
# fix ID group-ID vector Nevery value1 value2 ...
#
# c_ID[I] = Ith component of global vector calculated by a compute with ID
# f_ID = global scalar calculated by a fix with ID
# v_name = value calculated by an equal-style variable with name
#
# variable name style args...
#
# The slope() function uses linear regression to fit a line to the set of points,
#   equally spaced by 1 in their x coordinate: (1,V1), (2,V2), …, (N,VN),
#   where the Vi are the values in the global vector of length N.
#   The returned value is the slope of the line.
#   If the line has a single point or is vertical, it returns 1.0e20.
###
compute         msd all msd com yes
fix             4 kr vector 500 c_msd[4] # use input values every 500 timesteps
variable        fitslope equal slope(f_4)/6/(500*dt) # why dividing slope?

thermo_style    custom step v_eqtemp c_msd[4] v_fitslope # prints this info to log file

thermo          1000
run             1000000
WARNING: Inconsistent image flags (src/domain.cpp:785)
Per MPI rank memory allocation (min/avg/max) = 31.83 | 31.83 | 31.83 Mbytes
Step v_eqtemp c_msd[4] v_fitslope 
       0          298 8.398075e-31 3.3333333e+16 
    1000          298 0.0011594545 1.9324241e-07 
    2000          298 0.00034630452 8.3856894e-09 
    3000          298 0.00070492838 1.2478675e-08 
    4000          298 0.00070026167 4.8844399e-09 
    5000          298 0.00053643879 -2.1487126e-09 
    6000          298 0.00092933473 9.2348186e-09 
    7000          298 0.00046501638 5.7324684e-09 
    8000          298 0.0018429577 1.1163525e-08 
    9000          298 0.00048114186 5.5464313e-09 
   10000          298 0.00013590226 3.1074688e-09 
   11000          298 0.00046983171 2.3402157e-09 
   12000          298 8.5003085e-05 8.3850582e-10 
   13000          298 0.0008725302 3.3685163e-09 
   14000          298 0.00089324735 2.4713075e-09 
   15000          298 0.0012010356 2.918285e-09 
   16000          298 0.00070825033 3.1116884e-09 
   17000          298 0.00098654442 3.3885023e-09 
   18000          298 0.00047985312 2.2345352e-09 
   19000          298 0.00080550953 2.2589278e-09 
   20000          298 0.0016030574 2.8020166e-09 
   21000          298 0.00045166991 1.845908e-09 
   22000          298 0.0011724465 1.6529853e-09 
   23000          298 0.00040735924 1.0717866e-09 
   24000          298 0.0010740332 1.1038916e-09 
   25000          298  0.001497694 1.7993528e-09 
   26000          298 0.00092548977 2.3133688e-09 
   27000          298 0.00082546705 2.0883234e-09 
   28000          298  0.001019823 2.0671988e-09 
   29000          298 0.00071618344 1.5250417e-09 
   30000          298 7.978041e-05 1.4031285e-09 
   31000          298  0.001725491 1.5694221e-09 
   32000          298 5.5640353e-05 1.0560358e-09 
   33000          298 0.00039047264 9.0985496e-10 
   34000          298 0.00082010005 1.0919157e-09 
   35000          298 0.00053270972 9.3429695e-10 
   36000          298 0.0011107925 1.285214e-09 
   37000          298 0.00099816195 1.0625915e-09 
   38000          298 0.00077661424 1.5212205e-09 
   39000          298 0.00095793357 1.3560706e-09 
   40000          298 0.00077482193 1.1137638e-09 
   41000          298 0.00080670036 9.4971347e-10 
   42000          298 0.0014055995 9.4550023e-10 
   43000          298 0.00027725702 9.5969406e-10 
   44000          298 0.00057988968 9.0374533e-10 
   45000          298 0.00023896327 8.7672763e-10 
   46000          298 0.0004458878 7.9283629e-10 
   47000          298 0.00085959612 9.312851e-10 
   48000          298 0.0017845847 1.294457e-09 
   49000          298 0.0012345408 1.3491482e-09 
   50000          298 0.00077923271 1.2575389e-09 
   51000          298 0.00080438318 1.0630612e-09 
   52000          298 0.0016494624 1.1349247e-09 
   53000          298 0.00085877853 1.1614906e-09 
   54000          298 0.00079795841 1.0582673e-09 
   55000          298 0.00097137068 1.0247154e-09 
   56000          298 0.0010761494 1.1384439e-09 
   57000          298 0.00037972247 9.6413953e-10 
   58000          298 0.00062069857 8.3476561e-10 
   59000          298 0.00057620124 8.3486749e-10 
   60000          298 0.0031286772 1.1687735e-09 
   61000          298 0.0051561925 2.1568829e-09 
   62000          298  0.010041813 3.9082046e-09 
   63000          298  0.020452877 8.1662478e-09 
   64000          298  0.011661247 1.1105756e-08 
   65000          298 0.0093753151 1.2267921e-08 
   66000          298  0.021293241 1.5479143e-08 
   67000          298  0.018640357 1.8778451e-08 
   68000          298  0.016969663 2.1206812e-08 
   69000          298  0.017744455 2.352377e-08 
   70000          298  0.018975631 2.5799206e-08 
   71000          298  0.014392385 2.6878541e-08 
   72000          298  0.024303488 2.9371124e-08 
   73000          298   0.01589417 3.0914429e-08 
   74000          298  0.017890615 3.212279e-08 
   75000          298  0.018844788 3.3727892e-08 
   76000          298  0.015121538 3.452163e-08 
   77000          298  0.021345957 3.5505832e-08 
   78000          298  0.016418756 3.6583663e-08 
   79000          298  0.017103617 3.700218e-08 
   80000          298  0.025300533 3.8720553e-08 
   81000          298  0.012975396 3.9013953e-08 
   82000          298  0.019071113 3.9253011e-08 
   83000          298  0.016924582 3.9854185e-08 
   84000          298  0.014167252 3.954184e-08 
   85000          298  0.026820037 4.0741983e-08 
   86000          298   0.01708908 4.1384534e-08 
   87000          298  0.018481699 4.1280615e-08 
   88000          298  0.026109384 4.2310599e-08 
   89000          298  0.015309725 4.2326438e-08 
   90000          298  0.019283518 4.2274332e-08 
   91000          298  0.016870843 4.2266847e-08 
   92000          298  0.010346179 4.144528e-08 
   93000          298  0.025806888 4.1809549e-08 
   94000          298   0.03140343 4.3302513e-08 
   95000          298  0.015434861 4.3318244e-08 
   96000          298  0.016168392 4.2787791e-08 
   97000          298  0.017411834 4.2515317e-08 
   98000          298  0.011548809 4.178241e-08 
   99000          298  0.020379783 4.1626134e-08 
  100000          298  0.012957434 4.1309866e-08 
  101000          298  0.010869422 4.033541e-08 
  102000          298   0.02636268 4.055334e-08 
  103000          298  0.020103249 4.0912899e-08 
  104000          298  0.015088025 4.035669e-08 
  105000          298  0.020247569 4.0354382e-08 
  106000          298  0.012040311 3.979049e-08 
  107000          298  0.018216375 3.9330232e-08 
  108000          298  0.024041873 3.9547798e-08 
  109000          298  0.013624018 3.9134048e-08 
  110000          298  0.024461291 3.9067962e-08 
  111000          298  0.024136268 3.9450113e-08 
  112000          298  0.011613819 3.8851834e-08 
  113000          298  0.016817759 3.8339694e-08 
  114000          298  0.016851398 3.7959174e-08 
  115000          298   0.01453806 3.735617e-08 
  116000          298  0.022366116 3.7356017e-08 
  117000          298   0.02079158 3.719696e-08 
  118000          298  0.019586106 3.7038313e-08 
  119000          298  0.013203697 3.6438136e-08 
  120000          298  0.022489179 3.6324587e-08 
  121000          298  0.012832244 3.5888297e-08 
  122000          298  0.022823035 3.565838e-08 
  123000          298  0.024049892 3.5861214e-08 
  124000          298 0.0094615608 3.519915e-08 
  125000          298  0.013098104 3.4449248e-08 
  126000          298  0.021017731 3.4306064e-08 
  127000          298  0.013111268 3.3805135e-08 
  128000          298  0.028406734 3.3892761e-08 
  129000          298  0.020383447 3.3964519e-08 
  130000          298  0.011508643 3.3319954e-08 
  131000          298  0.019946282 3.302474e-08 
  132000          298  0.015453861 3.2722124e-08 
  133000          298  0.020104901 3.2374925e-08 
  134000          298   0.02098054 3.228968e-08 
  135000          298  0.019907514 3.2090348e-08 
  136000          298  0.021275663 3.203241e-08 
  137000          298  0.016035019 3.1697693e-08 
  138000          298  0.016944578 3.1277896e-08 
  139000          298  0.017546107 3.0954326e-08 
  140000          298   0.01927873 3.0718646e-08 
  141000          298  0.016830271 3.0470241e-08 
  142000          298  0.020755598 3.0257264e-08 
  143000          298  0.019732651 3.0063347e-08 
  144000          298  0.019327957 2.9797622e-08 
  145000          298  0.016572919 2.9625993e-08 
  146000          298  0.018449131 2.9290057e-08 
  147000          298  0.019140853 2.9102302e-08 
  148000          298  0.012456227 2.8618628e-08 
  149000          298  0.029155652 2.8649102e-08 
  150000          298  0.033678187 2.9093108e-08 
  151000          298  0.017756392 2.9000655e-08 
  152000          298  0.015561914 2.8550775e-08 
  153000          298  0.019379867 2.8367618e-08 
  154000          298  0.013752229 2.7987216e-08 
  155000          298  0.024245556 2.7876111e-08 
  156000          298  0.018271618 2.7624569e-08 
  157000          298  0.016068597 2.7374555e-08 
  158000          298  0.020410309 2.7141815e-08 
  159000          298  0.019726984 2.6930659e-08 
  160000          298  0.018698054 2.6810192e-08 
  161000          298  0.017941788 2.6487283e-08 
  162000          298  0.016831849 2.6291954e-08 
  163000          298  0.022295564 2.613574e-08 
  164000          298  0.014056093 2.5860028e-08 
  165000          298  0.019019455 2.5546099e-08 
  166000          298  0.019453393 2.5450826e-08 
  167000          298  0.014679989 2.5079606e-08 
  168000          298  0.021163064 2.4933015e-08 
  169000          298  0.013230284 2.4575835e-08 
  170000          298  0.023579665 2.4438482e-08 
  171000          298  0.016997071 2.4200011e-08 
  172000          298  0.021001555 2.4029094e-08 
  173000          298  0.017914137 2.3887274e-08 
  174000          298  0.018289838 2.3662343e-08 
  175000          298   0.02383997 2.3659717e-08 
  176000          298  0.014659158 2.338134e-08 
  177000          298  0.019918212 2.3167579e-08 
  178000          298  0.010482108 2.2778726e-08 
  179000          298  0.023666169 2.2618839e-08 
  180000          298   0.03386985 2.2873821e-08 
  181000          298  0.019410419 2.2846755e-08 
  182000          298  0.013683036 2.249566e-08 
  183000          298  0.019867971 2.2364612e-08 
  184000          298  0.014427772 2.2095661e-08 
  185000          298  0.021420416 2.1916881e-08 
  186000          298  0.021109237 2.1866372e-08 
  187000          298  0.010324337 2.1485112e-08 
  188000          298  0.019641604 2.1241258e-08 
  189000          298  0.018420712 2.1081303e-08 
  190000          298  0.013442321 2.0762919e-08 
  191000          298  0.026722969 2.0698936e-08 
  192000          298  0.026355195 2.0802645e-08 
  193000          298  0.015296164 2.0581485e-08 
  194000          298  0.023479181 2.0487558e-08 
  195000          298  0.019206497 2.0383555e-08 
  196000          298   0.01707403 2.0194379e-08 
  197000          298   0.01771676 2.0011456e-08 
  198000          298  0.017827765 1.9884028e-08 
  199000          298   0.01688776 1.9646621e-08 
  200000          298  0.029722766 1.9698012e-08 
  201000          298  0.016960916 1.9611588e-08 
  202000          298 0.0093844238 1.9239903e-08 
  203000          298  0.020977159 1.9052619e-08 
  204000          298  0.016673563 1.8905172e-08 
  205000          298 0.0079566957 1.8526563e-08 
  206000          298  0.017593447 1.8286256e-08 
  207000          298   0.01600687 1.8128698e-08 
  208000          298  0.015508177 1.7931995e-08 
  209000          298   0.02136962 1.7838237e-08 
  210000          298  0.015446311 1.7686511e-08 
  211000          298  0.017145512 1.7508917e-08 
  212000          298  0.020385788 1.7377395e-08 
  213000          298  0.012811728 1.7163039e-08 
  214000          298  0.022453001 1.7049504e-08 
  215000          298  0.018570401 1.6975724e-08 
  216000          298  0.016693373 1.6821524e-08 
  217000          298  0.017485723 1.6647576e-08 
  218000          298  0.020991546 1.658431e-08 
  219000          298  0.020341872 1.6496945e-08 
  220000          298  0.021479194 1.6424523e-08 
  221000          298  0.016468085 1.626848e-08 
  222000          298  0.023772909 1.6200935e-08 
  223000          298  0.017790786 1.6125209e-08 
  224000          298  0.019406691 1.5982209e-08 
  225000          298  0.014101945 1.5823841e-08 
  226000          298  0.020819292 1.5717519e-08 
  227000          298  0.016859604 1.557984e-08 
  228000          298   0.01443712 1.5382823e-08 
  229000          298  0.019682208 1.5311779e-08 
  230000          298   0.01525727 1.5145471e-08 
  231000          298  0.016049619 1.5018974e-08 
  232000          298  0.017242419 1.4882472e-08 
  233000          298  0.014714926 1.4705156e-08 
  234000          298  0.020017058 1.4599823e-08 
  235000          298  0.017075868 1.4494472e-08 
  236000          298  0.011704251 1.4278971e-08 
  237000          298  0.022404479 1.4200588e-08 
  238000          298  0.021386195 1.419214e-08 
  239000          298  0.011271717 1.3989401e-08 
  240000          298  0.017067251 1.3858852e-08 
  241000          298  0.014447669 1.3733503e-08 
  242000          298  0.014809957 1.3555778e-08 
  243000          298  0.025871298 1.356129e-08 
  244000          298  0.011973893 1.3430541e-08 
  245000          298  0.018171897 1.3293119e-08 
  246000          298  0.021269242 1.325362e-08 
  247000          298  0.015383918 1.3149508e-08 
  248000          298  0.018274326 1.3036325e-08 
  249000          298  0.021229247 1.2971684e-08 
  250000          298  0.017669687 1.2884847e-08 
  251000          298  0.015810322 1.2753636e-08 
  252000          298  0.021009748 1.272444e-08 
  253000          298  0.015523149 1.2595912e-08 
  254000          298  0.026730429 1.2591766e-08 
  255000          298  0.020197568 1.2592617e-08 
  256000          298  0.018700636 1.2499018e-08 
  257000          298  0.018549842 1.2442005e-08 
  258000          298   0.01601457 1.2306076e-08 
  259000          298  0.022625651 1.2287625e-08 
  260000          298  0.013391085 1.2178727e-08 
  261000          298  0.014713083 1.2023307e-08 
  262000          298  0.022199139 1.198281e-08 
  263000          298  0.018395392 1.1920055e-08 
  264000          298  0.021861516 1.1888793e-08 
  265000          298  0.013848676 1.1797759e-08 
  266000          298   0.01825603 1.1687409e-08 
  267000          298   0.01350568 1.157367e-08 
  268000          298   0.02158674 1.1499225e-08 
  269000          298  0.026409782 1.1553437e-08 
  270000          298  0.011042257 1.1431779e-08 
  271000          298  0.010544003 1.1239281e-08 
  272000          298  0.022686781 1.1198332e-08 
  273000          298  0.012866081 1.1109052e-08 
  274000          298  0.017463769 1.0993672e-08 
  275000          298  0.021852867 1.0986693e-08 
  276000          298  0.013653687 1.0875865e-08 
  277000          298  0.021771193 1.0831482e-08 
  278000          298   0.01439059 1.0750962e-08 
  279000          298  0.017054684 1.0636581e-08 
  280000          298  0.022197254 1.0621115e-08 
  281000          298  0.019190759 1.0568407e-08 
  282000          298   0.02232876 1.0548296e-08 
  283000          298  0.011983672 1.0429355e-08 
  284000          298  0.016380627 1.0331557e-08 
  285000          298  0.014662888 1.0229202e-08 
  286000          298  0.017287833 1.0140096e-08 
  287000          298   0.01502337 1.003226e-08 
  288000          298  0.022839176 1.0006612e-08 
  289000          298  0.014916112 9.9306564e-09 
  290000          298  0.018048614 9.8461835e-09 
  291000          298  0.013071847 9.7392843e-09 
  292000          298  0.020247504 9.6830255e-09 
  293000          298    0.0169028 9.6363041e-09 
  294000          298  0.013487966 9.522653e-09 
  295000          298  0.014355932 9.4371615e-09 
  296000          298  0.016065963 9.358771e-09 
  297000          298  0.013289583 9.2787276e-09 
  298000          298  0.017826786 9.1984108e-09 
  299000          298  0.023772366 9.1982506e-09 
  300000          298  0.013492209 9.1102612e-09 
  301000          298  0.024903753 9.1046296e-09 
  302000          298  0.021693838 9.1177374e-09 
  303000          298  0.014166422 9.0321792e-09 
  304000          298   0.02244156 9.0196873e-09 
  305000          298  0.016360889 8.9594845e-09 
  306000          298  0.023121699 8.9373236e-09 
  307000          298  0.019431098 8.9153066e-09 
  308000          298  0.017393855 8.8648275e-09 
  309000          298  0.024121738 8.8572733e-09 
  310000          298  0.013034059 8.7779419e-09 
  311000          298  0.020185321 8.7169658e-09 
  312000          298   0.01595395 8.6566195e-09 
  313000          298   0.01806733 8.5981927e-09 
  314000          298  0.015008429 8.5377727e-09 
  315000          298  0.020375994 8.4924918e-09 
  316000          298  0.016695811 8.4504568e-09 
  317000          298  0.017647644 8.4043776e-09 
  318000          298  0.021868989 8.3803917e-09 
  319000          298  0.013117362 8.3063143e-09 
  320000          298  0.020888975 8.2613867e-09 
  321000          298  0.017537712 8.2242683e-09 
  322000          298   0.01692516 8.1658147e-09 
  323000          298  0.015092024 8.0818863e-09 
  324000          298   0.01997678 8.0516838e-09 
  325000          298  0.010738982 7.9563403e-09 
  326000          298  0.018037121 7.8805389e-09 
  327000          298  0.019761098 7.8628839e-09 
  328000          298  0.012244129 7.7705792e-09 
  329000          298   0.02443666 7.7501058e-09 
  330000          298  0.017532839 7.7278727e-09 
  331000          298  0.020945601 7.6970617e-09 
  332000          298   0.01624223 7.665877e-09 
  333000          298  0.015308794 7.5873219e-09 
  334000          298  0.020241671 7.5724449e-09 
  335000          298  0.011995466 7.4910887e-09 
  336000          298  0.021467242 7.4489957e-09 
  337000          298  0.034082346 7.5353139e-09 
  338000          298  0.020965374 7.560585e-09 
  339000          298  0.014195043 7.4832007e-09 
  340000          298  0.023355596 7.4752589e-09 
  341000          298  0.015576363 7.4273285e-09 
  342000          298  0.020628206 7.3850063e-09 
  343000          298  0.013219306 7.3310851e-09 
  344000          298  0.016720523 7.2682232e-09 
  345000          298  0.020120357 7.2433628e-09 
  346000          298  0.011267343 7.1778121e-09 
  347000          298  0.011699939 7.0761082e-09 
  348000          298  0.023216309 7.065903e-09 
  349000          298  0.012157038 7.0145356e-09 
  350000          298  0.011748639 6.9185881e-09 
  351000          298  0.021021955 6.8994071e-09 
  352000          298  0.014399408 6.8548774e-09 
  353000          298  0.023268928 6.8355626e-09 
  354000          298  0.019166476 6.8347247e-09 
  355000          298  0.013291636 6.7608994e-09 
  356000          298  0.020147417 6.743497e-09 
  357000          298  0.018062665 6.7083974e-09 
  358000          298  0.018440944 6.6738492e-09 
  359000          298  0.020916973 6.667064e-09 
  360000          298  0.012980631 6.6086277e-09 
  361000          298  0.021989607 6.5860015e-09 
  362000          298  0.014377012 6.5551596e-09 
  363000          298  0.013230482 6.4813066e-09 
  364000          298  0.020219328 6.4652931e-09 
  365000          298  0.013293398 6.4154836e-09 
  366000          298  0.022515094 6.3918133e-09 
  367000          298  0.025351537 6.4234935e-09 
  368000          298  0.015029605 6.3778132e-09 
  369000          298    0.0153564 6.3346858e-09 
  370000          298  0.018652843 6.3093147e-09 
  371000          298  0.019827305 6.2768295e-09 
  372000          298  0.020054452 6.2805188e-09 
  373000          298  0.010996312 6.2055436e-09 
  374000          298   0.02690414 6.2039272e-09 
  375000          298  0.024347246 6.2374771e-09 
  376000          298  0.013279335 6.1865468e-09 
  377000          298  0.016335053 6.142783e-09 
  378000          298  0.015338322 6.0916405e-09 
  379000          298  0.021675847 6.0715648e-09 
  380000          298  0.017659853 6.0469688e-09 
  381000          298  0.017776833 6.0019672e-09 
  382000          298  0.021282849 6.0015281e-09 
  383000          298  0.015250453 5.9648505e-09 
  384000          298  0.018964018 5.9329253e-09 
  385000          298  0.017288249 5.8957631e-09 
  386000          298  0.024569202 5.9062325e-09 
  387000          298   0.01067709 5.8565125e-09 
  388000          298  0.010614924 5.7727934e-09 
  389000          298  0.023604625 5.7610748e-09 
  390000          298   0.01907468 5.7429004e-09 
  391000          298  0.012434044 5.6994574e-09 
  392000          298  0.015651258 5.6401908e-09 
  393000          298  0.026553607 5.660264e-09 
  394000          298  0.015863242 5.6427933e-09 
  395000          298  0.011102867 5.5693372e-09 
  396000          298   0.02422103 5.5642476e-09 
  397000          298  0.017107614 5.5522191e-09 
  398000          298  0.020413506 5.5238882e-09 
  399000          298  0.018029299 5.5102051e-09 
  400000          298  0.021034914 5.4930529e-09 
  401000          298  0.017365567 5.4719873e-09 
  402000          298  0.011098951 5.4086346e-09 
  403000          298  0.025266644 5.407851e-09 
  404000          298  0.015633567 5.3944068e-09 
  405000          298  0.009109797 5.3200544e-09 
  406000          298  0.021284938 5.2907742e-09 
  407000          298  0.017537767 5.2779307e-09 
  408000          298  0.015686082 5.2304302e-09 
  409000          298  0.024147124 5.2400212e-09 
  410000          298  0.017254382 5.2164284e-09 
  411000          298  0.023051462 5.2137878e-09 
  412000          298  0.014551756 5.1806507e-09 
  413000          298  0.023782959 5.1737473e-09 
  414000          298  0.016944583 5.1637531e-09 
  415000          298 0.0070552425 5.0854986e-09 
  416000          298  0.011922922 5.0156996e-09 
  417000          298  0.030418122 5.0364648e-09 
  418000          298  0.036525544 5.1176617e-09 
  419000          298  0.024811096 5.1577138e-09 
  420000          298  0.010175782 5.1059943e-09 
  421000          298  0.017276606 5.0651342e-09 
  422000          298  0.016990531 5.0372954e-09 
  423000          298 0.0085186432 4.9682972e-09 
  424000          298  0.018199937 4.9299614e-09 
  425000          298  0.017646759 4.9120894e-09 
  426000          298   0.01477099 4.8741596e-09 
  427000          298  0.023174598 4.8653103e-09 
  428000          298  0.018548018 4.8587408e-09 
  429000          298  0.016772925 4.823328e-09 
  430000          298  0.022364647 4.8228943e-09 
  431000          298  0.015921094 4.7996114e-09 
  432000          298  0.014597379 4.7629808e-09 
  433000          298  0.017406704 4.7433922e-09 
  434000          298  0.015560192 4.7208731e-09 
  435000          298   0.01224661 4.665564e-09 
  436000          298   0.02235664 4.6596384e-09 
  437000          298   0.01310905 4.6344928e-09 
  438000          298  0.012668834 4.5799267e-09 
  439000          298  0.023575474 4.5804182e-09 
  440000          298  0.012602795 4.5487391e-09 
  441000          298  0.023095661 4.5365783e-09 
  442000          298  0.018675017 4.536852e-09 
  443000          298    0.0129947 4.4927023e-09 
  444000          298  0.014141871 4.4600855e-09 
  445000          298  0.014824328  4.42653e-09 
  446000          298  0.012535975 4.3909699e-09 
  447000          298  0.018387673 4.3583813e-09 
  448000          298  0.026444449 4.382024e-09 
  449000          298  0.011150811 4.347796e-09 
  450000          298   0.01595765 4.3061265e-09 
  451000          298  0.019549352 4.304454e-09 
  452000          298  0.013547462 4.2700927e-09 
  453000          298  0.021122451 4.2545017e-09 
  454000          298  0.018616539 4.2510888e-09 
  455000          298  0.015645056 4.2241818e-09 
  456000          298  0.021483992 4.2116026e-09 
  457000          298  0.016276672 4.1961826e-09 
  458000          298  0.019306527 4.1777451e-09 
  459000          298  0.012243993 4.1434782e-09 
  460000          298  0.022536081 4.1336036e-09 
  461000          298  0.019266694 4.1297635e-09 
  462000          298  0.021549945 4.1222664e-09 
  463000          298  0.020493626 4.1257189e-09 
  464000          298  0.014099536 4.0915177e-09 
  465000          298   0.01803532 4.0807015e-09 
  466000          298  0.018650526 4.0595949e-09 
  467000          298   0.02032614 4.0497773e-09 
  468000          298  0.015645475 4.0310276e-09 
  469000          298  0.017158296 4.0076792e-09 
  470000          298  0.017902888 3.9978075e-09 
  471000          298   0.01047153 3.9578594e-09 
  472000          298  0.020011287 3.9344444e-09 
  473000          298   0.02515986 3.9543271e-09 
  474000          298  0.013350917 3.9257459e-09 
  475000          298  0.020562668 3.9079543e-09 
  476000          298  0.024300307 3.9236216e-09 
  477000          298   0.01175709 3.8945431e-09 
  478000          298   0.01692056 3.8657678e-09 
  479000          298  0.018714653 3.852612e-09 
  480000          298  0.013123509   3.8176e-09 
  481000          298   0.02931139 3.8334083e-09 
  482000          298  0.025231131 3.863657e-09 
  483000          298  0.013801322 3.8384204e-09 
  484000          298  0.019686663 3.8235934e-09 
  485000          298  0.024343663 3.8371531e-09 
  486000          298  0.012214682 3.8097554e-09 
  487000          298  0.022608608 3.7994775e-09 
  488000          298  0.016192226 3.7912977e-09 
  489000          298  0.010739295 3.7460034e-09 
  490000          298  0.021734528 3.7350779e-09 
  491000          298  0.019021868 3.7305798e-09 
  492000          298  0.021941066 3.7302039e-09 
  493000          298  0.013466179 3.7107614e-09 
  494000          298  0.017038322 3.6846912e-09 
  495000          298  0.018438167 3.6738615e-09 
  496000          298  0.014291701 3.6558276e-09 
  497000          298   0.01504275 3.6235032e-09 
  498000          298  0.018734888 3.6165379e-09 
  499000          298  0.014043693 3.5925892e-09 
  500000          298  0.021771057 3.5823465e-09 
  501000          298  0.022219118 3.5927305e-09 
  502000          298 0.0082631202 3.5504043e-09 
  503000          298 0.0094726897 3.4993716e-09 
  504000          298  0.022688213 3.4917948e-09 
  505000          298  0.018695876 3.4853754e-09 
  506000          298  0.014813101 3.4584999e-09 
  507000          298  0.023118182 3.4611232e-09 
  508000          298  0.017835605 3.448539e-09 
  509000          298  0.022128122 3.4509483e-09 
  510000          298  0.014387595 3.4366895e-09 
  511000          298  0.018990436 3.4183175e-09 
  512000          298  0.014744479 3.3992812e-09 
  513000          298  0.022157155 3.3937458e-09 
  514000          298  0.019385425 3.3873921e-09 
  515000          298  0.014416576 3.3660939e-09 
  516000          298  0.018463286 3.3522013e-09 
  517000          298  0.020047371 3.3474167e-09 
  518000          298  0.018122269 3.3348503e-09 
  519000          298  0.018893181 3.321143e-09 
  520000          298  0.018505977 3.3197515e-09 
  521000          298  0.022405717 3.3146355e-09 
  522000          298  0.014790383 3.2976306e-09 
  523000          298  0.022189379 3.2921233e-09 
  524000          298  0.026471925 3.3149225e-09 
  525000          298 0.0099019328 3.2883767e-09 
  526000          298 0.0082195109 3.2395583e-09 
  527000          298  0.019634731 3.2232686e-09 
  528000          298  0.014809237 3.2079732e-09 
  529000          298  0.012915318 3.1763119e-09 
  530000          298  0.029784619 3.1933922e-09 
  531000          298  0.022655294 3.2115662e-09 
  532000          298  0.010684927 3.1794024e-09 
  533000          298  0.018031863 3.1597175e-09 
  534000          298  0.018406779 3.1556486e-09 
  535000          298  0.013336298 3.1332207e-09 
  536000          298  0.016604503 3.1150456e-09 
  537000          298  0.015437576 3.0912843e-09 
  538000          298  0.026175395 3.1001389e-09 
  539000          298  0.015097779 3.0932655e-09 
  540000          298  0.012662156 3.0634269e-09 
  541000          298  0.019936859 3.0585394e-09 
  542000          298  0.011476178 3.0382498e-09 
  543000          298   0.01264143 3.0046955e-09 
  544000          298  0.024260815 3.0115217e-09 
  545000          298  0.016902495 3.0045097e-09 
  546000          298  0.023544188 3.0035897e-09 
  547000          298  0.016717296 2.9973969e-09 
  548000          298  0.023497217 2.9944722e-09 
  549000          298  0.023530689 3.0099722e-09 
  550000          298  0.014454747 2.9924814e-09 
  551000          298    0.0256766 2.996056e-09 
  552000          298  0.016089128 2.9893786e-09 
  553000          298  0.020090715 2.9776883e-09 
  554000          298  0.022886534 2.9880122e-09 
  555000          298  0.014186636 2.9673903e-09 
  556000          298  0.022106121 2.9674054e-09 
  557000          298  0.013113254 2.9510037e-09 
  558000          298  0.016199176 2.9295255e-09 
  559000          298  0.020475822 2.9248651e-09 
  560000          298  0.013143134 2.9045783e-09 
  561000          298  0.022392864 2.899413e-09 
  562000          298  0.017232849 2.895035e-09 
  563000          298  0.012269809 2.8664334e-09 
  564000          298  0.020497189 2.8592063e-09 
  565000          298  0.017395584 2.8534001e-09 
  566000          298  0.011475686 2.825583e-09 
  567000          298  0.023842044 2.823389e-09 
  568000          298  0.023063897 2.838047e-09 
  569000          298  0.015145935 2.8214468e-09 
  570000          298  0.020498014 2.8182085e-09 
  571000          298  0.020509953 2.8144009e-09 
  572000          298  0.020004399 2.8111428e-09 
  573000          298  0.019322457 2.8070262e-09 
  574000          298  0.022135141 2.8103715e-09 
  575000          298  0.011452896 2.7885434e-09 
  576000          298   0.01748511 2.7718309e-09 
  577000          298  0.020424071 2.7700684e-09 
  578000          298  0.014818309 2.7559513e-09 
  579000          298  0.013966835 2.7325085e-09 
  580000          298  0.021529775 2.7302628e-09 
  581000          298  0.013774067 2.7156246e-09 
  582000          298  0.023625413 2.7128117e-09 
  583000          298  0.018527285 2.7105546e-09 
  584000          298  0.019773111 2.7041382e-09 
  585000          298  0.016498393 2.6980534e-09 
  586000          298  0.018875422 2.6878823e-09 
  587000          298  0.022267977 2.6938809e-09 
  588000          298  0.015257579 2.6759807e-09 
  589000          298   0.02733729 2.6869673e-09 
  590000          298  0.019664537 2.6923475e-09 
  591000          298  0.012362833 2.6676099e-09 
  592000          298  0.023334378 2.6683232e-09 
  593000          298  0.014624558 2.6598112e-09 
  594000          298  0.018014108 2.6424342e-09 
  595000          298  0.025165537 2.6548008e-09 
  596000          298  0.015851335 2.6452673e-09 
  597000          298  0.018998419 2.6356927e-09 
  598000          298  0.025012257 2.6451096e-09 
  599000          298  0.012501603 2.6302228e-09 
  600000          298  0.015318137 2.6096562e-09 
  601000          298  0.029253399 2.6245613e-09 
  602000          298  0.018121981 2.6277594e-09 
  603000          298  0.014298129 2.6061539e-09 
  604000          298  0.023752401 2.6114004e-09 
  605000          298  0.010147015 2.5913981e-09 
  606000          298 0.0095999389 2.5579429e-09 
  607000          298  0.024008278 2.5549255e-09 
  608000          298  0.019625994 2.5550759e-09 
  609000          298  0.016016818 2.5411922e-09 
  610000          298  0.023112593 2.5444243e-09 
  611000          298  0.012881097 2.5301782e-09 
  612000          298  0.021962446 2.5228876e-09 
  613000          298  0.019296589 2.5254319e-09 
  614000          298  0.016328922 2.5099827e-09 
  615000          298  0.021943465 2.5134449e-09 
  616000          298  0.011909654 2.4956351e-09 
  617000          298  0.019339944 2.4834342e-09 
  618000          298  0.020143044 2.4798913e-09 
  619000          298  0.015699103 2.4651073e-09 
  620000          298  0.022380613 2.4649182e-09 
  621000          298  0.014360813 2.4534655e-09 
  622000          298  0.018250399 2.4416309e-09 
  623000          298  0.010826087 2.4205788e-09 
  624000          298  0.023375812 2.4160412e-09 
  625000          298  0.028089625 2.4365982e-09 
  626000          298  0.014277075 2.428443e-09 
  627000          298  0.019989033 2.4181846e-09 
  628000          298  0.018561376 2.4146411e-09 
  629000          298  0.009838176 2.3882179e-09 
  630000          298  0.020637525 2.3778458e-09 
  631000          298  0.016695247 2.3718096e-09 
  632000          298 0.0098736327 2.3450258e-09 
  633000          298  0.021725373 2.3387506e-09 
  634000          298  0.014517807 2.3309814e-09 
  635000          298 0.0095442017 2.3035132e-09 
  636000          298   0.02230766 2.297735e-09 
  637000          298  0.018393549 2.2955803e-09 
  638000          298   0.01428334 2.286534e-09 
  639000          298  0.015118311 2.2674325e-09 
  640000          298  0.024637765 2.2758059e-09 
  641000          298  0.013608823 2.2636487e-09 
  642000          298  0.025922704 2.2653647e-09 
  643000          298  0.028258346 2.2872038e-09 
  644000          298  0.013086274 2.2758413e-09 
  645000          298  0.016649724 2.2592849e-09 
  646000          298  0.021253661 2.2619401e-09 
  647000          298  0.021065764 2.2592216e-09 
  648000          298  0.017363282 2.2549522e-09 
  649000          298  0.017498972 2.2437021e-09 
  650000          298  0.015884784 2.2337864e-09 
  651000          298  0.021281696 2.2320004e-09 
  652000          298  0.018396204 2.2260004e-09 
  653000          298  0.014537127 2.2156779e-09 
  654000          298  0.021437686 2.2109714e-09 
  655000          298   0.01950847 2.2140194e-09 
  656000          298  0.015565827 2.1997488e-09 
  657000          298  0.018845861 2.1964906e-09 
  658000          298  0.014804147 2.1869523e-09 
  659000          298  0.016576271 2.1772134e-09 
  660000          298  0.022420323 2.173973e-09 
  661000          298  0.021118459 2.1799622e-09 
  662000          298  0.013406905 2.1641275e-09 
  663000          298  0.025650731 2.1686143e-09 
  664000          298  0.016019608 2.1642998e-09 
  665000          298  0.021769679 2.1603148e-09 
  666000          298  0.020257209 2.1639945e-09 
  667000          298  0.017697071 2.1573892e-09 
  668000          298  0.016588174 2.1462886e-09 
  669000          298  0.021887717 2.1471513e-09 
  670000          298  0.019711566 2.1436356e-09 
  671000          298  0.015139327 2.1365491e-09 
  672000          298  0.020062555 2.1305018e-09 
  673000          298  0.017749764 2.1270616e-09 
  674000          298  0.015418436 2.1118691e-09 
  675000          298  0.027042787 2.1215938e-09 
  676000          298  0.014854994 2.1175258e-09 
  677000          298  0.012994141 2.0972308e-09 
  678000          298  0.015889605 2.0894935e-09 
  679000          298  0.013623456  2.07684e-09 
  680000          298  0.019182985 2.0686844e-09 
  681000          298  0.021267511 2.0723014e-09 
  682000          298 0.0093312394 2.0537439e-09 
  683000          298  0.012109977 2.031203e-09 
  684000          298  0.021438421 2.0310782e-09 
  685000          298  0.015024139 2.0236487e-09 
  686000          298  0.022545914 2.020653e-09 
  687000          298  0.015280979 2.0154646e-09 
  688000          298  0.017803569 2.0061436e-09 
  689000          298  0.020735935 2.0041512e-09 
  690000          298   0.01342411 1.9912448e-09 
  691000          298  0.025038487 1.9938029e-09 
  692000          298  0.018378595 1.9976854e-09 
  693000          298 0.0099132417 1.976306e-09 
  694000          298  0.023908158 1.9736119e-09 
  695000          298  0.022354429 1.9819066e-09 
  696000          298  0.014223634 1.9698794e-09 
  697000          298    0.0204831 1.9682548e-09 
  698000          298  0.014153506 1.9598122e-09 
  699000          298  0.018989766 1.9505455e-09 
  700000          298  0.019041314 1.9520174e-09 
  701000          298  0.015603175 1.9392805e-09 
  702000          298  0.026310191 1.9473339e-09 
  703000          298  0.014290545 1.9426081e-09 
  704000          298  0.012882147 1.9241991e-09 
  705000          298  0.027371051 1.9310411e-09 
  706000          298  0.018555763 1.9348633e-09 
  707000          298  0.015479442 1.923337e-09 
  708000          298  0.017960495 1.9206843e-09 
  709000          298  0.013935224 1.9081873e-09 
  710000          298  0.013457729 1.8966309e-09 
  711000          298  0.018473663 1.8866059e-09 
  712000          298  0.025009517 1.8957893e-09 
  713000          298   0.01597328 1.888052e-09 
  714000          298  0.018206221 1.8845524e-09 
  715000          298  0.013549321 1.8739258e-09 
  716000          298  0.016768264 1.8639223e-09 
  717000          298  0.020305564 1.8623929e-09 
  718000          298  0.017520458 1.8565934e-09 
  719000          298  0.020526876 1.8532138e-09 
  720000          298  0.017594447 1.8474892e-09 
  721000          298  0.013135863 1.8338933e-09 
  722000          298  0.025307986 1.8373019e-09 
  723000          298   0.01552719 1.8355215e-09 
  724000          298 0.0068123602 1.811634e-09 
  725000          298  0.010304262 1.7891219e-09 
  726000          298   0.02717182 1.7928607e-09 
  727000          298  0.030919603 1.8145258e-09 
  728000          298  0.014134048  1.81008e-09 
  729000          298   0.01568184 1.7969397e-09 
  730000          298  0.029115558 1.8088399e-09 
  731000          298  0.016864825 1.8088393e-09 
  732000          298  0.016181571 1.7977742e-09 
  733000          298  0.026045846 1.8055654e-09 
  734000          298  0.016040035 1.8026774e-09 
  735000          298  0.017870055 1.7941128e-09 
  736000          298  0.018220652 1.7917257e-09 
  737000          298  0.014204971 1.7818202e-09 
  738000          298  0.023260273 1.7836888e-09 
  739000          298  0.015292489 1.7762082e-09 
  740000          298  0.018048935 1.7697471e-09 
  741000          298  0.021821173 1.7743373e-09 
  742000          298  0.013575851 1.7633488e-09 
  743000          298  0.018880122 1.7600202e-09 
  744000          298  0.020253738 1.7591194e-09 
  745000          298  0.020331036 1.7573156e-09 
  746000          298  0.018913144 1.7570274e-09 
  747000          298  0.011054129 1.7434581e-09 
  748000          298  0.019462732 1.7353839e-09 
  749000          298  0.022408907 1.739265e-09 
  750000          298  0.012960044 1.7288687e-09 
  751000          298  0.023725987 1.7277022e-09 
  752000          298  0.020276905 1.7321553e-09 
  753000          298 0.0081251609 1.7137036e-09 
  754000          298  0.013737255 1.6971343e-09 
  755000          298  0.022194426 1.6998116e-09 
  756000          298  0.012379076 1.6892216e-09 
  757000          298  0.022045342 1.6872459e-09 
  758000          298  0.014414564 1.6817836e-09 
  759000          298  0.019645786 1.6752133e-09 
  760000          298  0.018610743 1.6761345e-09 
  761000          298  0.016632448 1.6662774e-09 
  762000          298   0.02740036 1.6737975e-09 
  763000          298  0.017908385 1.6754635e-09 
  764000          298  0.016722168 1.6651439e-09 
  765000          298  0.024726167 1.6718913e-09 
  766000          298  0.011532241 1.6619666e-09 
  767000          298  0.013565305 1.6464622e-09 
  768000          298  0.019461491 1.6447677e-09 
  769000          298  0.010733105 1.6321746e-09 
  770000          298    0.0204511 1.6263093e-09 
  771000          298  0.018212025 1.6252452e-09 
  772000          298 0.0073275032 1.6060007e-09 
  773000          298  0.012014161 1.5882873e-09 
  774000          298  0.017612237 1.5853752e-09 
  775000          298  0.017244484 1.5781353e-09 
  776000          298  0.019685597 1.5778331e-09 
  777000          298  0.017419204 1.5746065e-09 
  778000          298  0.018177777 1.5709145e-09 
  779000          298  0.016439555 1.5630208e-09 
  780000          298  0.021292291 1.5612968e-09 
  781000          298  0.015780067 1.5565469e-09 
  782000          298  0.019049469 1.5502794e-09 
  783000          298  0.026949153 1.5609926e-09 
  784000          298  0.016107671 1.5578042e-09 
  785000          298  0.017406003 1.5517983e-09 
  786000          298  0.027557593 1.5594805e-09 
  787000          298  0.016890719 1.5588945e-09 
  788000          298  0.020166008 1.556586e-09 
  789000          298  0.018013239 1.5515217e-09 
  790000          298  0.015026005 1.5428213e-09 
  791000          298  0.023148274 1.5461871e-09 
  792000          298  0.011557524 1.5374595e-09 
  793000          298  0.016441294 1.5269292e-09 
  794000          298  0.016042165 1.5241236e-09 
  795000          298  0.020769121 1.5203727e-09 
  796000          298   0.01856106 1.5207702e-09 
  797000          298  0.018935028 1.5193893e-09 
  798000          298  0.018451123 1.5140908e-09 
  799000          298  0.020549058 1.5142083e-09 
  800000          298  0.016984384 1.5095636e-09 
  801000          298  0.019269953 1.5074643e-09 
  802000          298  0.014194097 1.4977147e-09 
  803000          298  0.029589294 1.5060035e-09 
  804000          298  0.020601025 1.5127543e-09 
  805000          298  0.015956586 1.5041828e-09 
  806000          298  0.022699349 1.5066686e-09 
  807000          298  0.011610011 1.4969081e-09 
  808000          298  0.022592884 1.4945436e-09 
  809000          298   0.02236229 1.5002104e-09 
  810000          298  0.013696751 1.4904498e-09 
  811000          298  0.026582071 1.495716e-09 
  812000          298   0.01856918 1.4978176e-09 
  813000          298  0.014244194 1.4883418e-09 
  814000          298  0.014074531 1.4811543e-09 
  815000          298  0.018818113 1.4755068e-09 
  816000          298  0.025570171 1.4829428e-09 
  817000          298  0.014446027 1.478347e-09 
  818000          298  0.022733791 1.4774382e-09 
  819000          298  0.018687159 1.4785323e-09 
  820000          298 0.0089547665 1.463358e-09 
  821000          298  0.020373097 1.4573971e-09 
  822000          298  0.018447407 1.4557208e-09 
  823000          298  0.018754352 1.4510274e-09 
  824000          298   0.02175305 1.4559718e-09 
  825000          298 0.0098981434 1.4432739e-09 
  826000          298  0.015396199 1.4324353e-09 
  827000          298  0.018614957 1.4312655e-09 
  828000          298  0.020352026  1.43206e-09 
  829000          298 0.0088692753 1.4183066e-09 
  830000          298  0.017039763 1.4085622e-09 
  831000          298  0.023472879 1.412623e-09 
  832000          298  0.015876856 1.4074835e-09 
  833000          298  0.018858153 1.4024578e-09 
  834000          298  0.019392866 1.4049382e-09 
  835000          298  0.016551993 1.3981886e-09 
  836000          298  0.020730119 1.3958604e-09 
  837000          298  0.021135369 1.3992042e-09 
  838000          298 0.0075389838 1.384311e-09 
  839000          298 0.0073103659 1.3651657e-09 
  840000          298  0.020469523 1.3592382e-09 
  841000          298  0.028241228 1.3705264e-09 
  842000          298  0.016045172 1.3685825e-09 
  843000          298  0.018190187 1.3622085e-09 
  844000          298  0.014620061 1.3577125e-09 
  845000          298  0.018003232 1.3526027e-09 
  846000          298  0.025059976 1.3579103e-09 
  847000          298  0.016792208 1.3558865e-09 
  848000          298  0.018718203 1.3502809e-09 
  849000          298  0.025851573 1.3571069e-09 
  850000          298  0.013706657 1.3530008e-09 
  851000          298  0.014101406 1.3419535e-09 
  852000          298  0.020343325 1.3409795e-09 
  853000          298  0.011528727 1.3308574e-09 
  854000          298  0.024194617 1.3315905e-09 
  855000          298  0.015095706 1.3295753e-09 
  856000          298  0.013804858 1.3186579e-09 
  857000          298  0.028043211 1.3252564e-09 
  858000          298  0.017959172  1.32795e-09 
  859000          298  0.016848199 1.3219436e-09 
  860000          298  0.018852576 1.3217633e-09 
  861000          298  0.018887119 1.3184951e-09 
  862000          298   0.02121114 1.3206625e-09 
  863000          298  0.015684445 1.314142e-09 
  864000          298  0.019355653 1.3142129e-09 
  865000          298   0.01315974 1.3065171e-09 
  866000          298  0.015951662 1.2997605e-09 
  867000          298  0.014458024 1.2954559e-09 
  868000          298  0.013612609 1.284536e-09 
  869000          298  0.020506926 1.2850285e-09 
  870000          298  0.011663999 1.2777035e-09 
  871000          298  0.016821014 1.2700787e-09 
  872000          298  0.019984325 1.2692603e-09 
  873000          298  0.014597218 1.2623558e-09 
  874000          298  0.026222334 1.2662648e-09 
  875000          298   0.01884261 1.269304e-09 
  876000          298  0.015186755 1.2619699e-09 
  877000          298    0.0227876 1.264076e-09 
  878000          298  0.014387449 1.2577842e-09 
  879000          298  0.017100974 1.2538947e-09 
  880000          298  0.013854978 1.2454111e-09 
  881000          298  0.021406946 1.246703e-09 
  882000          298  0.016598717 1.2434176e-09 
  883000          298  0.024613139 1.2455994e-09 
  884000          298  0.018218263 1.2473558e-09 
  885000          298  0.016124949 1.2401689e-09 
  886000          298  0.025666197 1.2452559e-09 
  887000          298  0.014252548 1.2420079e-09 
  888000          298  0.018898175 1.2361882e-09 
  889000          298  0.028309392 1.245467e-09 
  890000          298  0.012370982 1.2408066e-09 
  891000          298 0.0095191319 1.2269767e-09 
  892000          298  0.021927992 1.2243851e-09 
  893000          298    0.0177873 1.2237868e-09 
  894000          298  0.015621972 1.216625e-09 
  895000          298  0.030800502 1.2251112e-09 
  896000          298  0.022831197 1.2331483e-09 
  897000          298 0.0090810844 1.2222697e-09 
  898000          298  0.013908179 1.2114697e-09 
  899000          298  0.021201368 1.2128284e-09 
  900000          298  0.016248997 1.2099945e-09 
  901000          298  0.022662508 1.2095494e-09 
  902000          298  0.017248331 1.209214e-09 
  903000          298  0.013370626 1.2006636e-09 
  904000          298  0.018151849 1.1971441e-09 
  905000          298  0.013472308 1.1912666e-09 
  906000          298  0.018501327 1.1874699e-09 
  907000          298  0.022827531 1.1909182e-09 
  908000          298  0.012585919 1.1837203e-09 
  909000          298  0.026519823 1.1866103e-09 
  910000          298  0.020870946 1.1916984e-09 
  911000          298  0.013445005 1.1838341e-09 
  912000          298  0.023388821 1.1855398e-09 
  913000          298  0.012280957 1.1798829e-09 
  914000          298  0.015328178 1.171937e-09 
  915000          298  0.021455389 1.1721611e-09 
  916000          298  0.014420988 1.1668458e-09 
  917000          298  0.018975123 1.1634517e-09 
  918000          298  0.018045474 1.1608566e-09 
  919000          298  0.013979397 1.1530659e-09 
  920000          298  0.023194416 1.1549499e-09 
  921000          298  0.012750636 1.1499188e-09 
  922000          298  0.020200485 1.1456134e-09 
  923000          298  0.021996119 1.1499111e-09 
  924000          298   0.01647715 1.1458554e-09 
  925000          298  0.022283509 1.1453813e-09 
  926000          298  0.015846924 1.1435517e-09 
  927000          298  0.018640135 1.1398201e-09 
  928000          298  0.017985128 1.1387841e-09 
  929000          298  0.021156616 1.138292e-09 
  930000          298  0.019152034 1.1398455e-09 
  931000          298  0.013210978 1.1317426e-09 
  932000          298  0.017585063 1.1284359e-09 
  933000          298  0.011542269 1.1215131e-09 
  934000          298  0.016624766 1.1139403e-09 
  935000          298  0.022666678 1.1174329e-09 
  936000          298 0.0095184053 1.1081908e-09 
  937000          298   0.01791343 1.1022665e-09 
  938000          298  0.020417087 1.1031548e-09 
  939000          298   0.01760538 1.1010614e-09 
  940000          298  0.023162972 1.101687e-09 
  941000          298  0.017466765 1.1016011e-09 
  942000          298  0.016825957 1.0960659e-09 
  943000          298  0.016904337 1.0946082e-09 
  944000          298  0.018996383 1.0928261e-09 
  945000          298   0.02146163 1.0936931e-09 
  946000          298  0.011173241 1.0859125e-09 
  947000          298  0.018705013 1.0813442e-09 
  948000          298  0.017125712 1.0789262e-09 
  949000          298  0.016150059 1.0746589e-09 
  950000          298  0.014646072 1.0673662e-09 
  951000          298  0.021315327 1.0677119e-09 
  952000          298 0.0085426469 1.0584775e-09 
  953000          298 0.0048910984 1.0424329e-09 
  954000          298 0.0015760631 1.0234845e-09 
  955000          298 0.0011865453 1.0027609e-09 
  956000          298   0.00108511 9.8184795e-10 
  957000          298 0.00089367609 9.6153506e-10 
  958000          298 0.00054784042 9.4075183e-10 
  959000          298 0.00076872757 9.2028131e-10 
  960000          298 0.0010404781 9.0040645e-10 
  961000          298 0.0013159294 8.8022235e-10 
  962000          298 0.00035259948 8.6023534e-10 
  963000          298 0.0016191074 8.4075613e-10 
  964000          298 0.00051572781 8.2047777e-10 
  965000          298 0.00011852668 8.0083561e-10 
  966000          298 0.0011342967 7.8146011e-10 
  967000          298 0.0009824233 7.6183898e-10 
  968000          298 0.00078927996 7.4303299e-10 
  969000          298 0.00090265772 7.2386313e-10 
  970000          298 0.00034593534 7.0483249e-10 
  971000          298 0.00032139356 6.8572163e-10 
  972000          298 0.0030561452 6.6841054e-10 
  973000          298 0.0010749203 6.5082456e-10 
  974000          298 0.0013290678 6.3238802e-10 
  975000          298 0.00036979914 6.1354566e-10 
  976000          298 0.00081107859 5.9487525e-10 
  977000          298 0.0014111517 5.7690655e-10 
  978000          298 0.0005369301 5.5851312e-10 
  979000          298 0.0011462705 5.4102473e-10 
  980000          298 0.00074719042 5.2311193e-10 
  981000          298 0.0014371625 5.0533294e-10 
  982000          298 0.00067200442 4.8728283e-10 
  983000          298 0.00017744892 4.6944622e-10 
  984000          298 0.0015407413 4.5220722e-10 
  985000          298 0.00085029237 4.3448697e-10 
  986000          298 0.0015694893 4.1744548e-10 
  987000          298 0.00039471598 3.9990955e-10 
  988000          298 0.00051158841 3.8264363e-10 
  989000          298 0.00070418384 3.6573337e-10 
  990000          298 0.00020088811 3.4851244e-10 
  991000          298 0.00070425336 3.3193109e-10 
  992000          298 0.0011407104 3.154103e-10 
  993000          298 0.0008174545 2.9870041e-10 
  994000          298 0.00064597307 2.8209864e-10 
  995000          298  0.001700114 2.6592892e-10 
  996000          298 0.00067694308 2.4938234e-10 
  997000          298 0.0010322352 2.3301209e-10 
  998000          298 0.00074651624 2.1688337e-10 
  999000          298 0.0015971658 2.0113659e-10 
 1000000          298 0.00049315346 1.8500027e-10 
Loop time of 1008.58 on 1 procs for 1000000 steps with 2431 atoms

Performance: 85.665 ns/day, 0.280 hours/ns, 991.494 timesteps/s
100.0% CPU use with 1 MPI tasks x no OpenMP threads

MPI task timing breakdown:
Section |  min time  |  avg time  |  max time  |%varavg| %total
---------------------------------------------------------------
Pair    | 19.537     | 19.537     | 19.537     |   0.0 |  1.94
Bond    | 745.83     | 745.83     | 745.83     |   0.0 | 73.95
Neigh   | 150.71     | 150.71     | 150.71     |   0.0 | 14.94
Comm    | 61.482     | 61.482     | 61.482     |   0.0 |  6.10
Output  | 2.8196     | 2.8196     | 2.8196     |   0.0 |  0.28
Modify  | 9.571      | 9.571      | 9.571      |   0.0 |  0.95
Other   |            | 18.63      |            |       |  1.85

Nlocal:    2431 ave 2431 max 2431 min
Histogram: 1 0 0 0 0 0 0 0 0 0
Nghost:    16166 ave 16166 max 16166 min
Histogram: 1 0 0 0 0 0 0 0 0 0
Neighs:    1172 ave 1172 max 1172 min
Histogram: 1 0 0 0 0 0 0 0 0 0

Total # of neighbors = 1172
Ave neighs/atom = 0.482106
Ave special neighs/atom = 6.58988
Neighbor list builds = 2166
Dangerous builds = 0
unfix           3
unfix           4
undump          NiPyC2_experiment_with_Kr_xyzmov

Total wall time: 0:19:46
