
# --------------------------------- Initialization -------------------------------------- #
units           real
atom_style      full
boundary        p p p

pair_style      lj/cut 14.000
bond_style      harmonic
angle_style     cosine/periodic
dihedral_style  harmonic
improper_style  fourier

special_bonds   lj/coul 0.0 0.0 1.0
pair_modify     tail no mix arithmetic
#dielectric      1.0
box tilt        large
read_data       data.NiPyC2_experiment_with_Xe
  triclinic box = (0 0 0) to (31.264 37.5702 30.8228) with tilt (0 -0.682783 0)
  1 by 1 by 1 MPI processor grid
  reading atoms ...
  2431 atoms
  scanning bonds ...
  6 = max bonds/atom
  scanning angles ...
  15 = max angles/atom
  scanning dihedrals ...
  8 = max dihedrals/atom
  scanning impropers ...
  3 = max impropers/atom
  reading bonds ...
  2880 bonds
  reading angles ...
  5490 angles
  reading dihedrals ...
  5760 dihedrals
  reading impropers ...
  3780 impropers
  6 = max # of 1-2 neighbors
  9 = max # of 1-3 neighbors
  12 = max # of special neighbors
  special bonds CPU = 0.000676571 secs
  read_data CPU = 0.019601 secs

#### Atom Groupings ####
group           xe       id   2431
1 atoms in group xe
group           fram     id   1:2430
2430 atoms in group fram
#### END Atom Groupings ####

###
# Fixes are overkill if you simply want to hold a collection of atoms stationary.
# A simpler way to hold atoms stationary is to not include those atoms in your time integration.
#
# Speed up Calculations by exluding framework-framework interactions
# since we are keeping the framework rigid and stationary.
#
# neigh_modify keyword values ...
# keyword = exclude
# values  = group group1-ID group2-ID
#
# group1-ID, group2-ID = exclude if one atom is in 1st group, other in 2nd
###
neigh_modify exclude group fram fram

# ----------------------------- Variables ---------------------- #
dump            NiPyC2_experiment_with_Xe_xyzmov all xyz 1000 NiPyC2_experiment_with_Xe_mov.xyz
dump_modify     NiPyC2_experiment_with_Xe_xyzmov element Ni O N C H Xe
variable        dt         equal 1.00
variable        tdamp      equal 100*${dt}
variable        tdamp      equal 100*1
variable        eqtemp     equal 298.00

# ------------------------------ Equilibriation -------------------------------------------- #
# we do not need to perform equilibriation since we are using a rigid framework
# and the (single) adsorbate has already been inserted into the material via GCMC
# which already included an equilibriation phase.
fix             1 xe langevin ${eqtemp} ${eqtemp} ${tdamp} 523910
fix             1 xe langevin 298 ${eqtemp} ${tdamp} 523910
fix             1 xe langevin 298 298 ${tdamp} 523910
fix             1 xe langevin 298 298 100 523910
fix             2 xe nve
#fix             3 fram langevin 298.00 298.00 ${tdamp} 965287
#fix             4 fram nve
thermo          1000
run             200000
Neighbor list info ...
  update every 1 steps, delay 10 steps, check yes
  max neighbors/atom: 2000, page size: 100000
  master list distance cutoff = 16
  ghost atom cutoff = 16
  binsize = 8, bins = 4 5 4
  1 neighbor lists, perpetual/occasional/extra = 1 0 0
  (1) pair lj/cut, perpetual
      attributes: half, newton on
      pair build: half/bin/newton/tri
      stencil: half/bin/3d/newton/tri
      bin: standard
WARNING: Inconsistent image flags (src/domain.cpp:785)
Per MPI rank memory allocation (min/avg/max) = 31.08 | 31.08 | 31.08 Mbytes
Step Temp E_pair E_mol TotEng Press 
       0            0   -7.1280169    41619.543    41612.415   -78620.427 
    1000  0.049812509   -7.3011832    41619.543    41612.603   -78625.502 
    2000   0.18219436   -7.2765071    41619.543    41613.587    -78623.21 
    3000  0.078328829   -6.4913983    41619.543    41613.619    -78609.21 
    4000   0.19059994   -7.3125683    41619.543    41613.611   -78619.547 
    5000  0.044473809   -7.4220347    41619.543    41612.444   -78621.817 
    6000   0.17824527   -6.8142756    41619.543     41614.02   -78615.411 
    7000   0.16299594   -7.3138295    41619.543     41613.41   -78623.565 
    8000  0.033160625   -6.7495241    41619.543    41613.034   -78615.692 
    9000   0.13137937   -6.9427205    41619.543    41613.552       -78617 
   10000   0.11473949   -6.9746688    41619.543      41613.4   -78617.405 
   11000 0.0066467026    -7.123947    41619.543    41612.468   -78620.601 
   12000  0.058566594   -7.2737756    41619.543    41612.694   -78623.197 
   13000   0.17074218   -7.4074241    41619.543    41613.373   -78624.891 
   14000     0.080754   -7.1313681    41619.543    41612.997   -78622.068 
   15000  0.079234473   -6.9695482    41619.543    41613.148   -78617.907 
   16000    0.4092789   -7.3268804    41619.543    41615.181    -78622.96 
   17000   0.10878685   -7.3237653    41619.543    41613.008   -78623.639 
   18000 0.0035184932   -7.2588894    41619.543     41612.31   -78623.208 
   19000   0.19188277    -7.136359    41619.543    41613.797   -78619.337 
   20000   0.22358144    -6.439261    41619.543    41614.724   -78606.648 
   21000   0.12861595   -7.2738128    41619.543    41613.201   -78620.177 
   22000  0.084447911   -7.2149265    41619.543     41612.94   -78624.238 
   23000   0.19743843   -7.2156806    41619.543    41613.758   -78619.225 
   24000  0.072791161    -6.417418    41619.543    41613.653   -78611.416 
   25000   0.53619756   -7.3243925    41619.543    41616.103   -78616.947 
   26000   0.03015394   -7.3017743    41619.543     41612.46   -78619.978 
   27000   0.14834725   -7.0865109    41619.543    41613.531   -78618.157 
   28000  0.024137006   -6.4681981    41619.543     41613.25   -78610.455 
   29000  0.017533318   -7.3904757    41619.543     41612.28   -78625.912 
   30000  0.015396395   -7.3417316    41619.543    41612.313   -78626.814 
   31000  0.027359975      -7.1019    41619.543     41612.64   -78621.242 
   32000   0.22769786   -7.0320389    41619.543    41614.161   -78614.923 
   33000   0.36213362   -7.0598948    41619.543    41615.107   -78617.662 
   34000  0.060857815   -7.3486104    41619.543    41612.636   -78625.026 
   35000  0.086247166   -7.3515589    41619.543    41612.817   -78625.766 
   36000  0.095831997   -5.4471651    41619.543     41614.79   -78599.581 
   37000   0.14396575   -6.2350944    41619.543    41614.351   -78606.609 
   38000   0.28490232   -7.3035561    41619.543    41614.304    -78621.04 
   39000   0.14404973   -7.3413136    41619.543    41613.246   -78622.233 
   40000  0.060191631   -7.1687583    41619.543    41612.811   -78620.865 
   41000   0.10275488   -7.2342324    41619.543    41613.053   -78624.815 
   42000  0.095875059   -7.2233149    41619.543    41613.015   -78624.416 
   43000  0.076353055   -7.3294716    41619.543    41612.767   -78626.387 
   44000  0.042206251   -7.3909309    41619.543    41612.458   -78625.922 
   45000   0.41793113   -7.5114791    41619.543    41615.059   -78619.873 
   46000   0.16712237   -7.2040035    41619.543     41613.55   -78621.187 
   47000  0.019725259   -7.3453841    41619.543    41612.341   -78618.079 
   48000    0.1445517    -5.829618    41619.543    41614.761   -78603.377 
   49000  0.078134217   -6.9566485    41619.543    41613.153   -78614.795 
   50000   0.18978842   -7.0648408    41619.543    41613.853   -78612.125 
   51000  0.038670776   -7.2326687    41619.543    41612.591   -78620.142 
   52000  0.044697763   -6.8253702    41619.543    41613.042   -78616.232 
   53000   0.12876094   -6.9936574    41619.543    41613.482    -78620.01 
   54000  0.033059543   -7.2829131    41619.543      41612.5   -78625.033 
   55000  0.088801003   -6.8828607    41619.543    41613.304   -78619.277 
   56000     0.245752    -7.083621    41619.543     41614.24   -78617.866 
   57000   0.40675773   -6.8053042    41619.543    41615.684   -78608.968 
   58000  0.042085303   -6.6640503    41619.543    41613.184   -78618.039 
   59000   0.24888564   -6.9682982    41619.543    41614.378   -78616.994 
   60000  0.061654505   -7.4748847    41619.543    41612.515   -78624.919 
   61000   0.19641634   -7.4156964    41619.543     41613.55   -78622.441 
   62000  0.029020902    -7.335296    41619.543    41612.418   -78619.034 
   63000   0.13412629   -7.3206636    41619.543    41613.194   -78617.522 
   64000   0.20898177   -7.2525324    41619.543    41613.805   -78621.071 
   65000 0.0098940704   -7.1784668    41619.543    41612.437   -78621.126 
   66000   0.21263833   -7.1277517    41619.543    41613.956   -78620.074 
   67000  0.019568422   -7.4244044    41619.543    41612.261   -78626.299 
   68000   0.15628744   -6.7457204    41619.543     41613.93   -78616.595 
   69000   0.06005554   -6.9045731    41619.543    41613.074    -78618.32 
   70000   0.22828253   -7.3027795    41619.543    41613.894   -78623.894 
   71000   0.15041466   -7.3254849    41619.543    41613.307   -78624.687 
   72000   0.22750623   -7.3740171    41619.543    41613.817     -78624.7 
   73000  0.044881095   -7.2500535    41619.543    41612.618   -78621.393 
   74000   0.23962858   -7.1835167    41619.543    41614.096   -78621.608 
   75000   0.21708061   -7.3473053    41619.543    41613.769   -78621.722 
   76000   0.12512668   -6.6804482    41619.543    41613.769   -78605.989 
   77000   0.02360665   -7.1514739    41619.543    41612.563   -78621.545 
   78000  0.088066305   -7.3534791    41619.543    41612.828   -78622.963 
   79000  0.051117783   -7.2634944    41619.543     41612.65    -78622.85 
   80000   0.14183677   -6.7573376    41619.543    41613.813   -78614.898 
   81000   0.03763283   -7.3276433    41619.543    41612.488   -78624.119 
   82000   0.23557438    -6.624846    41619.543    41614.625   -78613.785 
   83000   0.13531627   -7.3137101    41619.543     41613.21   -78624.865 
   84000   0.17383149   -7.3346259    41619.543    41613.468   -78625.491 
   85000   0.04438974   -6.9779023    41619.543    41612.887    -78618.21 
   86000  0.098700281   -6.9815934    41619.543    41613.277   -78620.235 
   87000  0.025641135   -7.3062694    41619.543    41612.423   -78624.446 
   88000   0.10313894   -7.1480702    41619.543    41613.142   -78620.138 
   89000   0.28344456    -6.904863    41619.543    41614.692   -78614.814 
   90000  0.060544185   -6.9787292    41619.543    41613.003   -78618.905 
   91000  0.041193432   -6.7112201    41619.543    41613.131   -78614.194 
   92000  0.018902062   -6.7190553    41619.543    41612.961   -78617.607 
   93000   0.19203367   -6.6150287    41619.543    41614.319   -78610.309 
   94000  0.061117885   -6.9336085    41619.543    41613.053   -78613.894 
   95000  0.043447803    -7.345444    41619.543    41612.513   -78626.698 
   96000   0.11883755   -5.5095335    41619.543    41614.895   -78602.368 
   97000    0.2017733   -7.2669489    41619.543    41613.738   -78622.116 
   98000  0.031475993   -6.9491972    41619.543    41612.822   -78619.461 
   99000  0.032007855   -7.1272925    41619.543    41612.648   -78621.388 
  100000   0.32925306   -7.0928013    41619.543    41614.836   -78617.856 
  101000   0.27146388   -6.9701181    41619.543     41614.54   -78617.696 
  102000   0.13207062   -6.5479331    41619.543    41613.952   -78608.495 
  103000   0.12583153   -6.6815328    41619.543    41613.773   -78608.436 
  104000   0.12260104    -7.457575    41619.543    41612.974   -78624.612 
  105000  0.042852006   -7.2987821    41619.543    41612.555   -78623.672 
  106000   0.15930124   -6.5548126    41619.543    41614.143   -78610.237 
  107000   0.19853197   -7.2912024    41619.543     41613.69   -78620.848 
  108000  0.070744306   -7.1081922    41619.543    41612.948   -78620.601 
  109000  0.033302808   -6.5454868    41619.543    41613.239   -78611.396 
  110000    0.1816374   -7.0111212    41619.543    41613.848   -78620.879 
  111000     0.092851   -7.3573662    41619.543    41612.859   -78620.236 
  112000   0.05131228   -7.0243298    41619.543    41612.891    -78613.84 
  113000   0.12870405   -6.6228962    41619.543    41613.853   -78611.874 
  114000    0.1025838   -7.3835921    41619.543    41612.903   -78620.305 
  115000  0.084299204   -5.9600963    41619.543    41614.194   -78599.575 
  116000   0.12430794   -7.3576076    41619.543    41613.086   -78620.383 
  117000  0.071018587    -7.475912    41619.543    41612.582   -78621.649 
  118000   0.13560983   -7.2692578    41619.543    41613.256   -78622.349 
  119000  0.069480965   -7.0534458    41619.543    41612.993   -78614.636 
  120000   0.10961385   -7.4012348    41619.543    41612.936   -78618.336 
  121000  0.036324346   -7.3518752    41619.543    41612.455   -78620.561 
  122000   0.12488302   -7.2144792    41619.543    41613.234   -78620.434 
  123000  0.061652755   -7.4361379    41619.543    41612.554   -78625.696 
  124000    0.0235186   -7.2975117    41619.543    41612.416   -78624.344 
  125000   0.21357175   -6.4073122    41619.543    41614.683   -78612.378 
  126000    0.2033673   -7.5011688    41619.543    41613.515   -78623.491 
  127000  0.006445308   -7.2923171    41619.543    41612.298    -78624.23 
  128000   0.14572668   -6.9492761    41619.543     41613.65   -78616.131 
  129000  0.057657862   -6.4420503    41619.543    41613.519   -78612.915 
  130000   0.16205011   -6.9957056    41619.543    41613.722   -78617.308 
  131000  0.050848258   -6.9600293    41619.543    41612.952   -78618.692 
  132000  0.076984058   -6.1710978    41619.543     41613.93   -78606.957 
  133000   0.17313321   -6.8494658    41619.543    41613.948   -78614.687 
  134000  0.095123769   -7.2891932    41619.543    41612.943   -78624.163 
  135000   0.10354792   -6.2790925    41619.543    41614.014   -78611.875 
  136000  0.031900177   -7.1092449    41619.543    41612.665   -78620.983 
  137000   0.13074947   -7.2846932    41619.543    41613.206   -78623.616 
  138000   0.39462207   -6.1958805    41619.543    41616.206   -78604.448 
  139000   0.23892169   -6.2161921    41619.543    41615.058   -78607.783 
  140000    0.1200213   -7.1763146    41619.543    41613.236   -78622.277 
  141000   0.20012973   -6.8315988    41619.543    41614.161    -78616.83 
  142000  0.091445563   -7.4529825    41619.543    41612.753   -78620.778 
  143000  0.064511052   -6.7798574    41619.543    41613.231   -78615.292 
  144000    0.1500077   -6.7316712    41619.543    41613.898   -78617.284 
  145000  0.092022257   -6.5877096    41619.543    41613.622   -78612.386 
  146000   0.11642077   -7.1484702    41619.543    41613.238   -78623.463 
  147000   0.32912321   -7.1922116    41619.543    41614.735   -78619.273 
  148000  0.046538588   -7.3337499    41619.543    41612.547   -78624.357 
  149000  0.067572871   -7.2377895    41619.543    41612.795   -78622.268 
  150000  0.049086173   -7.0062463    41619.543    41612.893   -78619.885 
  151000   0.12677884   -6.8630832    41619.543    41613.599   -78614.813 
  152000  0.071376868   -7.1632048    41619.543    41612.897   -78620.614 
  153000  0.091066168   -7.2125112    41619.543    41612.991   -78624.067 
  154000   0.14834279   -7.2716732    41619.543    41613.346   -78619.648 
  155000   0.30444822   -6.8219513    41619.543    41614.927   -78613.523 
  156000   0.21238017   -7.2318691    41619.543     41613.85   -78620.688 
  157000  0.084048875   -7.3643285    41619.543    41612.788   -78626.418 
  158000   0.17367011   -7.1950836    41619.543    41613.606   -78622.508 
  159000   0.12778148   -7.2211778    41619.543    41613.248   -78621.401 
  160000   0.28301373   -7.3611425    41619.543    41614.232   -78623.903 
  161000   0.10600805   -6.5826159    41619.543    41613.729   -78611.355 
  162000   0.31624019   -6.9953789    41619.543    41614.839   -78617.296 
  163000  0.021607864   -6.5834547    41619.543    41613.116   -78616.395 
  164000   0.12213185   -6.7565847    41619.543    41613.672    -78616.89 
  165000  0.039143211   -6.9433724    41619.543    41612.884   -78620.305 
  166000  0.086529949   -6.9502153    41619.543     41613.22   -78619.725 
  167000   0.14517504    -7.193266    41619.543    41613.402   -78620.766 
  168000  0.041395862     -7.38943    41619.543    41612.454   -78624.829 
  169000  0.022570987   -6.8121408    41619.543    41612.895    -78613.15 
  170000   0.18168652    -7.356068    41619.543    41613.503   -78624.007 
  171000  0.074765395   -7.2561314    41619.543    41612.829   -78622.894 
  172000  0.018134894   -7.2631844    41619.543    41612.412   -78622.518 
  173000   0.11039023   -7.1048668    41619.543    41613.238   -78620.402 
  174000   0.27168635    -7.265672    41619.543    41614.246   -78623.027 
  175000   0.26207629    -7.190269    41619.543    41614.251   -78620.128 
  176000   0.15012234   -7.3130113    41619.543    41613.318   -78622.558 
  177000  0.018201383   -7.3183729    41619.543    41612.357   -78626.884 
  178000  0.057266249   -7.3841214    41619.543    41612.574    -78626.09 
  179000  0.085013928   -7.1590861    41619.543        41613   -78620.382 
  180000  0.039481269   -7.3213756    41619.543    41612.508   -78624.811 
  181000   0.11546034   -7.1054924    41619.543    41613.274    -78618.69 
  182000   0.13285918   -7.3702921    41619.543    41613.135   -78624.167 
  183000  0.058998814   -7.2950129    41619.543    41612.676   -78623.642 
  184000   0.12398556   -7.1841807    41619.543    41613.257   -78616.999 
  185000   0.13202845    -5.963485    41619.543    41614.536   -78601.798 
  186000  0.027674901   -7.4164605    41619.543    41612.327   -78621.307 
  187000  0.097138347   -7.5164956    41619.543    41612.731   -78623.576 
  188000  0.057124647   -7.2232379    41619.543    41612.734   -78625.072 
  189000   0.18668895   -7.2317357    41619.543    41613.664   -78622.605 
  190000  0.046959904   -7.2281048    41619.543    41612.655   -78622.382 
  191000  0.021449767   -7.0046201    41619.543    41612.694   -78617.698 
  192000  0.086300202   -6.7106602    41619.543    41613.458   -78612.715 
  193000   0.11359015   -7.2768368    41619.543    41613.089   -78621.251 
  194000   0.17433525   -7.3140931    41619.543    41613.492    -78622.48 
  195000   0.28503826   -7.3410991    41619.543    41614.267   -78622.902 
  196000   0.04032677   -7.2234342    41619.543    41612.612   -78622.356 
  197000  0.084130784   -6.1747667    41619.543    41613.978   -78611.062 
  198000  0.073473283   -7.2755357    41619.543      41612.8   -78623.504 
  199000  0.027526418   -7.3213174    41619.543    41612.422   -78626.016 
  200000   0.28585903   -7.0411152    41619.543    41614.573   -78617.669 
Loop time of 173.103 on 1 procs for 200000 steps with 2431 atoms

Performance: 99.825 ns/day, 0.240 hours/ns, 1155.379 timesteps/s
100.0% CPU use with 1 MPI tasks x no OpenMP threads

MPI task timing breakdown:
Section |  min time  |  avg time  |  max time  |%varavg| %total
---------------------------------------------------------------
Pair    | 3.7262     | 3.7262     | 3.7262     |   0.0 |  2.15
Bond    | 145.42     | 145.42     | 145.42     |   0.0 | 84.01
Neigh   | 6.9495     | 6.9495     | 6.9495     |   0.0 |  4.01
Comm    | 11.702     | 11.702     | 11.702     |   0.0 |  6.76
Output  | 0.54518    | 0.54518    | 0.54518    |   0.0 |  0.31
Modify  | 1.0919     | 1.0919     | 1.0919     |   0.0 |  0.63
Other   |            | 3.665      |            |       |  2.12

Nlocal:    2431 ave 2431 max 2431 min
Histogram: 1 0 0 0 0 0 0 0 0 0
Nghost:    16166 ave 16166 max 16166 min
Histogram: 1 0 0 0 0 0 0 0 0 0
Neighs:    1163 ave 1163 max 1163 min
Histogram: 1 0 0 0 0 0 0 0 0 0

Total # of neighbors = 1163
Ave neighs/atom = 0.478404
Ave special neighs/atom = 6.58988
Neighbor list builds = 102
Dangerous builds = 0
unfix           1
unfix           2
#unfix           3
#unfix           4

# --------------------- Production (data gathering) --------------------------------------- #
# A simple way to hold atoms stationary is to not include those atoms in your time integration.
reset_timestep  0

fix             3 xe nvt temp ${eqtemp} ${eqtemp} ${tdamp}
fix             3 xe nvt temp 298 ${eqtemp} ${tdamp}
fix             3 xe nvt temp 298 298 ${tdamp}
fix             3 xe nvt temp 298 298 100

###
#  mean-squared disp of grp 1
#
# A vector of four quantities is calculated by this compute:
# The first 3 elements of the vector are the squared dx,dy,dz displacements, summed and averaged over atoms in the group.
# The fourth element is the total squared displacement, i.e. (dx*dx + dy*dy + dz*dz),
#  summed and averaged over atoms in the group.
#
# The displacement of an atom is from its reference position.
# This is normally the original position at the time the compute command was issued, unless the average keyword is set to yes.
# The value of the displacement will be 0.0 for atoms not in the specified compute group.
# The slope of the MSD versus time is proportional to the diffusion coefficient.
#
# MSD values can be accumulated in a vector via the fix vector command,
#   and a line fit to the vector to compute its slope via the variable slope function,
#   and thus extract D.
#
# fix ID group-ID vector Nevery value1 value2 ...
#
# c_ID[I] = Ith component of global vector calculated by a compute with ID
# f_ID = global scalar calculated by a fix with ID
# v_name = value calculated by an equal-style variable with name
#
# variable name style args...
#
# The slope() function uses linear regression to fit a line to the set of points,
#   equally spaced by 1 in their x coordinate: (1,V1), (2,V2), …, (N,VN),
#   where the Vi are the values in the global vector of length N.
#   The returned value is the slope of the line.
#   If the line has a single point or is vertical, it returns 1.0e20.
###
compute         msd all msd com yes       # define comupte
fix             4 xe vector 500 c_msd[4]  # what and how often to evaluate compute
variable        fitslope equal slope(f_4)/6/(500*dt) # calculate diffusion coeff
# note: slope function treats timestep=1, but time between evals is 500*dt, hence the scaling factor

thermo_style    custom step v_eqtemp c_msd[4] v_fitslope # prints this info to log file

thermo          1000
run             1000000
WARNING: Inconsistent image flags (src/domain.cpp:785)
Per MPI rank memory allocation (min/avg/max) = 31.83 | 31.83 | 31.83 Mbytes
Step v_eqtemp c_msd[4] v_fitslope 
       0          298 7.5933135e-31 3.3333333e+16 
    1000          298 0.0010696063 1.7826771e-07 
    2000          298 0.00048618155 -1.4673187e-08 
    3000          298 0.00040350764 2.9637461e-08 
    4000          298 0.00088148892 1.5497113e-09 
    5000          298 0.00047583754 9.6172928e-09 
    6000          298 0.00091370775 -1.0461325e-09 
    7000          298  0.000379032 -6.1258475e-09 
    8000          298 0.0016447361 -2.0193268e-09 
    9000          298 0.00036293856 -6.520458e-09 
   10000          298 0.00064602336 -4.714348e-09 
   11000          298 0.00017781981 -6.2222962e-09 
   12000          298 0.00019329978 -4.6412582e-09 
   13000          298 0.00065556892 -4.7120722e-09 
   14000          298 0.00020017669 -3.3352726e-09 
   15000          298 0.0014806538 -2.1787409e-09 
   16000          298 0.00023464516 -1.3062787e-09 
   17000          298 0.0019215049 2.632016e-10 
   18000          298 0.00041781506 8.2254558e-10 
   19000          298 0.00080461811 5.2701954e-11 
   20000          298 0.00092397162 6.6376776e-10 
   21000          298 0.00016113664 -4.3040401e-10 
   22000          298 0.00084114344 -6.4709515e-10 
   23000          298 0.0011895158 -7.4457788e-11 
   24000          298 0.00030715521 -5.7336877e-10 
   25000          298 0.00096252088 -4.8840549e-10 
   26000          298 0.00036600044 -2.7758684e-10 
   27000          298 0.0008606531 -5.3306996e-10 
   28000          298 0.0012068351 -1.8377826e-10 
   29000          298 0.00013498737 -7.2351742e-10 
   30000          298 0.0016251614 -2.7814684e-10 
   31000          298 8.9298176e-05 -7.5128659e-10 
   32000          298  0.001584881 -2.8935879e-10 
   33000          298 0.00014150077 -6.8318998e-10 
   34000          298 0.0020361063 -2.733637e-10 
   35000          298 0.0004140302 -2.3709463e-10 
   36000          298 0.0013801006 -1.9942768e-10 
   37000          298 0.00037939406 -4.8958901e-10 
   38000          298 0.0021279886 1.7471634e-11 
   39000          298 0.00022352842 -3.6630261e-10 
   40000          298 0.0016881385 -3.5111473e-11 
   41000          298 8.2183696e-05 -3.6841162e-10 
   42000          298  0.001567431 1.0513907e-10 
   43000          298  0.001089666 1.3313975e-10 
   44000          298 0.0017994136 4.6658443e-10 
   45000          298 0.00044614618 3.6620056e-10 
   46000          298 0.00093121529 5.444656e-10 
   47000          298 0.0021613983 8.9668161e-10 
   48000          298 0.00037341494 6.8660845e-10 
   49000          298 0.0011402818 7.4403698e-10 
   50000          298 0.0006976191 8.7944079e-10 
   51000          298 0.00014025808 7.0216155e-10 
   52000          298 0.0010309888 6.877767e-10 
   53000          298 0.00029013519 5.9619473e-10 
   54000          298 0.0020182294 6.7701328e-10 
   55000          298 0.00040707567 5.4595902e-10 
   56000          298 0.0013373767 5.5445375e-10 
   57000          298 0.00068065392 4.6499404e-10 
   58000          298  0.000571372 3.7203021e-10 
   59000          298 0.00057698587 3.121115e-10 
   60000          298 0.00019683583 1.1968311e-10 
   61000          298 0.00041386534 1.9236531e-11 
   62000          298 0.0017923631 1.6886732e-10 
   63000          298 0.00092903205 2.2087224e-10 
   64000          298 0.00011556799 5.2453682e-11 
   65000          298 0.0011706742 3.7167044e-11 
   66000          298 0.00048134518 -9.5575167e-12 
   67000          298 0.00052872621 -1.0107545e-10 
   68000          298 0.0013185088 -5.7986703e-11 
   69000          298 0.0010227957 8.8855773e-12 
   70000          298 0.00036354658 -1.70344e-12 
   71000          298 0.0015441207 8.7883358e-11 
   72000          298 0.00057219375 -2.3684166e-12 
   73000          298 0.0018311695 1.2958712e-10 
   74000          298 0.00014472804 1.1465194e-10 
   75000          298  0.001466087 1.7352097e-10 
   76000          298 0.00079904065 1.0672871e-10 
   77000          298 0.0018621789 2.3084216e-10 
   78000          298 7.685101e-05 1.1744045e-10 
   79000          298 0.0014205483 2.3125361e-10 
   80000          298 0.00063161615 2.215982e-10 
   81000          298 0.0019609088 3.0853335e-10 
   82000          298 0.00041654263 2.4456781e-10 
   83000          298 0.0014929863 2.498138e-10 
   84000          298 0.00041094189 2.3136681e-10 
   85000          298 0.0003547904 1.4154862e-10 
   86000          298 0.0010990679 1.4945827e-10 
   87000          298 0.0010950094 1.2576255e-10 
   88000          298 0.00099693646 2.1586979e-10 
   89000          298 0.00032215767 1.3372232e-10 
   90000          298 0.0012159243 1.4497149e-10 
   91000          298 0.00035375352 8.4353364e-11 
   92000          298 0.00073610946 4.7377288e-11 
   93000          298 6.7718395e-05 1.409189e-11 
   94000          298 0.00091231162 3.9037302e-11 
   95000          298 6.0413312e-05 4.2833456e-11 
   96000          298 0.0013250292 4.3283684e-11 
   97000          298 0.00035122823  2.58457e-11 
   98000          298 0.0017802077 4.0096755e-11 
   99000          298 0.0015208031 8.9816794e-11 
  100000          298 0.0012981215 8.9805955e-11 
  101000          298 0.00025536112 7.4658922e-11 
  102000          298 0.0028452775 1.9767343e-10 
  103000          298 3.1779257e-05 1.7491064e-10 
  104000          298 0.00063069462 1.7348354e-10 
  105000          298 0.00047961619 1.2910714e-10 
  106000          298 0.0011651001 1.2554424e-10 
  107000          298 0.00059154325 9.491555e-11 
  108000          298 0.00077833057 6.8041169e-11 
  109000          298 0.00076063768 5.8930343e-11 
  110000          298 2.7569591e-05 4.3309958e-12 
  111000          298 0.00097641806 -3.498082e-12 
  112000          298 0.0013555478 2.3062694e-11 
  113000          298 0.00050627344 3.8108149e-11 
  114000          298 0.0011623734 2.3342775e-11 
  115000          298 0.0010534328 6.8149453e-11 
  116000          298 0.00054665502 5.2351896e-11 
  117000          298 0.00072218491 9.8684438e-11 
  118000          298 0.0012729043 9.515518e-11 
  119000          298 0.00065967832 8.2725936e-11 
  120000          298 0.00074871937 5.7177315e-11 
  121000          298 0.00030710813 3.5057456e-11 
  122000          298  0.002170888 7.1370097e-11 
  123000          298 0.0004096719 4.8650166e-11 
  124000          298 0.00077146686 3.8023592e-11 
  125000          298 0.00048167009 9.0908967e-12 
  126000          298 0.0011062664 2.9345165e-11 
  127000          298 0.00032406613 -4.8031151e-12 
  128000          298 0.00090828958 2.8392959e-11 
  129000          298  0.000838487 9.7387789e-12 
  130000          298 0.0010379302 5.0410801e-11 
  131000          298 0.00069879525 2.6406495e-11 
  132000          298 0.00087276084 3.8410354e-11 
  133000          298 0.0011891393 5.2331247e-11 
  134000          298 4.1870864e-05 2.3421628e-11 
  135000          298 0.0020780809 7.8485353e-11 
  136000          298 0.0010032029 8.2010641e-11 
  137000          298 0.00033530329 6.1065474e-11 
  138000          298 9.9059347e-05 3.3223159e-11 
  139000          298 0.00056751666 3.3843028e-11 
  140000          298 0.0007401435 1.9530747e-11 
  141000          298 0.00043599489 4.0376615e-11 
  142000          298  0.001053557 2.9459085e-11 
  143000          298 0.00081370928 4.9440303e-11 
  144000          298 0.00018238451 3.122484e-11 
  145000          298 0.0014615366 6.0346219e-11 
  146000          298 9.0779978e-05 5.8663372e-11 
  147000          298 0.0022710206 8.063722e-11 
  148000          298 0.0011195803 8.3370804e-11 
  149000          298 0.0007553117 1.0280784e-10 
  150000          298 0.0024964402 1.4239928e-10 
  151000          298 6.7608188e-05 1.3261924e-10 
  152000          298 0.00073428281 1.2906884e-10 
  153000          298 0.00020663861 1.0122412e-10 
  154000          298 0.0013626437 1.0282096e-10 
  155000          298 0.00029795875 8.2271784e-11 
  156000          298 0.00096426235 6.9928848e-11 
  157000          298 0.00051588338 6.1249523e-11 
  158000          298 0.00030222237 3.4639622e-11 
  159000          298 9.468246e-05 1.8774644e-11 
  160000          298 0.0007336478 2.9869587e-12 
  161000          298 0.00063076175 1.2277534e-11 
  162000          298 0.00033291869 -7.7256963e-12 
  163000          298 0.00020332079 -3.1223192e-11 
  164000          298 0.00019165748 -4.7558138e-11 
  165000          298 0.00090094235 -5.4669236e-11 
  166000          298 0.00094708378 -3.2514306e-11 
  167000          298 0.00049562025 -5.0139627e-11 
  168000          298   0.00196148 -2.2784938e-11 
  169000          298 0.00030502623 -3.7000069e-11 
  170000          298 0.00034352365 -4.8948974e-11 
  171000          298 0.00022048604 -6.4057404e-11 
  172000          298 0.00028996019 -7.4643951e-11 
  173000          298 0.0016485778 -5.7448402e-11 
  174000          298 0.00096305385 -6.3473907e-11 
  175000          298 0.0014708202 -1.7637481e-11 
  176000          298 0.00082298378 -2.8244866e-11 
  177000          298 0.00066885077 -2.5191762e-11 
  178000          298 0.00089154857 -9.8015333e-12 
  179000          298 0.00073352894 -6.3265474e-12 
  180000          298 0.0011393719 -9.5124485e-12 
  181000          298 0.00052504484 2.6231081e-12 
  182000          298 0.0012911919 2.3128291e-11 
  183000          298 0.0022337201 4.1901343e-11 
  184000          298 5.0585188e-05 3.4895556e-11 
  185000          298 0.0014643965 3.9976754e-11 
  186000          298 0.00089469337 5.0130723e-11 
  187000          298 0.00072590978 3.8383251e-11 
  188000          298 0.0012506004 5.0296978e-11 
  189000          298 0.00017356843 3.8226056e-11 
  190000          298 0.0018000317 5.0523711e-11 
  191000          298 0.00023391673 4.3980195e-11 
  192000          298 0.0013057263 4.4697391e-11 
  193000          298 0.00024442402 2.8110809e-11 
  194000          298 0.0012595655 2.8848482e-11 
  195000          298 0.00032450234 1.3749492e-11 
  196000          298 0.0014652936 1.8115412e-11 
  197000          298 0.00022881821 4.0086635e-12 
  198000          298 0.0017083219 1.2596289e-11 
  199000          298 0.00011543159 -2.5707236e-12 
  200000          298 0.0017530569 1.2146543e-11 
  201000          298 0.00021767698 -3.7237473e-12 
  202000          298 0.0012040123 1.0884583e-11 
  203000          298 0.00052380782 5.0612614e-12 
  204000          298 1.8374482e-05 -1.2738688e-11 
  205000          298 0.00041289329 -1.8803641e-11 
  206000          298 0.0002367115 -3.2417983e-11 
  207000          298 0.00046562648 -3.9502871e-11 
  208000          298 0.00027015727 -5.3081167e-11 
  209000          298 0.0014409108 -4.9919574e-11 
  210000          298 0.00046634356 -5.3012257e-11 
  211000          298 0.0016235647 -4.9037084e-11 
  212000          298 0.00073733953 -4.5751116e-11 
  213000          298 0.00025575389 -5.7677522e-11 
  214000          298 0.0012349757 -5.3438671e-11 
  215000          298 0.0010066355 -4.5045459e-11 
  216000          298 0.00039063792 -5.0503315e-11 
  217000          298 0.00012111117 -5.7785553e-11 
  218000          298 0.00056380668 -6.0933972e-11 
  219000          298 0.00034688802 -5.8464091e-11 
  220000          298 0.00028230633 -7.0578182e-11 
  221000          298 0.00026395118 -7.4389884e-11 
  222000          298 0.00039801951 -8.4516536e-11 
  223000          298 0.0002059966 -8.0689998e-11 
  224000          298 0.00044983569 -8.8018724e-11 
  225000          298 0.00019966477 -8.6870815e-11 
  226000          298  0.001079415 -8.551981e-11 
  227000          298 8.3783617e-05 -8.5396979e-11 
  228000          298  0.002199136 -7.4313288e-11 
  229000          298 0.00021553577 -8.0921827e-11 
  230000          298 0.0017872622 -6.8830253e-11 
  231000          298 0.00064356369 -7.3825939e-11 
  232000          298 0.0019331504 -6.3207159e-11 
  233000          298 0.00048191432 -6.5834495e-11 
  234000          298 0.00022347599 -7.5285115e-11 
  235000          298 0.0008077309 -7.3191346e-11 
  236000          298 0.0011883678 -6.9547764e-11 
  237000          298 0.0014769157 -6.628298e-11 
  238000          298 0.00075757545 -5.7135908e-11 
  239000          298 0.0013725511 -4.5917924e-11 
  240000          298 0.0006123338 -5.0904711e-11 
  241000          298 0.0023730665 -3.6476622e-11 
  242000          298 6.5180856e-05 -4.4816013e-11 
  243000          298 0.0010599489 -3.7330247e-11 
  244000          298 0.00099080021 -2.7133256e-11 
  245000          298 0.00016598454 -2.5608975e-11 
  246000          298 0.0022944896 -1.7676826e-11 
  247000          298 0.00056840128 -1.8876015e-11 
  248000          298  0.001821122 -1.3438392e-11 
  249000          298 0.00017816119 -1.7352965e-11 
  250000          298  0.002109808 -7.7208483e-12 
  251000          298 4.2763385e-05 -1.889328e-11 
  252000          298 0.00061819364 -9.4246819e-12 
  253000          298 0.00077304884 -1.4844356e-11 
  254000          298 8.6210926e-05 -1.2779906e-11 
  255000          298  0.002343775 -5.4993071e-12 
  256000          298 0.00014119813 -1.2923416e-11 
  257000          298 0.0015683798 -5.6638381e-12 
  258000          298 0.00025871404 -1.4292271e-11 
  259000          298 0.00041026951 -5.2871103e-12 
  260000          298 0.00099916965 -8.5092471e-12 
  261000          298 4.2859933e-05 -9.15886e-12 
  262000          298 0.0022925981 -1.7398516e-12 
  263000          298 0.0003237743 -7.8034744e-12 
  264000          298 0.0016531179 2.3073799e-12 
  265000          298 9.6217517e-05 -1.7628527e-12 
  266000          298 0.00078775869 -2.1497393e-12 
  267000          298 0.00016447141 -8.8568568e-12 
  268000          298 0.0002426178 -9.3371681e-12 
  269000          298 0.0016201875 -7.2119161e-12 
  270000          298 0.00088697578 9.6031934e-13 
  271000          298 0.00099721412 7.2396719e-12 
  272000          298 0.0018840209 1.7289248e-11 
  273000          298 0.00010279288 9.7898683e-12 
  274000          298 0.00089637763 1.7227686e-11 
  275000          298 0.00053816071 1.7049041e-11 
  276000          298 0.00012235698 1.4337385e-11 
  277000          298 0.0016964291 1.8521202e-11 
  278000          298 6.6733393e-05 1.5636104e-11 
  279000          298 0.00095852697 1.3135038e-11 
  280000          298 0.00021767272 1.4397665e-11 
  281000          298 0.00051547908 1.0721363e-11 
  282000          298 0.00082613121 1.6581667e-11 
  283000          298 3.1372536e-05 9.392531e-12 
  284000          298 0.00069806983 5.1677841e-12 
  285000          298 0.00022830868 3.6149405e-12 
  286000          298 0.00010854328 -3.4602949e-12 
  287000          298  0.001000785 -4.3078928e-12 
  288000          298 0.0017446724 5.3605391e-12 
  289000          298 0.00033192737 -1.151709e-12 
  290000          298 0.0022877296 9.6293351e-12 
  291000          298 0.00012063928 4.9808693e-12 
  292000          298 0.00097556172 7.3781751e-12 
  293000          298 0.0015564837 1.7666638e-11 
  294000          298 0.00071845011 1.7478802e-11 
  295000          298 0.0005463409 1.1927603e-11 
  296000          298 0.0014834936 1.5834307e-11 
  297000          298 0.00047039117 1.072721e-11 
  298000          298 0.00087808461 2.0084561e-11 
  299000          298 0.0004623406 1.5574911e-11 
  300000          298 0.0011249969 2.2012364e-11 
  301000          298 0.00046878032 1.803575e-11 
  302000          298 0.0010078413 2.0054628e-11 
  303000          298 0.00018929528 2.2887216e-11 
  304000          298 0.0018045151 2.4031889e-11 
  305000          298 0.0010140619 2.7611676e-11 
  306000          298 0.0013698937 2.6256784e-11 
  307000          298 0.00012262244 2.3846423e-11 
  308000          298 0.0014916941 2.8289263e-11 
  309000          298 0.00047378552 2.975868e-11 
  310000          298 0.00027385124 2.3910503e-11 
  311000          298 0.00052986082 2.3545002e-11 
  312000          298 0.0012224641 2.181381e-11 
  313000          298 0.0016659733 2.9744175e-11 
  314000          298 0.00035533673 2.3557375e-11 
  315000          298 0.0014319134 2.4675844e-11 
  316000          298 0.00063110179 2.3940218e-11 
  317000          298 0.0006930438 2.2506841e-11 
  318000          298 0.00090967385 2.8535226e-11 
  319000          298 9.6462032e-05 2.3374595e-11 
  320000          298  0.001790367 2.8089792e-11 
  321000          298 0.00011453438 2.3342771e-11 
  322000          298 0.0022613814 3.0725369e-11 
  323000          298 0.00045277262 3.0300316e-11 
  324000          298 0.00061632673 2.8903952e-11 
  325000          298 0.0019144301 4.0854424e-11 
  326000          298 0.00051819642 3.632499e-11 
  327000          298 0.00014473617 3.5809241e-11 
  328000          298 0.00014463878 3.100359e-11 
  329000          298 0.00072822866  3.22391e-11 
  330000          298 8.4830608e-05  2.63811e-11 
  331000          298 0.00084992981 2.5587099e-11 
  332000          298 0.00045704986 2.4212285e-11 
  333000          298 0.00013346433  2.05734e-11 
  334000          298 0.0013611673 2.1537342e-11 
  335000          298 0.00070717363 2.2016408e-11 
  336000          298 0.00092664065 1.9320059e-11 
  337000          298 0.00019492755 1.6015349e-11 
  338000          298 0.0019033953 2.0974008e-11 
  339000          298 5.325492e-05 1.6601788e-11 
  340000          298 0.0016034492 2.1164583e-11 
  341000          298 0.0015617083 2.301154e-11 
  342000          298 0.00071311479 2.3226502e-11 
  343000          298 0.0014471072 3.0681192e-11 
  344000          298 0.00063928323 2.8919131e-11 
  345000          298 0.00068652725 2.6060356e-11 
  346000          298 0.0005143513 2.2535136e-11 
  347000          298 0.00095898061 2.2700132e-11 
  348000          298 0.0010044763 2.7760931e-11 
  349000          298 0.00010773028 2.4247312e-11 
  350000          298 0.00085675539 2.3549035e-11 
  351000          298 0.0009933903 2.4521009e-11 
  352000          298 0.0016318752 2.6482144e-11 
  353000          298 0.00046439603 2.8024402e-11 
  354000          298 0.0015757312 2.799775e-11 
  355000          298 0.00047965284 2.4131001e-11 
  356000          298 0.0011008588 2.4303305e-11 
  357000          298 0.00054679095 2.0061435e-11 
  358000          298 0.0017851812 2.5502529e-11 
  359000          298 0.0001996523 2.0521144e-11 
  360000          298  0.001494554 2.3767017e-11 
  361000          298 0.00018692395 2.1263274e-11 
  362000          298  0.002329137 2.6175339e-11 
  363000          298 0.00078386741 2.4235177e-11 
  364000          298 0.00046434105 2.398161e-11 
  365000          298 0.00016162969 2.0402437e-11 
  366000          298 0.0002512979 1.9466868e-11 
  367000          298 0.00037453736 1.7077209e-11 
  368000          298 0.00018114616 1.666548e-11 
  369000          298 0.00091934363 1.5565338e-11 
  370000          298 0.00035422307 1.7339001e-11 
  371000          298 0.0011479323 1.578319e-11 
  372000          298 0.00059639789 1.7746532e-11 
  373000          298 0.00052026225 1.6103401e-11 
  374000          298 0.0015968242 2.4066858e-11 
  375000          298 0.0011233839 2.2736549e-11 
  376000          298 0.00044408076 2.6193715e-11 
  377000          298 0.0023415687 3.0391679e-11 
  378000          298 0.00057301642 3.5056021e-11 
  379000          298 0.0022369832 4.1293779e-11 
  380000          298 0.00059104046 4.2527237e-11 
  381000          298 0.0012015895 4.6963748e-11 
  382000          298 0.00047596338 4.6058494e-11 
  383000          298 0.00014324235 4.0760854e-11 
  384000          298 0.00058280318 3.8455236e-11 
  385000          298 0.0005427092 3.5326409e-11 
  386000          298 0.00053846056 3.1697245e-11 
  387000          298 0.00086564872 3.3613358e-11 
  388000          298 6.3921328e-05 3.0347386e-11 
  389000          298 0.00071490254 2.9982787e-11 
  390000          298 0.00042609247 2.7159952e-11 
  391000          298 0.00019303913 2.694258e-11 
  392000          298 0.0012369213 2.6414997e-11 
  393000          298 0.00027294184 2.9142796e-11 
  394000          298 0.0013446851 2.8775921e-11 
  395000          298 0.00037439395 3.0213131e-11 
  396000          298 0.00094017111 2.8668884e-11 
  397000          298 0.00038464975 3.0206398e-11 
  398000          298 0.0015631816 2.991332e-11 
  399000          298 0.00076708582 3.0249363e-11 
  400000          298 0.0014312797 2.9758894e-11 
  401000          298 8.2907457e-05 2.781082e-11 
  402000          298 0.0027614228 3.5903058e-11 
  403000          298 0.00056686009 3.562208e-11 
  404000          298 0.0025094453 4.5057748e-11 
  405000          298 0.00063145209 4.4292582e-11 
  406000          298  0.002407229 5.4385097e-11 
  407000          298 0.00047759107 5.2096172e-11 
  408000          298 0.0020518638 6.0374487e-11 
  409000          298 0.0014407188 6.0775197e-11 
  410000          298 0.00026547058 6.141733e-11 
  411000          298 0.0013839854 6.0814198e-11 
  412000          298 0.00073488189 5.9991239e-11 
  413000          298 0.00093955409 5.9417389e-11 
  414000          298 0.00070844181 5.6950543e-11 
  415000          298 0.00064876307 5.9892704e-11 
  416000          298 0.0011284296 5.8525523e-11 
  417000          298 0.0010593649 6.1429061e-11 
  418000          298 0.00060187162 5.8602336e-11 
  419000          298 0.00063520335 5.8952253e-11 
  420000          298 0.0005062089 5.8262313e-11 
  421000          298 0.00041340984 5.5761727e-11 
  422000          298 0.0016279681 5.9640858e-11 
  423000          298 0.00085063036 5.9335296e-11 
  424000          298 0.0017632143 6.2630806e-11 
  425000          298 0.0004119624 6.3746554e-11 
  426000          298 0.0015261275 6.3485039e-11 
  427000          298 0.00079694616 6.0737936e-11 
  428000          298 0.0016061379 6.4577377e-11 
  429000          298 0.00042949425 6.1421612e-11 
  430000          298 0.0014034538 6.595194e-11 
  431000          298 0.0004208647 6.3213712e-11 
  432000          298 0.00034306731 6.400118e-11 
  433000          298 0.00078792723 6.2552191e-11 
  434000          298 0.00016508892 6.3674425e-11 
  435000          298  0.001238162 6.2928431e-11 
  436000          298 0.00013964689 6.1979945e-11 
  437000          298 0.0023331986 6.4063468e-11 
  438000          298 0.00058147444 6.2255396e-11 
  439000          298 0.00087584918 6.0255075e-11 
  440000          298 0.00040903243 5.8866276e-11 
  441000          298 0.00098440345 6.0632279e-11 
  442000          298  0.001766522 6.1098214e-11 
  443000          298 0.00076163224 6.4033296e-11 
  444000          298 0.0011992809 6.5742385e-11 
  445000          298 0.0022238634 6.8281394e-11 
  446000          298 0.0001187432 6.5920639e-11 
  447000          298 0.0019364537 6.8048023e-11 
  448000          298 0.00012052798 6.4509449e-11 
  449000          298 0.00093774138 6.6297887e-11 
  450000          298 0.0002311897 6.4290029e-11 
  451000          298 0.00076005539 6.4594498e-11 
  452000          298 0.0015582842 6.5621955e-11 
  453000          298 0.00063806159 6.4568682e-11 
  454000          298 0.0005656523 6.4284103e-11 
  455000          298 0.0020611414 6.7451447e-11 
  456000          298  0.001195653 6.7478271e-11 
  457000          298 0.00058309181 6.8341753e-11 
  458000          298 0.0016541583 7.0034109e-11 
  459000          298 0.00064368074 7.0137934e-11 
  460000          298  0.001423315 6.9394299e-11 
  461000          298  0.000345786 7.0920609e-11 
  462000          298 0.0014821789 7.1248867e-11 
  463000          298 0.0014301769 7.1248312e-11 
  464000          298 0.0010782091 7.2892711e-11 
  465000          298 0.00017225302 7.0470882e-11 
  466000          298 0.0015165599 7.3150889e-11 
  467000          298 0.00021669199 7.001167e-11 
  468000          298   0.00197854 7.2680221e-11 
  469000          298 0.00020568752 6.9133741e-11 
  470000          298 0.0011726194 7.0869454e-11 
  471000          298 0.00018737902 6.7444354e-11 
  472000          298 0.00086738723 6.8944484e-11 
  473000          298 0.00019682909 6.5566799e-11 
  474000          298 0.00094243406 6.8022221e-11 
  475000          298 0.00013855674 6.5327232e-11 
  476000          298 6.3685559e-05 6.5075661e-11 
  477000          298 0.0011952619 6.4840069e-11 
  478000          298 7.8223094e-05 6.4864877e-11 
  479000          298 0.0024120687 6.6439308e-11 
  480000          298 0.00050992432 6.4702494e-11 
  481000          298 0.00099861358 6.5348352e-11 
  482000          298 0.0015353701 6.7116723e-11 
  483000          298 0.00037492147 6.4802283e-11 
  484000          298 0.0010329777 6.4166618e-11 
  485000          298 0.00030784129 6.3502231e-11 
  486000          298 0.00056983729 6.1343029e-11 
  487000          298 0.00091015435 6.3130527e-11 
  488000          298 0.00010061283 5.9857803e-11 
  489000          298 0.00059056243 5.8615371e-11 
  490000          298 0.00029885967 5.7734823e-11 
  491000          298 0.00045812634 5.5821503e-11 
  492000          298 0.0018300415 5.6440191e-11 
  493000          298 0.00010414153 5.5331501e-11 
  494000          298 0.0012377609 5.6746823e-11 
  495000          298 0.00046403324 5.6625753e-11 
  496000          298 0.00033739331 5.4205964e-11 
  497000          298 0.00093318106 5.6123622e-11 
  498000          298 0.0003366709 5.3593348e-11 
  499000          298 0.00071450489 5.495054e-11 
  500000          298 0.00029762603 5.211241e-11 
  501000          298 0.0016973971 5.4624236e-11 
  502000          298 0.00047399464 5.2892541e-11 
  503000          298 0.0019958269 5.4899332e-11 
  504000          298 0.00026823717 5.2739293e-11 
  505000          298 0.0022255121 5.433048e-11 
  506000          298 8.7752717e-05 5.1504543e-11 
  507000          298  0.002124987 5.4176638e-11 
  508000          298 0.00035965143 5.2661119e-11 
  509000          298 0.0021292107 5.5170774e-11 
  510000          298 2.7246449e-05 5.2214384e-11 
  511000          298 0.0012082314 5.4510539e-11 
  512000          298 9.9400786e-05 5.225159e-11 
  513000          298 0.0001376052 5.1593346e-11 
  514000          298 0.00069494213 5.0027582e-11 
  515000          298 3.2710144e-05 4.9599515e-11 
  516000          298 0.0012748368 4.9235043e-11 
  517000          298 0.00028722994 4.7883475e-11 
  518000          298 0.0018022348 4.8157713e-11 
  519000          298 0.00033589278 4.6659606e-11 
  520000          298 0.0014101442 4.6239518e-11 
  521000          298 0.00053210188 4.3988112e-11 
  522000          298 0.0010106678 4.4957494e-11 
  523000          298 0.00010179958 4.2861527e-11 
  524000          298 0.00015210331 4.2693008e-11 
  525000          298 0.0012772966 4.2375714e-11 
  526000          298 0.0001040262 4.3063831e-11 
  527000          298 0.0019705811 4.3739105e-11 
  528000          298 0.00010383738 4.2841261e-11 
  529000          298 0.0018202429 4.3223326e-11 
  530000          298 0.00050575193 4.2366974e-11 
  531000          298 0.0010913146 4.148767e-11 
  532000          298 0.0017587737  4.24274e-11 
  533000          298 0.0010927489 4.3456684e-11 
  534000          298 0.00018828261 4.1984262e-11 
  535000          298 0.00024640653 3.9515609e-11 
  536000          298 0.0017594404 4.0811167e-11 
  537000          298 0.0002138613 4.0607847e-11 
  538000          298 0.00057017073 3.9669044e-11 
  539000          298 0.0018124894 4.1975998e-11 
  540000          298 0.00069253914 4.1217494e-11 
  541000          298 0.0012459165 4.1083705e-11 
  542000          298 0.00078389719 4.3051984e-11 
  543000          298 0.0005845131 4.1169853e-11 
  544000          298 0.00055908602 4.2328364e-11 
  545000          298 0.00022263817 4.0086325e-11 
  546000          298 0.0012476957 4.2266782e-11 
  547000          298 0.00055547721 4.0801868e-11 
  548000          298 0.00050475517 4.0838123e-11 
  549000          298 0.0010611115 4.2309506e-11 
  550000          298 7.7982012e-05 4.2308896e-11 
  551000          298 0.00089974382 4.1404465e-11 
  552000          298 0.00019353488 4.121212e-11 
  553000          298 0.0017631769 4.1360158e-11 
  554000          298 0.00036368522 4.0207137e-11 
  555000          298 0.0016615467 4.0547966e-11 
  556000          298 0.00062756338 4.0000372e-11 
  557000          298 0.0017758266 4.0511522e-11 
  558000          298 0.00058215194 3.9341103e-11 
  559000          298 0.00066795458 4.136552e-11 
  560000          298 0.0019862223 4.2653751e-11 
  561000          298 0.00029708388 4.1166589e-11 
  562000          298 0.0017469111 4.2816678e-11 
  563000          298 7.5082519e-05 4.095439e-11 
  564000          298 0.0015963017 4.2393683e-11 
  565000          298 0.0018064561 4.3033114e-11 
  566000          298 0.00010159221 4.310156e-11 
  567000          298 0.00081163431 4.2946051e-11 
  568000          298 0.00018523339 4.2615301e-11 
  569000          298  0.001983453 4.3165299e-11 
  570000          298 0.00046111364 4.2584498e-11 
  571000          298 0.00098165546 4.4299512e-11 
  572000          298 0.0011735046 4.3472768e-11 
  573000          298 0.0011061345 4.4894174e-11 
  574000          298 0.00044469106 4.2994553e-11 
  575000          298 0.00048583569 4.4224699e-11 
  576000          298 0.0004880957 4.3713441e-11 
  577000          298 0.0014956253 4.4116708e-11 
  578000          298 0.00036616413 4.3796306e-11 
  579000          298 0.0013515504 4.3449322e-11 
  580000          298 0.00048822927 4.3503493e-11 
  581000          298 0.00086413402 4.453738e-11 
  582000          298 0.0019715822 4.5729752e-11 
  583000          298 0.00062878662 4.6029954e-11 
  584000          298 0.00017513948 4.4672631e-11 
  585000          298 0.00084275338 4.472642e-11 
  586000          298 0.0016021407 4.5056944e-11 
  587000          298 0.00034537273 4.3776765e-11 
  588000          298 0.0013243106 4.6217982e-11 
  589000          298 0.0015163636 4.6324919e-11 
  590000          298 0.00026762176 4.6352183e-11 
  591000          298 0.0018014601 4.7984196e-11 
  592000          298 0.0012162876 4.8320702e-11 
  593000          298 0.00097957553 4.8340378e-11 
  594000          298 0.00045041663 4.9516932e-11 
  595000          298 0.00090390173 4.8344892e-11 
  596000          298 0.00061193894 4.8831512e-11 
  597000          298 0.00073131006 4.7364365e-11 
  598000          298 0.00065957836 4.770405e-11 
  599000          298 0.00066524654 4.6429132e-11 
  600000          298 0.0021252795 4.8458753e-11 
  601000          298 0.00083994458 4.8146448e-11 
  602000          298 0.00044799317 4.8554112e-11 
  603000          298 0.0022295643 5.0695184e-11 
  604000          298 0.00034176694 4.9126064e-11 
  605000          298 0.0010511234 4.9675386e-11 
  606000          298 0.0024744432 5.3991311e-11 
  607000          298  0.001190396 5.4194361e-11 
  608000          298 0.00023052506 5.2743543e-11 
  609000          298 0.00035752841 5.1709836e-11 
  610000          298 0.00016063711 5.0892125e-11 
  611000          298 0.00071127117 5.038018e-11 
  612000          298 0.0002979811 4.9792133e-11 
  613000          298 0.00030723059  4.82165e-11 
  614000          298 0.00067910924 4.8845888e-11 
  615000          298 0.00013656513 4.7270351e-11 
  616000          298 0.00010537024 4.7001885e-11 
  617000          298 0.00092405218 4.6259259e-11 
  618000          298 0.00028863288 4.6756527e-11 
  619000          298 0.00062907964 4.5402065e-11 
  620000          298 0.00079081371 4.6139406e-11 
  621000          298 0.00034362429 4.4580606e-11 
  622000          298 0.00094741336  4.59734e-11 
  623000          298 0.00016051185 4.3912461e-11 
  624000          298  0.001700732 4.4685989e-11 
  625000          298 0.00036428113 4.3443583e-11 
  626000          298 0.0019175001 4.4152393e-11 
  627000          298 0.00021583823 4.3037056e-11 
  628000          298 0.0017209114 4.3080079e-11 
  629000          298 0.0003330643 4.2557378e-11 
  630000          298 0.0011694666 4.1789318e-11 
  631000          298 0.00036825586 4.0774305e-11 
  632000          298 0.0009887208 4.0027662e-11 
  633000          298 0.00056629867 3.9430804e-11 
  634000          298 0.00059513816 3.8096713e-11 
  635000          298 0.0018904434 3.9174459e-11 
  636000          298 0.00059313233 3.8707065e-11 
  637000          298 0.00085956756 3.9187601e-11 
  638000          298  0.001128815 4.0629139e-11 
  639000          298 0.00073227107 3.9426006e-11 
  640000          298 0.00020126677 3.8475524e-11 
  641000          298 0.00091426037 3.7968586e-11 
  642000          298 0.00012300249 3.6670098e-11 
  643000          298 0.0011824254 3.6795734e-11 
  644000          298 9.5163613e-05 3.646598e-11 
  645000          298 0.00086226898 3.562725e-11 
  646000          298 0.0001832017 3.5845476e-11 
  647000          298 0.00077802374 3.5112399e-11 
  648000          298 0.00047232569 3.5306869e-11 
  649000          298 0.00025334866 3.3699863e-11 
  650000          298 0.0012116659 3.4708087e-11 
  651000          298 0.00022030604 3.3147527e-11 
  652000          298 0.0013910702 3.3680595e-11 
  653000          298 0.00032894898 3.2340033e-11 
  654000          298 0.0016252384 3.2354171e-11 
  655000          298 0.00039967418 3.203541e-11 
  656000          298 0.0014104344 3.2001039e-11 
  657000          298 0.0015936525 3.2666363e-11 
  658000          298 0.0012873436 3.2968043e-11 
  659000          298 0.00035616624 3.1751059e-11 
  660000          298 0.00099730374 3.1466719e-11 
  661000          298 0.00029177051 3.0097726e-11 
  662000          298 0.0010598968 2.9601479e-11 
  663000          298 0.00039231752 2.8583537e-11 
  664000          298 0.0010269152 2.8069943e-11 
  665000          298 0.00015108866 2.6617393e-11 
  666000          298 0.0019532374 2.8554938e-11 
  667000          298 0.0015729842 2.8742193e-11 
  668000          298  0.001095499 3.0926572e-11 
  669000          298 0.0017098752 3.0984434e-11 
  670000          298 0.0010491433 3.2840376e-11 
  671000          298 0.00076860961 3.2765239e-11 
  672000          298 0.0024889268 3.4167516e-11 
  673000          298 2.1587102e-05 3.2877389e-11 
  674000          298 0.0011342701 3.3458533e-11 
  675000          298 0.00079572559 3.410266e-11 
  676000          298 0.00015649121 3.3911456e-11 
  677000          298 0.0023753615 3.4818131e-11 
  678000          298 0.00031112008 3.4229472e-11 
  679000          298 0.00093053108 3.5171851e-11 
  680000          298  0.001298898 3.4692759e-11 
  681000          298 0.0013210711 3.6163909e-11 
  682000          298 0.00051957392 3.5140753e-11 
  683000          298  0.001322816 3.6692287e-11 
  684000          298 0.00041047296 3.5667025e-11 
  685000          298 0.0012645355 3.6276925e-11 
  686000          298 0.00024434022  3.46745e-11 
  687000          298 0.00031991857 3.5517805e-11 
  688000          298 0.00088146279 3.4614915e-11 
  689000          298 8.2450228e-05 3.459758e-11 
  690000          298 0.0017099483 3.4677557e-11 
  691000          298 0.00057293823 3.4363528e-11 
  692000          298 0.00014212868 3.3162957e-11 
  693000          298 0.00073626066 3.2047776e-11 
  694000          298 0.0016804163 3.311876e-11 
  695000          298 0.00041337051 3.2240915e-11 
  696000          298 0.0001056304 3.1073864e-11 
  697000          298 0.00045716184 2.9776477e-11 
  698000          298 0.0011796538 3.0140931e-11 
  699000          298 0.00020421288 3.0083329e-11 
  700000          298 0.00047228223  2.93336e-11 
  701000          298 0.00097115159 3.0105056e-11 
  702000          298 0.00042947326 2.9266266e-11 
  703000          298 0.00066837009 2.8227197e-11 
  704000          298 0.00089283174 2.7490161e-11 
  705000          298 0.00063492955 2.7228088e-11 
  706000          298 0.0014320765 2.8711063e-11 
  707000          298 1.6735891e-05 2.8422871e-11 
  708000          298 0.0013963242 2.838409e-11 
  709000          298 0.00019429559 2.8622233e-11 
  710000          298 0.0012771296 2.8559285e-11 
  711000          298 0.00038977922 2.8988018e-11 
  712000          298 0.0016178227 2.9160737e-11 
  713000          298 0.00075132208 2.9225008e-11 
  714000          298 0.0015937552 2.9783952e-11 
  715000          298 0.00080537177 2.9703697e-11 
  716000          298 0.0012238051 3.0924304e-11 
  717000          298 0.00047401282 3.0103847e-11 
  718000          298  0.000100142 2.8674276e-11 
  719000          298 0.00065048607 2.7920859e-11 
  720000          298 0.0012967909 2.8702721e-11 
  721000          298 0.00082944103 2.8390408e-11 
  722000          298 0.0016503722 2.8544336e-11 
  723000          298 0.00012896721 2.7706874e-11 
  724000          298 0.0016777195 2.8304594e-11 
  725000          298 0.00047788356 2.8468347e-11 
  726000          298  0.001539426 2.8547803e-11 
  727000          298 0.00040491872 2.7489023e-11 
  728000          298 0.00057039666 2.6494604e-11 
  729000          298 0.00071192492 2.6581543e-11 
  730000          298 0.0016779271 2.8382441e-11 
  731000          298 0.00077506402 2.836993e-11 
  732000          298 0.00065254471 2.7382147e-11 
  733000          298 0.00072632518 2.8326062e-11 
  734000          298 0.00039039769 2.7043738e-11 
  735000          298 0.0014667812 2.8064201e-11 
  736000          298 0.0005572924 2.8215609e-11 
  737000          298 0.00012444112 2.7621966e-11 
  738000          298 0.00039510823 2.6766214e-11 
  739000          298 0.00050005387 2.6602501e-11 
  740000          298 0.00044791552 2.564814e-11 
  741000          298 0.00010620098 2.4372355e-11 
  742000          298 0.00044089807 2.3451341e-11 
  743000          298 0.00079056069 2.274243e-11 
  744000          298 0.0007510956 2.366115e-11 
  745000          298 0.00068435353 2.3032826e-11 
  746000          298 0.00084838623 2.2740695e-11 
  747000          298 0.00073151993 2.2876219e-11 
  748000          298 0.00022070666 2.1916576e-11 
  749000          298  0.001726461 2.3455503e-11 
  750000          298 0.00040570541 2.342284e-11 
  751000          298 0.0006020325 2.2471121e-11 
  752000          298  0.001072602 2.2034238e-11 
  753000          298 0.00024832927 2.2010862e-11 
  754000          298 0.0020287082 2.3120624e-11 
  755000          298 0.00092924112 2.378526e-11 
  756000          298 0.00099259645 2.3411521e-11 
  757000          298 0.00012264544 2.3323855e-11 
  758000          298   0.00203072 2.3635227e-11 
  759000          298 0.00038357261 2.3226896e-11 
  760000          298 0.0020845375 2.3699231e-11 
  761000          298 0.00042296421 2.3157519e-11 
  762000          298 0.0013300858 2.3029048e-11 
  763000          298 0.00069776952 2.2174093e-11 
  764000          298 0.0013936568 2.3117829e-11 
  765000          298 5.5539842e-05 2.2240681e-11 
  766000          298 0.00019690271 2.1021228e-11 
  767000          298 0.00050623308 2.0690931e-11 
  768000          298 0.00069840335 2.0112314e-11 
  769000          298 0.00040654604 2.004877e-11 
  770000          298 0.0003493852 1.8857798e-11 
  771000          298 0.0012509282  1.91174e-11 
  772000          298 0.00028837025  1.85679e-11 
  773000          298  0.001477283  1.86076e-11 
  774000          298 0.00040246349 1.9077896e-11 
  775000          298 0.0014831496 1.8981701e-11 
  776000          298 0.00031160516 1.9094162e-11 
  777000          298 0.0015845214 1.9028467e-11 
  778000          298 0.00043224309 1.8294744e-11 
  779000          298 0.0014081286 1.8185601e-11 
  780000          298 0.00037309226 1.7182697e-11 
  781000          298 0.0016917362 1.8807817e-11 
  782000          298 0.00085916158 1.852562e-11 
  783000          298 0.0015262037 1.8805407e-11 
  784000          298 0.00076401003 1.9346523e-11 
  785000          298 0.00036858058 1.8526842e-11 
  786000          298 0.0011519055 1.9087693e-11 
  787000          298 0.00028229957 1.8835347e-11 
  788000          298 0.0010628028 1.8621528e-11 
  789000          298 0.00091420292 1.8790174e-11 
  790000          298 0.00014805741 1.7676716e-11 
  791000          298 0.0012350911 1.8634703e-11 
  792000          298 0.00043351484 1.7674478e-11 
  793000          298 0.0014429898 1.8872641e-11 
  794000          298 0.00024109962 1.7718328e-11 
  795000          298  0.001108355 1.8244257e-11 
  796000          298 0.00040566104 1.7577999e-11 
  797000          298 0.00028132503 1.6515329e-11 
  798000          298 0.00018179982 1.5764517e-11 
  799000          298 0.00031895628 1.4863454e-11 
  800000          298 0.00057356028  1.53014e-11 
  801000          298 0.0012476246 1.5094055e-11 
  802000          298 0.0015222983 1.5531357e-11 
  803000          298 0.00028829838 1.4708915e-11 
  804000          298 0.0017139879 1.4825431e-11 
  805000          298 0.00032593472 1.3860552e-11 
  806000          298 0.0014314291 1.3979235e-11 
  807000          298 0.0011019661 1.4160139e-11 
  808000          298 0.00031553151 1.3261607e-11 
  809000          298 0.00032469178 1.3144702e-11 
  810000          298 0.00055109807 1.2844351e-11 
  811000          298 6.5418097e-05 1.2355562e-11 
  812000          298 0.00045531943 1.1718194e-11 
  813000          298 0.0010546185 1.1855881e-11 
  814000          298 0.00035803033 1.1115526e-11 
  815000          298 0.00085399892 1.0535185e-11 
  816000          298 0.0010909361 1.0809588e-11 
  817000          298 0.0010696906 1.1083679e-11 
  818000          298 0.0003938956 1.0516406e-11 
  819000          298 0.0006551144 9.9327251e-12 
  820000          298 0.00022115393 9.4692565e-12 
  821000          298 0.00074072528 8.9906533e-12 
  822000          298 0.00012535641 8.3492662e-12 
  823000          298 0.0017484944 8.8923252e-12 
  824000          298 0.00037982048 8.6603161e-12 
  825000          298 0.0017322799 8.9008019e-12 
  826000          298 0.00028356819 9.0694458e-12 
  827000          298 0.00049865395 8.3063763e-12 
  828000          298 0.00065465411 8.6731996e-12 
  829000          298 0.0006300248 7.9567534e-12 
  830000          298 0.00090532816 8.7639115e-12 
  831000          298 0.00029970813 7.8962393e-12 
  832000          298 0.0019157697 9.0581444e-12 
  833000          298 0.0001399547 8.3554714e-12 
  834000          298 0.0020241105 9.0344885e-12 
  835000          298 0.00073579528 9.1786459e-12 
  836000          298 0.00091096077 8.7577388e-12 
  837000          298 0.0014168649 1.0420481e-11 
  838000          298  0.001734992 1.0644376e-11 
  839000          298 0.00027872162 1.0770335e-11 
  840000          298 0.0026498884 1.2248784e-11 
  841000          298 0.00061245321 1.2697558e-11 
  842000          298 0.00019690777 1.2215343e-11 
  843000          298 0.0009370269 1.2235356e-11 
  844000          298 0.00069120947 1.2524406e-11 
  845000          298 0.00044587062 1.1659971e-11 
  846000          298 0.00083409943 1.1846692e-11 
  847000          298 0.00038266294 1.1022216e-11 
  848000          298 0.00022461769 1.015087e-11 
  849000          298 0.0003937772 9.3727753e-12 
  850000          298 0.0010224711 9.1429633e-12 
  851000          298 0.00042937841 8.6749974e-12 
  852000          298  0.001118422 8.4148729e-12 
  853000          298 0.00027501992 8.0258142e-12 
  854000          298 0.00086567525 7.5131291e-12 
  855000          298 0.00030019925 7.3512785e-12 
  856000          298 0.00053697064 6.7897018e-12 
  857000          298 0.00088503535 6.8982234e-12 
  858000          298 0.00074072476 7.4060854e-12 
  859000          298 0.00093053331 7.6182127e-12 
  860000          298  0.002087442 8.6314045e-12 
  861000          298 3.9846181e-05 7.7266553e-12 
  862000          298 0.00093814241 8.4013586e-12 
  863000          298 0.00051837041 8.3340216e-12 
  864000          298 0.00010942886 7.9162553e-12 
  865000          298  0.001500139 8.330262e-12 
  866000          298 0.00049640598 8.5588234e-12 
  867000          298 0.00086458782 8.0659818e-12 
  868000          298  0.001091892 8.8984387e-12 
  869000          298 0.0010842547 9.0468452e-12 
  870000          298 0.0015795574 9.7653356e-12 
  871000          298 0.0011866259 1.0069583e-11 
  872000          298 0.0011696336 1.0343434e-11 
  873000          298 0.00082820202 1.1135168e-11 
  874000          298 0.00092379445 1.065143e-11 
  875000          298 0.0014878899 1.1425347e-11 
  876000          298 0.00032154269 1.0726007e-11 
  877000          298 0.0011760401 1.0714134e-11 
  878000          298  0.000701914 1.0795436e-11 
  879000          298 8.9517727e-05 9.9858897e-12 
  880000          298 0.00084067963 9.7360387e-12 
  881000          298 0.00013895359 9.5825241e-12 
  882000          298 0.00037057037 8.9814047e-12 
  883000          298 0.00063709939 8.6513994e-12 
  884000          298  0.001109517  8.48606e-12 
  885000          298 0.0011323837 8.7823097e-12 
  886000          298 0.00029002439 8.1781594e-12 
  887000          298 0.0015536611 8.2524495e-12 
  888000          298 0.00023809175 7.475914e-12 
  889000          298 0.0013474585 7.3874763e-12 
  890000          298 0.00029972602 6.7287442e-12 
  891000          298 0.00046018015 6.1441977e-12 
  892000          298 0.00032766669 6.0785633e-12 
  893000          298 0.0001993592 5.2304391e-12 
  894000          298 0.0012745866 5.2763566e-12 
  895000          298 0.00031121166 4.6427121e-12 
  896000          298 0.00034258198 4.0259816e-12 
  897000          298 0.00052093197 4.023187e-12 
  898000          298 1.3695194e-05 3.1865873e-12 
  899000          298 0.0012275503 3.3499457e-12 
  900000          298 0.0001541811 2.6724326e-12 
  901000          298 0.0011726768 2.5978725e-12 
  902000          298 0.00057223902 2.4734851e-12 
  903000          298 2.9651016e-05 1.5648278e-12 
  904000          298 0.00054018988 1.2008783e-12 
  905000          298 0.0017290017 1.5630162e-12 
  906000          298 0.00053854616 1.4938866e-12 
  907000          298 0.0012555076 1.2681721e-12 
  908000          298 0.0011819873 1.8623817e-12 
  909000          298 8.9006355e-05 1.3689769e-12 
  910000          298 0.0026075876 2.961376e-12 
  911000          298 0.00024587687 2.458496e-12 
  912000          298 0.00047391489 2.5917696e-12 
  913000          298 0.0001942392 1.8274761e-12 
  914000          298 0.0013967498 1.9658202e-12 
  915000          298 0.00062535416 1.4680889e-12 
  916000          298 0.0015758238 2.884612e-12 
  917000          298 0.0015597251 2.9508577e-12 
  918000          298 0.00076556805 3.9100828e-12 
  919000          298 0.0015124963 4.0287767e-12 
  920000          298 0.0013695211 4.5940971e-12 
  921000          298 9.5508663e-05 3.7964642e-12 
  922000          298 0.00090139064 4.6143373e-12 
  923000          298 0.00083723765 4.1812837e-12 
  924000          298 0.0013509806 4.8119804e-12 
  925000          298 0.00049304463 4.8231509e-12 
  926000          298 0.00016768565 4.2118242e-12 
  927000          298 0.0005340902 3.8165519e-12 
  928000          298 0.00036139486 3.2221009e-12 
  929000          298 0.0011659811 3.1831651e-12 
  930000          298 0.00071200734 3.0955964e-12 
  931000          298 0.00048234152 2.5538793e-12 
  932000          298 0.0016106736 3.2698001e-12 
  933000          298 0.00099952464 3.5375414e-12 
  934000          298 0.00078438144 3.652971e-12 
  935000          298 0.0011032434 4.4608556e-12 
  936000          298 0.00052783567 3.8767009e-12 
  937000          298 0.0011272978 4.5141354e-12 
  938000          298 0.00066794167 4.138273e-12 
  939000          298 0.00061067673 4.2075059e-12 
  940000          298 0.0019559361 5.1707943e-12 
  941000          298 0.00064070562 4.8550661e-12 
  942000          298 0.0011986854 4.7742796e-12 
  943000          298 0.00043347696 4.8223077e-12 
  944000          298 0.0016388041 5.7306983e-12 
  945000          298 0.00088622108 5.3416755e-12 
  946000          298  0.001038309 5.202136e-12 
  947000          298 0.00035332232 5.0451041e-12 
  948000          298 0.00070939727 5.6942409e-12 
  949000          298 0.00080834527 5.2792208e-12 
  950000          298 0.0012097114 5.9720662e-12 
  951000          298 0.00027520085 5.3135582e-12 
  952000          298 0.0023105966 6.1386994e-12 
  953000          298 0.00024967981 5.6966583e-12 
  954000          298 0.00025395903 5.6744127e-12 
  955000          298 7.3202687e-05 5.1142503e-12 
  956000          298 0.00050423798 5.1628423e-12 
  957000          298 0.00028595163 4.5761733e-12 
  958000          298 0.00033651047 4.7255197e-12 
  959000          298 0.00053209408 4.3339953e-12 
  960000          298 0.00018465521 4.0707352e-12 
  961000          298 0.00043998203 3.6099444e-12 
  962000          298 0.0010860186 4.0158433e-12 
  963000          298 0.00088403696 3.9885585e-12 
  964000          298 0.00025339727 3.3972996e-12 
  965000          298 0.00015263327 2.8225022e-12 
  966000          298 0.00074104393 2.8731984e-12 
  967000          298 0.0001413738 2.1211807e-12 
  968000          298 0.0012276856 2.300328e-12 
  969000          298 0.00068754042 2.4782147e-12 
  970000          298 0.0014332237 2.5540817e-12 
  971000          298 0.00028900647 2.3296074e-12 
  972000          298 0.00017245184 2.0596337e-12 
  973000          298 0.0020556387 2.8072811e-12 
  974000          298 0.00058662589 2.5634112e-12 
  975000          298 0.00094227416 3.3501302e-12 
  976000          298 0.0012292883 3.4172764e-12 
  977000          298  0.000535755 3.1170675e-12 
  978000          298 0.00062157108 2.7879226e-12 
  979000          298  0.001195098 2.9234456e-12 
  980000          298 0.00083042256 3.4417872e-12 
  981000          298 0.00035159219 3.3275922e-12 
  982000          298 0.0011187787 3.3220821e-12 
  983000          298 0.00051148408 3.329825e-12 
  984000          298 0.0010671606 3.0780452e-12 
  985000          298 0.00060581493 3.5129944e-12 
  986000          298 0.0010796652 3.6442446e-12 
  987000          298 0.0022638164 4.5553082e-12 
  988000          298 0.00043701748 4.5437431e-12 
  989000          298 0.0017686547 5.4807026e-12 
  990000          298 0.0020347001 6.0150907e-12 
  991000          298 0.00020415786 5.7463548e-12 
  992000          298 0.0012074895 5.8530923e-12 
  993000          298 0.00055586197 5.9163474e-12 
  994000          298 0.00054054037 5.9218418e-12 
  995000          298 0.0014928383 5.9552774e-12 
  996000          298 0.00028980073 6.0998149e-12 
  997000          298 0.0017039763 6.2094469e-12 
  998000          298 0.00047683942 6.1060437e-12 
  999000          298 0.00098752423 5.8197536e-12 
 1000000          298 0.0010595081 6.0459594e-12 
Loop time of 1022.58 on 1 procs for 1000000 steps with 2431 atoms

Performance: 84.492 ns/day, 0.284 hours/ns, 977.922 timesteps/s
99.9% CPU use with 1 MPI tasks x no OpenMP threads

MPI task timing breakdown:
Section |  min time  |  avg time  |  max time  |%varavg| %total
---------------------------------------------------------------
Pair    | 19.424     | 19.424     | 19.424     |   0.0 |  1.90
Bond    | 745.74     | 745.74     | 745.74     |   0.0 | 72.93
Neigh   | 165.1      | 165.1      | 165.1      |   0.0 | 16.15
Comm    | 61.273     | 61.273     | 61.273     |   0.0 |  5.99
Output  | 2.8191     | 2.8191     | 2.8191     |   0.0 |  0.28
Modify  | 9.5961     | 9.5961     | 9.5961     |   0.0 |  0.94
Other   |            | 18.62      |            |       |  1.82

Nlocal:    2431 ave 2431 max 2431 min
Histogram: 1 0 0 0 0 0 0 0 0 0
Nghost:    16166 ave 16166 max 16166 min
Histogram: 1 0 0 0 0 0 0 0 0 0
Neighs:    1180 ave 1180 max 1180 min
Histogram: 1 0 0 0 0 0 0 0 0 0

Total # of neighbors = 1180
Ave neighs/atom = 0.485397
Ave special neighs/atom = 6.58988
Neighbor list builds = 2357
Dangerous builds = 0
unfix           3
unfix           4
undump          NiPyC2_experiment_with_Xe_xyzmov


Total wall time: 0:19:55
