
# --------------------------------- Initialization -------------------------------------- #
units           real
atom_style      full
boundary        p p p

pair_style      lj/cut 14.000
bond_style      harmonic
angle_style     cosine/periodic
dihedral_style  harmonic
improper_style  fourier

special_bonds   lj/coul 0.0 0.0 1.0
#dielectric      1.0
pair_modify     tail yes mix arithmetic
box tilt        large
read_data       data.Pn_Ni-PyC-NH2_with_Xe
  triclinic box = (0 0 0) to (31.854 35.6358 28.3672) with tilt (0 0.013863 0)
  1 by 1 by 1 MPI processor grid
  reading atoms ...
  2233 atoms
  scanning bonds ...
  6 = max bonds/atom
  scanning angles ...
  15 = max angles/atom
  scanning dihedrals ...
  12 = max dihedrals/atom
  scanning impropers ...
  3 = max impropers/atom
  reading bonds ...
  2592 bonds
  reading angles ...
  4824 angles
  reading dihedrals ...
  5184 dihedrals
  reading impropers ...
  3456 impropers
  6 = max # of 1-2 neighbors
  9 = max # of 1-3 neighbors
  12 = max # of special neighbors
  special bonds CPU = 0.0008595 secs
  read_data CPU = 0.024852 secs

#### Atom Groupings ####
group           xe       id   2233
1 atoms in group xe
group           fram     id   1:2232
2232 atoms in group fram
#### END Atom Groupings ####

###
# Speed up Calculations by exluding framework-framework interactions
#   since we are keeping the framework rigid and stationary
#
# neigh_modify keyword values ...
# keyword = exclude
# values  = group group1-ID group2-ID
#
# group1-ID, group2-ID = exclude if one atom is in 1st group, other in 2nd
###
neigh_modify exclude group fram fram

# ----------------------------- Variables ---------------------- #
dump            Pn_Ni-PyC-NH2_with_Xe_xyzmov all xyz 1000 Pn_Ni-PyC-NH2_with_Xe_mov.xyz
dump_modify     Pn_Ni-PyC-NH2_with_Xe_xyzmov element Ni O C H N Xe
variable        dt         equal 1.00
variable        tdamp      equal 100*${dt}
variable        tdamp      equal 100*1
variable        eqtemp     equal 298.00

# ------------------------------ Equilibriation -------------------------------------------- #
# we do not need to perform equilibriation since we are using a rigid framework
# and the (single) adsorbate has already been inserted into the material via GCMC
# which already included an equilibriation phase.
fix             1 xe langevin ${eqtemp} ${eqtemp} ${tdamp} 879143
fix             1 xe langevin 298 ${eqtemp} ${tdamp} 879143
fix             1 xe langevin 298 298 ${tdamp} 879143
fix             1 xe langevin 298 298 100 879143
fix             2 xe nve
#fix             3 fram langevin 298.00 298.00 ${tdamp} 1500201
#fix             4 fram nve
thermo          1000
run             200000
Neighbor list info ...
  update every 1 steps, delay 10 steps, check yes
  max neighbors/atom: 2000, page size: 100000
  master list distance cutoff = 16
  ghost atom cutoff = 16
  binsize = 8, bins = 4 5 4
  1 neighbor lists, perpetual/occasional/extra = 1 0 0
  (1) pair lj/cut, perpetual
      attributes: half, newton on
      pair build: half/bin/newton/tri
      stencil: half/bin/3d/newton/tri
      bin: standard
WARNING: Inconsistent image flags (src/domain.cpp:785)
Per MPI rank memory allocation (min/avg/max) = 33.51 | 33.51 | 33.51 Mbytes
Step Temp E_pair E_mol TotEng Press 
       0            0   -41.096012    31301.618    31260.522    -109820.8 
    1000    0.1156586   -40.172716    31301.618    31262.215   -109799.67 
    2000 0.0091597497   -41.318498    31301.618    31260.361   -109814.96 
    3000  0.080262601   -41.376009    31301.618    31260.776    -109818.7 
    4000 0.0070897341   -41.273447    31301.618    31260.392   -109821.77 
    5000  0.054869146    -39.35433    31301.618    31262.629   -109792.77 
    6000 0.0022110619   -41.410988    31301.618    31260.222   -109825.51 
    7000   0.26867294   -41.426332    31301.618    31261.979   -109825.05 
    8000  0.078925194   -41.422565    31301.618    31260.721   -109822.29 
    9000   0.29171589   -41.218509    31301.618    31262.341   -109820.45 
   10000   0.15189731   -40.219143    31301.618     31262.41    -109803.4 
   11000  0.080595034   -41.064825    31301.618     31261.09    -109817.9 
   12000   0.04699889   -41.370301    31301.618    31260.561      -109825 
   13000   0.28703426   -41.364182    31301.618    31262.164   -109823.01 
   14000  0.091990415   -40.684007    31301.618    31261.546   -109810.16 
   15000   0.13699376   -41.206754    31301.618    31261.323   -109819.89 
   16000    0.0318354   -41.102221    31301.618    31260.728   -109814.26 
   17000   0.11905509   -40.955457    31301.618    31261.455   -109813.67 
   18000   0.20937386   -41.412035    31301.618    31261.599    -109823.5 
   19000   0.10421795    -41.22406    31301.618    31261.088   -109820.65 
   20000   0.21467553   -40.941583    31301.618    31262.105   -109813.55 
   21000   0.11015537   -41.267216    31301.618    31261.084   -109821.06 
   22000  0.051633066    -41.43745    31301.618    31260.524    -109821.7 
   23000   0.12918068   -41.423232    31301.618    31261.054   -109820.42 
   24000   0.29015533   -40.926098    31301.618    31262.623   -109808.44 
   25000   0.10067913   -41.285394    31301.618    31261.003   -109819.29 
   26000  0.066434718   -39.972832    31301.618    31262.087   -109804.78 
   27000   0.27992794   -41.366733    31301.618    31262.114    -109822.4 
   28000  0.068696023   -41.192602    31301.618    31260.883   -109820.05 
   29000  0.024085029   -41.398738    31301.618     31260.38    -109826.8 
   30000  0.013402124   -41.486912    31301.618     31260.22   -109826.47 
   31000   0.12910892    -41.28794    31301.618    31261.189    -109821.5 
   32000   0.35300088   -41.557302    31301.618    31262.409   -109822.12 
   33000  0.027193896   -41.492527    31301.618    31260.307   -109819.97 
   34000   0.11812359   -41.480578    31301.618    31260.924    -109824.3 
   35000   0.57608114    -41.43762    31301.618    31264.013   -109821.19 
   36000  0.094536856   -41.059884    31301.618    31261.187   -109819.09 
   37000   0.14363307    -41.42284    31301.618    31261.151   -109824.96 
   38000   0.15993003   -40.623151    31301.618    31262.059   -109809.16 
   39000  0.094944725   -40.948933    31301.618    31261.301   -109814.26 
   40000  0.089450881   -40.935502    31301.618    31261.278   -109813.76 
   41000  0.013872613   -40.195101    31301.618    31261.515    -109803.5 
   42000   0.04895528   -39.425982    31301.618    31262.518   -109798.88 
   43000   0.18106498   -40.925703    31301.618    31261.897   -109815.39 
   44000   0.22690247   -41.208037    31301.618     31261.92   -109815.76 
   45000   0.16789635   -41.383587    31301.618    31261.352    -109821.1 
   46000   0.20254081   -41.387252    31301.618    31261.578   -109824.52 
   47000   0.12423986   -41.437344    31301.618    31261.007   -109823.92 
   48000  0.035098033   -41.260572    31301.618    31260.591   -109823.24 
   49000  0.023704641    -41.52995    31301.618    31260.246      -109824 
   50000   0.14787512   -40.988994    31301.618    31261.613    -109817.4 
   51000   0.27534957   -41.339831    31301.618     31262.11   -109821.36 
   52000   0.07761594   -40.559971    31301.618    31261.575    -109811.4 
   53000   0.13277468    -41.23502    31301.618    31261.267   -109817.18 
   54000   0.58794585   -41.540779    31301.618    31263.989   -109818.01 
   55000   0.01680523   -41.398753    31301.618    31260.331   -109822.04 
   56000   0.14848187   -41.507338    31301.618    31261.099   -109819.79 
   57000   0.39929111   -41.389811    31301.618    31262.885   -109819.97 
   58000   0.28682136   -41.476462    31301.618     31262.05   -109819.87 
   59000  0.077780243   -41.541476    31301.618    31260.594   -109824.88 
   60000  0.076421281   -41.284771    31301.618    31260.842   -109814.32 
   61000   0.18221539   -40.718734    31301.618    31262.112    -109804.9 
   62000   0.10386479   -40.570203    31301.618    31261.739   -109807.69 
   63000   0.13047161   -41.145846    31301.618     31261.34   -109815.27 
   64000   0.06356693   -41.370863    31301.618     31260.67   -109824.28 
   65000  0.081238027    -41.30099    31301.618    31260.858   -109823.93 
   66000  0.070911611   -41.300534    31301.618    31260.789   -109819.16 
   67000  0.088308009   -41.467768    31301.618    31260.738   -109823.52 
   68000   0.12977286   -41.202896    31301.618    31261.279   -109817.89 
   69000  0.048031556   -41.360208    31301.618    31260.578    -109823.6 
   70000   0.12433752   -41.287597    31301.618    31261.158   -109823.82 
   71000    0.0405823   -41.094262    31301.618    31260.794   -109819.71 
   72000    0.1469867   -39.849912    31301.618    31262.746   -109801.88 
   73000   0.12064353     -41.3569    31301.618    31261.064   -109821.02 
   74000   0.08497323   -41.570156    31301.618    31260.613   -109824.09 
   75000  0.086175217   -41.343127    31301.618    31260.848   -109812.82 
   76000   0.19599237   -41.474105    31301.618    31261.448   -109816.22 
   77000   0.16224628   -40.866562    31301.618    31261.831   -109806.72 
   78000  0.038718785   -40.187534    31301.618    31261.688   -109804.48 
   79000   0.13339946   -40.381741    31301.618    31262.124   -109805.26 
   80000  0.024455628    -40.91463    31301.618    31260.866   -109817.61 
   81000  0.065020058   -41.488565    31301.618    31260.562   -109818.54 
   82000   0.48750779   -40.401627    31301.618     31264.46   -109799.26 
   83000   0.21399712   -41.579261    31301.618    31261.463   -109821.39 
   84000  0.029057929   -40.957202    31301.618    31260.854   -109814.01 
   85000  0.056830373   -41.357441    31301.618    31260.639   -109819.64 
   86000   0.26987625   -41.372925    31301.618    31262.041   -109819.28 
   87000  0.084649675   -41.345009    31301.618    31260.836   -109821.87 
   88000  0.010040022   -39.383386    31301.618    31262.302   -109789.94 
   89000   0.10400842    -41.29948    31301.618    31261.011   -109818.22 
   90000  0.083852844   -41.386123    31301.618     31260.79   -109822.27 
   91000  0.034256446   -40.249538    31301.618    31261.597   -109802.52 
   92000   0.16732227   -40.538609    31301.618    31262.193    -109805.5 
   93000   0.11786678   -41.179754    31301.618    31261.223   -109819.77 
   94000   0.23209764    -41.30754    31301.618    31261.855   -109823.27 
   95000  0.050660778   -41.345546    31301.618     31260.61   -109825.41 
   96000  0.077019227    -40.93617    31301.618    31261.194   -109815.12 
   97000   0.14503659   -39.396822    31301.618    31263.186   -109788.59 
   98000  0.023007976    -40.87796    31301.618    31260.893   -109813.44 
   99000  0.060170671   -41.405234    31301.618    31260.613   -109824.17 
  100000  0.078616731   -41.297199    31301.618    31260.844    -109821.9 
  101000  0.045128493   -41.047773    31301.618    31260.871   -109815.19 
  102000   0.31579908   -40.744685    31301.618    31262.975   -109808.86 
  103000   0.23927453   -40.828966    31301.618    31262.381   -109811.93 
  104000   0.15274676   -41.270038    31301.618    31261.364    -109821.6 
  105000  0.030512866   -41.359541    31301.618    31260.462   -109820.87 
  106000  0.088793248   -41.429773    31301.618    31260.779   -109821.73 
  107000  0.037100102    -40.79687    31301.618    31261.068   -109812.75 
  108000  0.096426229   -40.352265    31301.618    31261.907   -109807.63 
  109000   0.17743329   -41.384388    31301.618    31261.414   -109824.19 
  110000   0.28826773   -40.625249    31301.618    31262.911   -109808.98 
  111000  0.081808608   -40.013382    31301.618    31262.149   -109800.72 
  112000   0.13541879   -41.250487    31301.618    31261.269   -109817.13 
  113000  0.014752946    -41.35976    31301.618    31260.357   -109822.31 
  114000   0.15342467   -41.457972    31301.618    31261.181   -109822.37 
  115000   0.29697236   -39.774278    31301.618     31263.82   -109790.62 
  116000  0.047455985   -40.761826    31301.618    31261.172   -109807.98 
  117000  0.062619315   -41.375674    31301.618    31260.659   -109820.47 
  118000  0.021580876   -41.460111    31301.618    31260.302   -109826.83 
  119000   0.10555932   -41.097345    31301.618    31261.223   -109816.27 
  120000  0.099402929   -41.307777    31301.618    31260.972   -109823.53 
  121000  0.064931584   -40.220533    31301.618     31261.83   -109806.82 
  122000  0.099314001   -40.223114    31301.618    31262.056   -109800.37 
  123000   0.19391787   -41.231963    31301.618    31261.676   -109811.04 
  124000   0.10319161   -41.591049    31301.618    31260.714   -109817.73 
  125000  0.074947194   -41.418121    31301.618    31260.699   -109822.48 
  126000   0.36214193   -40.194855    31301.618    31263.833   -109804.92 
  127000   0.15620825   -41.081895    31301.618    31261.576   -109809.57 
  128000  0.013722543   -41.158914    31301.618    31260.551   -109814.56 
  129000  0.073177202   -40.638013    31301.618    31261.467   -109804.72 
  130000   0.11574572   -38.843259    31301.618    31263.545   -109781.91 
  131000  0.018955978   -38.286406    31301.618    31263.458   -109781.93 
  132000  0.014608711   -41.070089    31301.618    31260.645   -109813.45 
  133000 0.0023889156   -40.930163    31301.618    31260.704   -109815.31 
  134000  0.040325628   -40.795221    31301.618    31261.091   -109815.26 
  135000  0.020046501   -41.389748    31301.618    31260.362   -109827.37 
  136000   0.33484607   -40.630822    31301.618    31263.215    -109809.9 
  137000   0.29800358   -41.400553    31301.618      31262.2   -109821.74 
  138000  0.067069182   -41.374517    31301.618     31260.69   -109825.67 
  139000   0.21362548   -41.343783    31301.618    31261.696   -109815.89 
  140000   0.15921119   -41.111313    31301.618    31261.566   -109818.87 
  141000  0.045853319   -41.181867    31301.618    31260.741   -109821.65 
  142000  0.020798313   -40.993671    31301.618    31260.763   -109819.14 
  143000   0.01135239    -41.28698    31301.618    31260.407   -109824.43 
  144000  0.041593159   -40.602885    31301.618    31261.292   -109812.48 
  145000  0.026171781   -41.277703    31301.618    31260.515   -109821.82 
  146000   0.29771463   -40.746202    31301.618    31262.853   -109810.08 
  147000  0.065902599   -41.190171    31301.618    31260.866   -109819.78 
  148000  0.034448616   -41.183284    31301.618    31260.664   -109821.12 
  149000   0.02604529   -40.932906    31301.618    31260.859   -109817.35 
  150000   0.18826601    -41.48012    31301.618    31261.391    -109823.9 
  151000   0.26629762   -41.214743    31301.618    31262.175   -109814.39 
  152000   0.30988494   -41.450442    31301.618    31262.229   -109819.68 
  153000  0.045122784   -41.309287    31301.618    31260.609   -109818.05 
  154000   0.10537709   -41.111323    31301.618    31261.208   -109812.18 
  155000  0.083984537   -41.385507    31301.618    31260.791   -109819.07 
  156000  0.069086411   -40.799918    31301.618    31261.278   -109811.46 
  157000   0.09605197   -41.255177    31301.618    31261.002   -109817.73 
  158000  0.030559084   -40.865225    31301.618    31260.956   -109811.82 
  159000  0.030646709   -39.490594    31301.618    31262.331   -109794.15 
  160000  0.021408296    -41.45492    31301.618    31260.306   -109820.06 
  161000   0.10983449   -40.278277    31301.618    31262.071   -109805.64 
  162000   0.19315928   -41.451336    31301.618    31261.452   -109824.64 
  163000   0.19558469   -40.767153    31301.618    31262.152   -109811.82 
  164000  0.045672543   -41.183679    31301.618    31260.738   -109820.47 
  165000   0.07048838   -40.983964    31301.618    31261.103   -109817.69 
  166000   0.22424076   -41.354824    31301.618    31261.755   -109822.96 
  167000   0.19486997   -39.831451    31301.618    31263.083   -109795.65 
  168000  0.097465107   -40.958446    31301.618    31261.308   -109816.73 
  169000    0.2760244   -41.259369    31301.618    31262.195   -109818.76 
  170000  0.085399921   -41.314035    31301.618    31260.872   -109823.47 
  171000   0.18091107   -40.420574    31301.618    31262.401   -109805.51 
  172000   0.38718519   -41.217282    31301.618    31262.977   -109814.36 
  173000   0.23733356   -40.447977    31301.618    31262.749   -109807.78 
  174000  0.081959753   -41.139189    31301.618    31261.024   -109817.54 
  175000  0.045129018   -41.493531    31301.618    31260.425   -109825.17 
  176000   0.33110992   -41.446639    31301.618    31262.374   -109819.98 
  177000  0.040963066   -41.301699    31301.618    31260.589   -109819.49 
  178000  0.062412085   -41.198836    31301.618    31260.835   -109821.12 
  179000   0.08587704   -41.315181    31301.618    31260.874   -109823.24 
  180000  0.070975161   -41.356522    31301.618    31260.734   -109824.92 
  181000   0.32194019   -40.771979    31301.618    31262.988   -109809.96 
  182000  0.019080202   -40.321581    31301.618    31261.424   -109804.65 
  183000  0.057075795    -40.48941    31301.618    31261.509   -109807.34 
  184000  0.035503387   -41.034524    31301.618     31260.82   -109819.21 
  185000  0.057451166   -41.191343    31301.618    31260.809    -109821.7 
  186000   0.11369843   -39.672219    31301.618    31262.702   -109798.76 
  187000  0.053710832    -41.30286    31301.618    31260.673   -109821.75 
  188000 0.0049521656   -40.824915    31301.618    31260.826   -109815.18 
  189000   0.01854708   -41.305473    31301.618    31260.436   -109818.01 
  190000   0.20024589   -41.187651    31301.618    31261.763   -109816.85 
  191000   0.22474471    -40.13363    31301.618     31262.98   -109798.33 
  192000   0.29878648   -41.221115    31301.618    31262.385   -109817.32 
  193000  0.039370155   -41.450561    31301.618     31260.43   -109826.32 
  194000   0.17381712   -41.442324    31301.618    31261.332   -109825.22 
  195000     0.173336   -41.425136    31301.618    31261.346   -109824.93 
  196000  0.067348299   -41.485266    31301.618    31260.581   -109823.08 
  197000  0.058481479   -41.134531    31301.618    31260.873   -109808.95 
  198000   0.31222498   -41.497786    31301.618    31262.198   -109815.65 
  199000   0.37033377   -41.343236    31301.618    31262.739   -109820.82 
  200000   0.12294363   -40.288838    31301.618    31262.147   -109804.37 
Loop time of 161.904 on 1 procs for 200000 steps with 2233 atoms

Performance: 106.730 ns/day, 0.225 hours/ns, 1235.301 timesteps/s
99.9% CPU use with 1 MPI tasks x no OpenMP threads

MPI task timing breakdown:
Section |  min time  |  avg time  |  max time  |%varavg| %total
---------------------------------------------------------------
Pair    | 3.9296     | 3.9296     | 3.9296     |   0.0 |  2.43
Bond    | 135.34     | 135.34     | 135.34     |   0.0 | 83.59
Neigh   | 5.5738     | 5.5738     | 5.5738     |   0.0 |  3.44
Comm    | 11.825     | 11.825     | 11.825     |   0.0 |  7.30
Output  | 0.51959    | 0.51959    | 0.51959    |   0.0 |  0.32
Modify  | 1.1151     | 1.1151     | 1.1151     |   0.0 |  0.69
Other   |            | 3.6        |            |       |  2.22

Nlocal:    2233 ave 2233 max 2233 min
Histogram: 1 0 0 0 0 0 0 0 0 0
Nghost:    15409 ave 15409 max 15409 min
Histogram: 1 0 0 0 0 0 0 0 0 0
Neighs:    1199 ave 1199 max 1199 min
Histogram: 1 0 0 0 0 0 0 0 0 0

Total # of neighbors = 1199
Ave neighs/atom = 0.536946
Ave special neighs/atom = 6.38424
Neighbor list builds = 99
Dangerous builds = 0
unfix           1
unfix           2
#unfix           3
#unfix           4

# --------------------- Production (data gathering) --------------------------------------- #
# A simple way to hold atoms stationary is to not include those atoms in your time integration.
reset_timestep  0

fix             3 xe nvt temp ${eqtemp} ${eqtemp} ${tdamp}
fix             3 xe nvt temp 298 ${eqtemp} ${tdamp}
fix             3 xe nvt temp 298 298 ${tdamp}
fix             3 xe nvt temp 298 298 100
#fix             6 fram nvt temp 298.00 298.00 ${tdamp}


###
#  mean-squared disp of grp 1
#
# A vector of four quantities is calculated by this compute:
# The first 3 elements of the vector are the squared dx,dy,dz displacements, summed and averaged over atoms in the group.
# The fourth element is the total squared displacement, i.e. (dx*dx + dy*dy + dz*dz),
#  summed and averaged over atoms in the group.
#
# The slope of the MSD versus time is proportional to the diffusion coefficient.
# MSD values can be accumulated in a vector via the fix vector command,
#   and a line fit to the vector to compute its slope via the variable slope function,
#   and thus extract D.
#
# fix ID group-ID vector Nevery value1 value2 ...
#
# c_ID[I] = Ith component of global vector calculated by a compute with ID
# f_ID = global scalar calculated by a fix with ID
# v_name = value calculated by an equal-style variable with name
#
# variable name style args...
#
# The slope() function uses linear regression to fit a line to the set of points,
#   equally spaced by 1 in their x coordinate: (1,V1), (2,V2), …, (N,VN),
#   where the Vi are the values in the global vector of length N.
#   The returned value is the slope of the line.
#   If the line has a single point or is vertical, it returns 1.0e20.
###
compute         msd all msd com yes
fix             4 xe vector 500 c_msd[4]
variable        fitslope equal slope(f_4)/6/(500*dt) # why dividing slope?

thermo_style    custom step v_eqtemp c_msd[4] v_fitslope # prints this info to log file



thermo          1000
run             1000000
WARNING: Inconsistent image flags (src/domain.cpp:785)
Per MPI rank memory allocation (min/avg/max) = 34.26 | 34.26 | 34.26 Mbytes
Step v_eqtemp c_msd[4] v_fitslope 
       0          298 2.4799837e-30 3.3333333e+16 
    1000          298 0.0019810257 3.3017095e-07 
    2000          298 0.0010655675 5.6613442e-08 
    3000          298 0.0021325508 1.1935388e-07 
    4000          298 0.00030079331 3.1688439e-08 
    5000          298 0.0010200029 1.0193892e-09 
    6000          298 0.00084828129 -5.2843428e-09 
    7000          298 0.00092345157 -7.7633635e-09 
    8000          298 0.00079690567 -1.2860772e-08 
    9000          298 0.0017893457 1.4508579e-09 
   10000          298 0.00072247718 1.3403226e-09 
   11000          298 0.00065640774 -3.8481384e-09 
   12000          298 0.0010570086 -1.8916504e-09 
   13000          298 0.0018395307 2.1352674e-09 
   14000          298 0.0012105306 6.9677203e-10 
   15000          298 0.00032271079 -1.0454711e-09 
   16000          298 0.0013784661 -1.2274178e-09 
   17000          298 0.00083102522 -3.1879093e-09 
   18000          298  0.000710908 -1.9725933e-09 
   19000          298 0.0022662559 -2.4621495e-10 
   20000          298 0.00056661298 1.421068e-09 
   21000          298 0.0031265141 2.7932212e-09 
   22000          298 0.0039962358 8.1513153e-09 
   23000          298 0.00034936746 6.6421866e-09 
   24000          298 0.0029759225 7.5646106e-09 
   25000          298 0.00043504687 6.3531923e-09 
   26000          298 0.0015163606 5.543593e-09 
   27000          298 0.0017916771 5.0125047e-09 
   28000          298 0.00055566511 4.6642286e-09 
   29000          298 0.0029043687 4.909088e-09 
   30000          298 0.00071023713 4.3855719e-09 
   31000          298 0.0026089951 4.8028176e-09 
   32000          298 0.0011118494 4.1272157e-09 
   33000          298 0.0004406609 3.0194789e-09 
   34000          298 0.0023919151 2.885167e-09 
   35000          298 0.0020775073 3.3685057e-09 
   36000          298 0.00055427233 2.3936811e-09 
   37000          298 0.0012501823 2.0360854e-09 
   38000          298 0.0013644853 1.7765251e-09 
   39000          298 0.0014775307 1.5538989e-09 
   40000          298 3.5975572e-05 9.9669462e-10 
   41000          298 0.0016561272 7.2739672e-10 
   42000          298 0.0020900162 8.7089404e-10 
   43000          298 0.00074280577 5.8583047e-10 
   44000          298 0.0010517405 4.4431769e-10 
   45000          298  0.000884179 1.4230562e-10 
   46000          298 0.00044224716 -1.6371454e-11 
   47000          298 0.0013550871 -4.5733987e-11 
   48000          298 0.0018519482 -1.0521232e-11 
   49000          298 0.0032828406 8.0113907e-10 
   50000          298 0.00057854655 6.057925e-10 
   51000          298 0.0013915512 5.6297342e-10 
   52000          298 0.0014296983 4.6398134e-10 
   53000          298 0.0011017752 5.7315886e-10 
   54000          298 0.0017960442 5.0124733e-10 
   55000          298 0.0011351669 4.7232763e-10 
   56000          298 0.0022170511 6.4006282e-10 
   57000          298 0.00039029359 4.4260205e-10 
   58000          298 0.0011365739 4.2011289e-10 
   59000          298 0.0011507612 2.0206749e-10 
   60000          298 0.00043889117 6.2031245e-11 
   61000          298  0.001388738 4.1185845e-11 
   62000          298 0.0026833411 1.355724e-10 
   63000          298 0.00021934209 -1.1797215e-11 
   64000          298 0.0016369079 -5.2881495e-11 
   65000          298 0.0017238298 -4.0668221e-11 
   66000          298 0.00068907831 -1.0245685e-10 
   67000          298 0.0014597818 -1.4963044e-10 
   68000          298 0.00082144553 -2.8034453e-10 
   69000          298 0.00040552372 -3.4607868e-10 
   70000          298 0.0014575829 -3.8381932e-10 
   71000          298   0.00171573 -3.4958792e-10 
   72000          298 0.0011161573 -2.0993994e-10 
   73000          298 0.00079747609 -2.1915982e-10 
   74000          298 0.00073996818 -3.5043005e-10 
   75000          298 0.0027032238 -1.3755801e-10 
   76000          298 0.00064494381 -1.2168228e-10 
   77000          298 0.0022069407 -7.0997441e-11 
   78000          298 0.0001133116 -2.2551481e-10 
   79000          298 0.00090657603 -2.3082924e-10 
   80000          298  0.001324198 -2.7841618e-10 
   81000          298 0.00060102676 -2.835582e-10 
   82000          298 0.0020576252 -2.0245375e-10 
   83000          298 0.0012777423 -2.4699461e-10 
   84000          298 0.0002901426 -3.0170365e-10 
   85000          298 0.0018127211 -2.6899755e-10 
   86000          298 0.00092274347 -3.3502768e-10 
   87000          298 0.00065355114 -3.6167996e-10 
   88000          298 0.0014797842 -3.9045595e-10 
   89000          298 0.0011637464 -3.9046404e-10 
   90000          298 0.00066029452 -4.1495501e-10 
   91000          298  0.002173636 -3.9338091e-10 
   92000          298 0.00072243963 -3.8880283e-10 
   93000          298 0.00059135412 -4.4070072e-10 
   94000          298  0.002947623 -3.5666466e-10 
   95000          298 0.00055420321 -4.0523894e-10 
   96000          298 0.00027261895 -4.7264994e-10 
   97000          298 0.0015863342 -4.8125919e-10 
   98000          298 0.00013018445 -5.611696e-10 
   99000          298 0.00068538303 -5.5642245e-10 
  100000          298 0.0017859179 -5.5252297e-10 
  101000          298 8.9436101e-05 -6.2624993e-10 
  102000          298 0.0012281843 -6.2553663e-10 
  103000          298 0.00056037275 -6.6894416e-10 
  104000          298 0.0011314531 -6.6614858e-10 
  105000          298 0.0011735165 -6.4498068e-10 
  106000          298 0.00095839676 -6.3262958e-10 
  107000          298 0.00082118201 -6.7590726e-10 
  108000          298 0.00083404645 -7.2242528e-10 
  109000          298  0.001253338 -6.9781156e-10 
  110000          298 0.0015349817 -6.6978029e-10 
  111000          298 0.0013279302 -6.4984182e-10 
  112000          298 0.0012968722 -5.9129165e-10 
  113000          298 0.0011090824 -5.8400657e-10 
  114000          298 0.00098576953 -5.7250575e-10 
  115000          298 0.0018559834 -5.1976979e-10 
  116000          298 0.0001697883 -5.8502673e-10 
  117000          298  0.001038564 -5.7309436e-10 
  118000          298 0.0014702782 -5.4308071e-10 
  119000          298 0.00050684265 -5.0066904e-10 
  120000          298 0.00091331799 -5.3425549e-10 
  121000          298 0.0014292839 -5.3084459e-10 
  122000          298 0.0007402145 -5.471496e-10 
  123000          298 0.0012554143 -5.6365269e-10 
  124000          298 0.00052843895 -5.8294314e-10 
  125000          298 0.0020314376 -5.580754e-10 
  126000          298 0.00055502342 -5.6533189e-10 
  127000          298 0.0013213197 -5.3190428e-10 
  128000          298 0.0012097778 -5.4200871e-10 
  129000          298 0.0009675426 -5.4075805e-10 
  130000          298 0.0031656384 -4.4676218e-10 
  131000          298 0.0017575079 -3.585983e-10 
  132000          298 0.0017993409 -3.3883995e-10 
  133000          298 0.00029528778 -3.2645219e-10 
  134000          298 0.0017679266 -3.3047157e-10 
  135000          298 0.00051245118 -3.5338219e-10 
  136000          298 0.0012933182 -3.3175776e-10 
  137000          298 0.0010414731 -3.5631052e-10 
  138000          298 0.00043121315 -3.6814348e-10 
  139000          298 0.0026388652 -3.4011081e-10 
  140000          298 0.0011696095 -3.302764e-10 
  141000          298 0.0016101602 -3.1285386e-10 
  142000          298 0.00086578731 -3.064475e-10 
  143000          298 0.0023706042 -2.3670738e-10 
  144000          298 0.0012112981 -2.3198135e-10 
  145000          298 0.00090643022 -2.4533751e-10 
  146000          298 0.0015568929 -2.0054388e-10 
  147000          298  0.001379755 -1.997853e-10 
  148000          298 0.00063877644 -2.1624762e-10 
  149000          298 0.0029029796 -1.8492144e-10 
  150000          298 0.0012948066 -1.349967e-10 
  151000          298  0.001508181 -1.4118779e-10 
  152000          298 0.00012852305 -1.4752804e-10 
  153000          298 0.0014675697 -1.5572756e-10 
  154000          298 0.00024070945 -1.9158424e-10 
  155000          298 0.00083389387 -1.9633496e-10 
  156000          298 0.00030703487 -2.2407706e-10 
  157000          298 0.0015032288 -2.3179793e-10 
  158000          298 0.0016254978 -1.9278412e-10 
  159000          298 0.00071883547 -1.8699587e-10 
  160000          298 0.0015392842 -1.914214e-10 
  161000          298 0.00020338195 -2.0954015e-10 
  162000          298 0.0024619045 -1.7510814e-10 
  163000          298 0.0011891634 -1.8366822e-10 
  164000          298 0.0001789668 -2.0368951e-10 
  165000          298 0.0017135582 -1.9362898e-10 
  166000          298 0.0011068987 -1.7600597e-10 
  167000          298 0.00047588262 -2.0768776e-10 
  168000          298 0.0010102449 -2.0563013e-10 
  169000          298 0.0014463208 -2.0029427e-10 
  170000          298 0.0001496311 -2.29867e-10 
  171000          298 0.0011330729 -2.1812902e-10 
  172000          298 0.00088297454 -2.1431283e-10 
  173000          298 0.00078943594 -2.3088989e-10 
  174000          298 0.00055216505 -2.3068155e-10 
  175000          298 0.0014550261 -2.1610701e-10 
  176000          298 0.0013537207 -2.2596456e-10 
  177000          298 0.00014934768 -2.4857307e-10 
  178000          298 0.00092092945 -2.4480839e-10 
  179000          298 0.00098090528 -2.5758021e-10 
  180000          298 0.0014447829 -2.5722631e-10 
  181000          298 0.00015118319 -2.7159422e-10 
  182000          298 0.0014171145 -2.7853295e-10 
  183000          298 0.0016531781 -2.6502343e-10 
  184000          298 0.00045938839 -2.5384242e-10 
  185000          298 0.0015045962 -2.548513e-10 
  186000          298 0.00011850559 -2.7353815e-10 
  187000          298 0.0012750278 -2.6327114e-10 
  188000          298 0.00065754658 -2.7969897e-10 
  189000          298 0.0013372913 -2.717847e-10 
  190000          298 0.00036505957 -2.7817383e-10 
  191000          298 0.00095478434 -2.9104754e-10 
  192000          298 0.0009453129 -2.8436189e-10 
  193000          298 5.9100638e-05 -2.9008125e-10 
  194000          298 0.0016823422 -2.8656264e-10 
  195000          298 0.0017529837 -2.8011902e-10 
  196000          298 0.00046371278 -2.7473637e-10 
  197000          298  0.002507812 -2.5563626e-10 
  198000          298 0.00047683663 -2.6383805e-10 
  199000          298 0.0030603341 -2.1625874e-10 
  200000          298 0.0010229838 -2.0665819e-10 
  201000          298 0.00051389761 -2.2339661e-10 
  202000          298 0.00079367448 -2.1904216e-10 
  203000          298 0.0011865893 -2.2275034e-10 
  204000          298 0.0012899206 -2.219106e-10 
  205000          298 9.1225937e-05 -2.3155467e-10 
  206000          298 0.0018481957 -2.3090387e-10 
  207000          298 0.0005168454 -2.4171344e-10 
  208000          298 0.00053068647 -2.3926361e-10 
  209000          298 0.0010911771 -2.4793749e-10 
  210000          298 0.00029094657 -2.5393815e-10 
  211000          298 0.0020042357 -2.4989157e-10 
  212000          298 0.00080310343 -2.4966695e-10 
  213000          298 0.0046919378 -2.0134228e-10 
  214000          298 0.0054914053 -1.0073806e-10 
  215000          298 0.0013091138 -7.7475915e-11 
  216000          298 0.00057458009 -9.0183771e-11 
  217000          298 0.00042717101 -1.0223468e-10 
  218000          298 0.00045679719 -1.0442471e-10 
  219000          298 0.0011594894 -1.0849028e-10 
  220000          298 2.7336499e-05 -1.2427303e-10 
  221000          298 0.0023257638 -1.0759861e-10 
  222000          298 0.00053185647 -1.0912542e-10 
  223000          298 0.0027108436 -9.0329048e-11 
  224000          298  0.000806529 -9.7161139e-11 
  225000          298 0.0017997439 -8.9936728e-11 
  226000          298    0.0031474 -5.2738804e-11 
  227000          298 0.00063523196 -5.0260921e-11 
  228000          298 0.00052302039 -6.1330536e-11 
  229000          298 0.0028421726 -3.6394452e-11 
  230000          298 0.0013055101 -2.2093361e-11 
  231000          298 0.00064992774 -3.4992261e-11 
  232000          298 0.0023928455 -2.1137431e-11 
  233000          298 0.0013017658 -1.1716567e-11 
  234000          298 0.0004114565 -2.5493023e-11 
  235000          298 0.00087228842 -2.6473451e-11 
  236000          298 0.0014189702 -3.2416793e-11 
  237000          298 0.00050164094 -4.0331414e-11 
  238000          298 0.0014594078 -2.7450939e-11 
  239000          298 0.00061296702 -4.1725695e-11 
  240000          298 0.00036774165 -4.5884892e-11 
  241000          298 0.0010440299 -5.5493842e-11 
  242000          298 0.00051235006 -6.8034601e-11 
  243000          298 0.0018776289 -5.1564256e-11 
  244000          298 0.0016836091 -4.6949984e-11 
  245000          298 0.00023258254 -6.1175656e-11 
  246000          298 0.00013084561 -7.096587e-11 
  247000          298 0.0016444706 -7.3860095e-11 
  248000          298 0.00076566992 -7.832812e-11 
  249000          298 0.00096627414 -7.6877744e-11 
  250000          298 0.0015574548 -7.5867263e-11 
  251000          298 0.00025920414 -8.6146422e-11 
  252000          298 0.0023503491 -7.0778158e-11 
  253000          298 0.00046190808 -7.16472e-11 
  254000          298 0.0013206774 -7.1605412e-11 
  255000          298 0.00078613191 -7.5325828e-11 
  256000          298 0.00071743078 -7.1816526e-11 
  257000          298 0.0019364859 -7.3008889e-11 
  258000          298 0.00019640701 -8.4087361e-11 
  259000          298 0.00063647114 -8.4041126e-11 
  260000          298 0.00092159012 -9.1723354e-11 
  261000          298 0.00052678395 -9.4551032e-11 
  262000          298 0.00090173383 -9.4635793e-11 
  263000          298 0.00021540247 -1.0632212e-10 
  264000          298 0.0022320624 -9.4131131e-11 
  265000          298 0.00092863958 -9.1836948e-11 
  266000          298  0.001351763 -8.5601502e-11 
  267000          298 0.00099574475 -9.3974481e-11 
  268000          298 0.00029119266 -1.0300094e-10 
  269000          298 0.0015905719 -1.0262642e-10 
  270000          298 0.00061806207 -1.1237159e-10 
  271000          298 0.0002126798 -1.1577213e-10 
  272000          298 0.0017500696 -1.1582226e-10 
  273000          298  0.000852498 -1.2240436e-10 
  274000          298 0.00055323776 -1.2580023e-10 
  275000          298 0.0014491416 -1.2909256e-10 
  276000          298 0.0014884329 -1.2759454e-10 
  277000          298  0.000530617 -1.2956062e-10 
  278000          298 0.00021246872 -1.3953054e-10 
  279000          298 0.0014939839 -1.4044664e-10 
  280000          298  0.001151341 -1.3375087e-10 
  281000          298 0.0012939024 -1.3098166e-10 
  282000          298 0.00071693741 -1.3069337e-10 
  283000          298  0.001664078 -1.2420314e-10 
  284000          298 0.00044867053 -1.1838005e-10 
  285000          298 0.00081469488 -1.2534992e-10 
  286000          298 0.0016884796 -1.245853e-10 
  287000          298 0.0013205755 -1.2335391e-10 
  288000          298 0.0016185923 -1.1987619e-10 
  289000          298 0.00068829915 -1.2661738e-10 
  290000          298 0.00026685539 -1.3595233e-10 
  291000          298 0.0017835243 -1.2526858e-10 
  292000          298 0.00055286686 -1.324831e-10 
  293000          298  0.001074747 -1.30186e-10 
  294000          298 0.0023569926 -1.2131658e-10 
  295000          298 0.00025031183 -1.2156804e-10 
  296000          298 0.0015105118 -1.2019359e-10 
  297000          298 0.0022914675 -1.1622074e-10 
  298000          298 0.00026805935 -1.1880675e-10 
  299000          298  0.001970286 -1.1122349e-10 
  300000          298 0.0012588498 -1.1363972e-10 
  301000          298 0.0015971406 -1.0636915e-10 
  302000          298 0.0012607458 -1.0498197e-10 
  303000          298 0.00086296613 -1.0690584e-10 
  304000          298 0.00078239509 -1.0288924e-10 
  305000          298 0.0010762601 -1.0034569e-10 
  306000          298 0.0021764424 -9.7540884e-11 
  307000          298 0.00042944516 -9.7708556e-11 
  308000          298 0.00049693728 -1.0521515e-10 
  309000          298 0.0014806648 -1.0514743e-10 
  310000          298 0.0010564414 -1.0564768e-10 
  311000          298 0.00072965949 -1.0598996e-10 
  312000          298 0.0020078563 -1.0321614e-10 
  313000          298 0.00022314347 -1.1248693e-10 
  314000          298 0.00081343398 -1.1180404e-10 
  315000          298 0.00072362566 -1.1659269e-10 
  316000          298 0.00055631116 -1.204554e-10 
  317000          298 0.0021242988 -1.165938e-10 
  318000          298 0.0024830743 -9.9573827e-11 
  319000          298 0.00077516653 -1.0416473e-10 
  320000          298 0.00097069815 -1.0246568e-10 
  321000          298 0.0022553457 -9.1731854e-11 
  322000          298 0.0011681331 -9.4409403e-11 
  323000          298 0.0021830475 -8.3917074e-11 
  324000          298 0.00040800108 -9.1494401e-11 
  325000          298 0.00073404293 -9.0956868e-11 
  326000          298 0.0005784542 -9.7581737e-11 
  327000          298 0.0018576445 -9.0583949e-11 
  328000          298 0.00095302228 -8.9184019e-11 
  329000          298 0.00059099848 -9.1552498e-11 
  330000          298 0.0014548428 -8.707909e-11 
  331000          298 0.0011776323 -8.6814117e-11 
  332000          298 0.00069430862 -8.5116844e-11 
  333000          298 0.00094478777 -8.9340767e-11 
  334000          298 3.0297133e-05 -9.5149372e-11 
  335000          298 0.0014178046 -9.1827424e-11 
  336000          298 0.0012260096 -9.5228559e-11 
  337000          298 0.00085925518 -9.1360836e-11 
  338000          298 0.00075481402 -9.0623989e-11 
  339000          298 0.0011175891 -9.3530315e-11 
  340000          298 0.0014149553 -9.0152193e-11 
  341000          298 6.6468077e-05 -9.2766608e-11 
  342000          298 0.0014632822 -9.3918025e-11 
  343000          298 0.0011142733 -9.3466485e-11 
  344000          298 0.00017625816 -9.6127567e-11 
  345000          298 0.0015924517 -9.8333189e-11 
  346000          298 0.0019291353 -9.2850573e-11 
  347000          298 0.00053068108 -9.5887367e-11 
  348000          298 0.0016304625 -9.3008384e-11 
  349000          298 0.00041250497 -9.9181566e-11 
  350000          298 0.00046785757 -9.9393751e-11 
  351000          298 0.00073808825 -1.0118888e-10 
  352000          298 0.0001219609 -1.0344624e-10 
  353000          298 0.0014901166 -1.0371628e-10 
  354000          298 5.4117829e-05 -1.1016752e-10 
  355000          298 0.00049241084 -1.1058905e-10 
  356000          298 0.0015800306 -1.1231811e-10 
  357000          298 0.00027625195 -1.1724126e-10 
  358000          298 0.00053049375 -1.1616552e-10 
  359000          298 0.0007150824 -1.2021746e-10 
  360000          298 0.00093277636 -1.1931697e-10 
  361000          298 0.00055565277 -1.1902855e-10 
  362000          298 0.0005858053 -1.2312141e-10 
  363000          298 0.0014127324 -1.1814745e-10 
  364000          298 0.00068595719 -1.1667485e-10 
  365000          298 0.00075071516 -1.1895902e-10 
  366000          298 0.0016383277 -1.1173363e-10 
  367000          298 0.00088607413 -1.1241323e-10 
  368000          298 0.00013134786 -1.1565879e-10 
  369000          298 0.0019304405 -1.1495951e-10 
  370000          298 0.0001655299 -1.2011139e-10 
  371000          298 0.0019866104 -1.1547243e-10 
  372000          298 0.00062118325 -1.153291e-10 
  373000          298 0.0028550072 -1.0637802e-10 
  374000          298 0.0012291111 -1.0654419e-10 
  375000          298 0.0010119824 -1.027009e-10 
  376000          298 0.0025815172 -9.7861783e-11 
  377000          298 0.0012120971 -8.9756717e-11 
  378000          298 0.00044845002 -9.1692629e-11 
  379000          298 0.0026258041 -8.829563e-11 
  380000          298 0.00033645507 -8.9790979e-11 
  381000          298 0.00039611031 -9.4411002e-11 
  382000          298 0.0013650758 -9.4662935e-11 
  383000          298 0.00027168724 -9.712654e-11 
  384000          298 0.0017078902 -9.2843054e-11 
  385000          298  0.000666531 -9.5852836e-11 
  386000          298 0.00047693321 -9.6397197e-11 
  387000          298 0.00092060902 -1.0012322e-10 
  388000          298 0.0015730798 -9.7989729e-11 
  389000          298 0.00078157274 -1.0191967e-10 
  390000          298 0.0011593237 -1.0003329e-10 
  391000          298 0.0010682763 -1.0229639e-10 
  392000          298 9.3470923e-05 -1.0574768e-10 
  393000          298 0.0025058295 -9.8788407e-11 
  394000          298 0.00068375006 -9.8522033e-11 
  395000          298 0.0025722063 -9.1823426e-11 
  396000          298 0.0010820766 -9.2516665e-11 
  397000          298 0.0010432259 -9.1008747e-11 
  398000          298 0.0019680806 -8.3198282e-11 
  399000          298 0.00052183506 -8.1928744e-11 
  400000          298 0.00065990595 -8.6011657e-11 
  401000          298 0.0014115906 -8.5540635e-11 
  402000          298  0.001703259 -8.4040861e-11 
  403000          298 0.00092378527 -8.3023577e-11 
  404000          298 0.0042408918 -7.1828936e-11 
  405000          298 0.0018368457 -5.9783897e-11 
  406000          298 0.00098137528 -5.8938666e-11 
  407000          298 0.00067370818 -6.1509229e-11 
  408000          298 0.0017422396 -5.8551099e-11 
  409000          298 0.0013295084 -5.6613851e-11 
  410000          298 0.00026289423 -6.0619884e-11 
  411000          298 0.0014030179 -6.0734253e-11 
  412000          298 0.00063310587 -6.2717579e-11 
  413000          298 0.0012254744 -6.4828538e-11 
  414000          298 0.00014558719 -6.8939434e-11 
  415000          298 0.00066921737 -6.8293126e-11 
  416000          298 0.0015563944 -6.9601763e-11 
  417000          298 0.00050061916 -7.1953795e-11 
  418000          298 0.00061121899 -7.1257066e-11 
  419000          298 0.0010408262 -7.4081307e-11 
  420000          298 0.0021324067 -6.9734324e-11 
  421000          298 2.4600854e-05 -7.2704809e-11 
  422000          298 0.0011994098 -7.4018129e-11 
  423000          298 0.0013587698 -7.3150931e-11 
  424000          298  0.000139927 -7.6474368e-11 
  425000          298 0.0012744634 -7.5617803e-11 
  426000          298 0.0012987647 -7.7123579e-11 
  427000          298 2.7603963e-05 -8.0161699e-11 
  428000          298 0.0012475752 -8.0188719e-11 
  429000          298 0.0005429894 -8.4255712e-11 
  430000          298 0.00049348233 -8.4996807e-11 
  431000          298  0.001699085 -8.5551524e-11 
  432000          298 0.00015907011 -8.9442201e-11 
  433000          298 0.0011752723 -8.8274237e-11 
  434000          298 0.0030477396 -8.3006142e-11 
  435000          298 0.00057220979 -8.1056951e-11 
  436000          298 0.0025426612 -7.6260622e-11 
  437000          298 0.00019719425 -7.5758117e-11 
  438000          298 0.0021432181 -7.4068374e-11 
  439000          298 0.00041081235 -7.5360706e-11 
  440000          298 0.0010915205 -7.4210466e-11 
  441000          298 0.0022810568 -7.1035311e-11 
  442000          298 0.00060542959 -7.3525189e-11 
  443000          298 0.0011731533 -7.0492728e-11 
  444000          298 0.0021586159 -6.8908029e-11 
  445000          298 0.0011130412 -6.2683122e-11 
  446000          298 0.0010303869 -6.4880971e-11 
  447000          298 0.0011637313 -6.4017678e-11 
  448000          298 0.00086366432 -6.6223061e-11 
  449000          298 0.00034447663 -7.0062218e-11 
  450000          298 0.0015439475 -6.4631794e-11 
  451000          298 0.0015813625 -6.3291224e-11 
  452000          298 0.0001923725 -6.5683808e-11 
  453000          298 0.0012077118 -6.5655591e-11 
  454000          298 0.00029759976 -6.8506077e-11 
  455000          298 0.0017411538 -6.7923029e-11 
  456000          298 0.0035711664 -5.9367875e-11 
  457000          298 0.0019101888 -5.3929975e-11 
  458000          298 5.7246202e-05 -5.8246631e-11 
  459000          298 0.0014372008 -5.7619095e-11 
  460000          298 0.0022741259 -5.1335293e-11 
  461000          298 0.0015551032 -5.0323839e-11 
  462000          298 0.00059844522 -4.8477969e-11 
  463000          298 0.0020449558 -4.8268435e-11 
  464000          298 0.00044328981 -4.8579531e-11 
  465000          298 0.00084115828 -4.7993467e-11 
  466000          298 0.0021811227 -4.4951304e-11 
  467000          298 0.00032721161 -4.84906e-11 
  468000          298 0.0009328439 -4.6466406e-11 
  469000          298 0.0015067246 -4.8014735e-11 
  470000          298 0.0012325314 -4.7456351e-11 
  471000          298 0.0010405182 -4.7031606e-11 
  472000          298 0.0021020107 -4.4003968e-11 
  473000          298 0.0015938229 -3.9943659e-11 
  474000          298 0.00082996814 -4.1778086e-11 
  475000          298 0.0008276511 -4.1590328e-11 
  476000          298 0.0010324372 -4.4129569e-11 
  477000          298 0.00098939354 -4.4050767e-11 
  478000          298 0.00083966469 -4.130146e-11 
  479000          298 0.0021458294 -4.0551146e-11 
  480000          298 0.0010335425 -3.9771962e-11 
  481000          298 0.00048025465 -4.0727822e-11 
  482000          298 0.00037147288 -4.3955383e-11 
  483000          298 0.0023221069 -4.1446318e-11 
  484000          298 0.0013316397 -3.9929538e-11 
  485000          298 0.00074352657 -4.2051031e-11 
  486000          298 0.00089978188 -4.1540788e-11 
  487000          298 0.00078624876 -4.4378105e-11 
  488000          298 0.0011715019 -4.5074428e-11 
  489000          298 0.0014957334 -4.11059e-11 
  490000          298 0.0014337517 -4.0544203e-11 
  491000          298 0.0012999179 -3.7388724e-11 
  492000          298 0.0016423394 -3.8146909e-11 
  493000          298 0.00062294405 -3.7683933e-11 
  494000          298 0.00050943973 -3.7834178e-11 
  495000          298 0.0010881528 -3.8894012e-11 
  496000          298 6.8096619e-05 -4.118875e-11 
  497000          298  0.001848056 -3.9147667e-11 
  498000          298 0.00070149053 -4.1039081e-11 
  499000          298 0.0011884791 -3.8306614e-11 
  500000          298 0.0010285312 -3.7549565e-11 
  501000          298 0.00069896588 -4.0082857e-11 
  502000          298 0.00072627157 -4.0195118e-11 
  503000          298 0.00074919731 -4.2419983e-11 
  504000          298 0.0011827505 -4.0771502e-11 
  505000          298 0.00061291944 -4.3096278e-11 
  506000          298 0.0020217413 -4.1670249e-11 
  507000          298 0.00057311336 -4.2883729e-11 
  508000          298 0.0020243529 -4.2899062e-11 
  509000          298 0.00050046899 -4.4672813e-11 
  510000          298 0.0013422373 -4.5712107e-11 
  511000          298 0.00050661271 -4.5050182e-11 
  512000          298 0.00046613757 -4.7320694e-11 
  513000          298 0.00049465032 -4.6242234e-11 
  514000          298 0.0015129204 -4.6792034e-11 
  515000          298 8.1878061e-05 -4.9062769e-11 
  516000          298 0.0015549106 -4.7889949e-11 
  517000          298   0.00181685 -4.7798096e-11 
  518000          298 0.00034055003 -4.6531933e-11 
  519000          298 0.0026302837 -4.3712643e-11 
  520000          298 0.00072812118 -4.3131063e-11 
  521000          298 0.0028679138 -3.8992824e-11 
  522000          298 0.0012766223 -3.8255123e-11 
  523000          298 0.0015302666 -3.708352e-11 
  524000          298 0.0014295638 -3.6615432e-11 
  525000          298 0.0039295163 -2.5753587e-11 
  526000          298 0.0010772852 -2.4629742e-11 
  527000          298 0.0010592132 -2.5332172e-11 
  528000          298 0.0021188024 -2.3680802e-11 
  529000          298 0.0020735607 -1.7299022e-11 
  530000          298 0.0010945899 -1.8722398e-11 
  531000          298 0.00040114115 -1.8899833e-11 
  532000          298 0.0023831461 -1.6311687e-11 
  533000          298 0.0012161873 -1.6819924e-11 
  534000          298 0.0009990814 -1.5937846e-11 
  535000          298 0.0010186919 -1.6043705e-11 
  536000          298 0.00022777904 -1.8340121e-11 
  537000          298 0.0020587611 -1.8316236e-11 
  538000          298 0.00055488481 -1.7985854e-11 
  539000          298 0.0011937692 -1.7611432e-11 
  540000          298 0.0020593271 -1.6940018e-11 
  541000          298 0.00084156794 -1.8455691e-11 
  542000          298 0.0010804837 -1.7916223e-11 
  543000          298 0.00087917001 -1.9947702e-11 
  544000          298 0.0001431795 -2.1723391e-11 
  545000          298  0.000414539 -2.3742821e-11 
  546000          298 0.0005669447 -2.326665e-11 
  547000          298 0.00064313199 -2.4887523e-11 
  548000          298 0.0027105776 -2.084533e-11 
  549000          298 0.00013624222 -2.1890746e-11 
  550000          298 0.0011848367 -2.275941e-11 
  551000          298 0.00067847991 -2.3268641e-11 
  552000          298 0.00049504121 -2.4240273e-11 
  553000          298 0.0013230171 -2.419945e-11 
  554000          298 0.0004275694 -2.6612821e-11 
  555000          298 0.00064540587 -2.6166536e-11 
  556000          298 0.0015884351 -2.4882162e-11 
  557000          298 0.00034441397 -2.610952e-11 
  558000          298 0.0014750849 -2.5491053e-11 
  559000          298 0.0013722807 -2.4956848e-11 
  560000          298 0.00068474195 -2.4131831e-11 
  561000          298 0.00085672583 -2.6147809e-11 
  562000          298 0.00074320145 -2.8258496e-11 
  563000          298 0.0015330695 -2.6576319e-11 
  564000          298 0.00049063129 -2.6350646e-11 
  565000          298 0.00053361008 -2.7948407e-11 
  566000          298 0.00065386557 -2.7082456e-11 
  567000          298 4.7950861e-05 -2.9254205e-11 
  568000          298 0.0010598975 -2.9722329e-11 
  569000          298 0.00062016755 -3.1288601e-11 
  570000          298 0.0011076666 -2.9952168e-11 
  571000          298 0.0023738733 -2.848801e-11 
  572000          298 0.00042249325 -2.957139e-11 
  573000          298 0.00063371533 -2.9413551e-11 
  574000          298 0.0015669916 -3.0342334e-11 
  575000          298 0.00025831571 -3.2795956e-11 
  576000          298 0.00069110626 -3.2008102e-11 
  577000          298 0.0018536597 -3.2379926e-11 
  578000          298 0.00086758478 -3.3101443e-11 
  579000          298 0.00039286496 -3.3464661e-11 
  580000          298 0.0014721188 -3.4150191e-11 
  581000          298 0.00067477986 -3.5144851e-11 
  582000          298 0.00044957937 -3.5117524e-11 
  583000          298 0.0011393517 -3.6416151e-11 
  584000          298 0.0010005389 -3.5201789e-11 
  585000          298 0.0013054192 -3.4488351e-11 
  586000          298 0.0010278392 -3.4577106e-11 
  587000          298 0.00095600017 -3.3077374e-11 
  588000          298 0.00083819828 -3.2547454e-11 
  589000          298 0.0018150106 -3.2674332e-11 
  590000          298 0.00048616192 -3.2210547e-11 
  591000          298 0.0022337056 -3.1480124e-11 
  592000          298 0.00034035885 -3.2708605e-11 
  593000          298 0.0016613057 -3.0148049e-11 
  594000          298 0.0017341232 -2.9999636e-11 
  595000          298 0.00040198875 -3.17205e-11 
  596000          298  0.001692593 -2.8975289e-11 
  597000          298 0.0012208941 -2.8400649e-11 
  598000          298  0.001401254 -2.7667862e-11 
  599000          298 0.0017404331 -2.699104e-11 
  600000          298 0.00033773747 -2.6941727e-11 
  601000          298 0.0016667763 -2.6626453e-11 
  602000          298 0.00031336757 -2.9097554e-11 
  603000          298 0.00025120258 -2.9304421e-11 
  604000          298 0.0015548901 -2.972559e-11 
  605000          298 5.3820876e-05 -3.1973532e-11 
  606000          298 0.00066842547 -3.2250311e-11 
  607000          298 0.0019955166 -3.1953395e-11 
  608000          298 0.00016652573 -3.4274632e-11 
  609000          298 0.00090318877 -3.3312314e-11 
  610000          298 0.0013557053 -3.4195818e-11 
  611000          298 0.00068485978 -3.3143533e-11 
  612000          298 0.0017236623 -3.2312225e-11 
  613000          298 0.00046770072 -3.4274082e-11 
  614000          298 0.00046773597 -3.4145107e-11 
  615000          298  0.001657363 -3.4711332e-11 
  616000          298 0.00020773766 -3.6284716e-11 
  617000          298 0.00032708956 -3.7793569e-11 
  618000          298 0.0020580803 -3.7640972e-11 
  619000          298  0.000148033 -3.792687e-11 
  620000          298 0.00059055612 -3.9580421e-11 
  621000          298  0.001295044 -3.9664938e-11 
  622000          298 0.00062282615 -4.0346015e-11 
  623000          298 0.0024858117 -3.9619851e-11 
  624000          298 0.00023826427 -4.0127398e-11 
  625000          298 0.00090209504 -4.0979065e-11 
  626000          298 0.0016181464 -4.0811623e-11 
  627000          298  0.001346778 -3.8183031e-11 
  628000          298 0.00065193677 -3.9954509e-11 
  629000          298 0.00078648816 -3.9823851e-11 
  630000          298 0.0019276592 -3.9179313e-11 
  631000          298 0.00046228814 -4.1180066e-11 
  632000          298 0.00026058158 -4.1195127e-11 
  633000          298 0.0015297572 -4.1691526e-11 
  634000          298 8.2637368e-05 -4.3350049e-11 
  635000          298 0.0010987684 -4.3489786e-11 
  636000          298 0.00056360763 -4.4940226e-11 
  637000          298 0.00055985398 -4.4858047e-11 
  638000          298  0.002506938 -4.3975365e-11 
  639000          298 0.00027298467 -4.4499321e-11 
  640000          298 0.0010373123 -4.4439592e-11 
  641000          298 0.0011331807 -4.5444181e-11 
  642000          298 3.872492e-05 -4.6797425e-11 
  643000          298 0.0012977506 -4.6748895e-11 
  644000          298 0.00038354595 -4.8784768e-11 
  645000          298 0.00026710525 -4.8729927e-11 
  646000          298 0.0015790483 -4.86565e-11 
  647000          298 0.00053243463 -4.9633823e-11 
  648000          298 0.0018601817 -4.9681977e-11 
  649000          298 0.00045192222 -5.1013153e-11 
  650000          298 0.0011896926 -5.1150906e-11 
  651000          298 0.0013827824 -5.1634851e-11 
  652000          298 0.00014348735 -5.321638e-11 
  653000          298 0.00038929676 -5.3376308e-11 
  654000          298 0.0017609908 -5.3650572e-11 
  655000          298 0.00022773302 -5.5134751e-11 
  656000          298 0.0012087756 -5.4693463e-11 
  657000          298 0.00096254712 -5.534064e-11 
  658000          298 0.0021648066 -5.4057767e-11 
  659000          298 0.00048362468 -5.4269799e-11 
  660000          298 0.0014427533 -5.3896189e-11 
  661000          298 0.00045754009 -5.52753e-11 
  662000          298 0.0013043032 -5.4406296e-11 
  663000          298 0.0016103102 -5.4314218e-11 
  664000          298 0.00075774948 -5.417396e-11 
  665000          298 0.00089473032 -5.3822867e-11 
  666000          298 0.00052198825 -5.5125778e-11 
  667000          298 0.0015350381 -5.3251946e-11 
  668000          298 0.00056403552 -5.2933314e-11 
  669000          298 0.00059160312 -5.400132e-11 
  670000          298 0.0017647049 -5.165423e-11 
  671000          298 0.0010248042 -5.1732943e-11 
  672000          298 0.00019437023 -5.2511476e-11 
  673000          298 0.0018239379 -5.2338518e-11 
  674000          298 0.00024635383 -5.4195716e-11 
  675000          298 0.00048642402 -5.3868809e-11 
  676000          298 0.0018377037 -5.3060323e-11 
  677000          298 0.00095931979 -5.393836e-11 
  678000          298 0.00010487817 -5.5063724e-11 
  679000          298 0.00096034879 -5.4945733e-11 
  680000          298 0.00051321836 -5.6232931e-11 
  681000          298 0.0006703969 -5.630835e-11 
  682000          298  0.001833143 -5.5586334e-11 
  683000          298 0.0019496293 -5.3341527e-11 
  684000          298 8.2348565e-05 -5.4317982e-11 
  685000          298 0.0010001548 -5.5039958e-11 
  686000          298 0.00094928872 -5.4790438e-11 
  687000          298 0.00099602511 -5.4241294e-11 
  688000          298 0.0025845387 -5.3013207e-11 
  689000          298   0.00179548 -5.0805494e-11 
  690000          298 0.00038853221 -5.1365225e-11 
  691000          298 0.0014103532 -5.1199323e-11 
  692000          298 0.00067553701 -5.2550128e-11 
  693000          298 0.00038200074 -5.2851147e-11 
  694000          298 0.0016531851 -5.1977424e-11 
  695000          298 0.0013492743 -5.2304745e-11 
  696000          298 0.00055271351 -5.1889791e-11 
  697000          298 0.0017599275 -5.0976145e-11 
  698000          298 0.00025555151 -5.2446246e-11 
  699000          298 0.0014097123 -5.0886949e-11 
  700000          298 0.0016564328 -5.0823887e-11 
  701000          298 0.0012427748 -4.9075205e-11 
  702000          298 0.0016740286 -4.8295397e-11 
  703000          298 0.00032498762 -4.7672514e-11 
  704000          298  0.001885323 -4.7507407e-11 
  705000          298 0.00072983657 -4.8401253e-11 
  706000          298 5.8158115e-05 -4.8989007e-11 
  707000          298  0.002048913 -4.8155475e-11 
  708000          298 0.0016566798 -4.7640498e-11 
  709000          298 0.00072313406 -4.8187475e-11 
  710000          298 0.0022474568 -4.7251639e-11 
  711000          298 0.0011621515 -4.6829271e-11 
  712000          298 0.00062373758 -4.6490539e-11 
  713000          298 0.0012709431 -4.6929397e-11 
  714000          298 0.0009335177 -4.6636455e-11 
  715000          298 0.0014625285 -4.4851719e-11 
  716000          298 0.00035043375 -4.6219536e-11 
  717000          298  0.001812627 -4.5879008e-11 
  718000          298 0.0021731887 -4.3977733e-11 
  719000          298 0.00030519162 -4.4987848e-11 
  720000          298 0.00079575693 -4.5437452e-11 
  721000          298 0.00032003287 -4.5475173e-11 
  722000          298 0.00051758555 -4.6385091e-11 
  723000          298 0.0027923194 -4.4668024e-11 
  724000          298 0.0010998685 -4.4176613e-11 
  725000          298 0.0020406691 -4.285557e-11 
  726000          298 0.00030684826 -4.335849e-11 
  727000          298  0.001580339 -4.2153271e-11 
  728000          298 0.0017006556 -4.2003981e-11 
  729000          298 0.00039135097  -4.3176e-11 
  730000          298 0.0012805548 -4.1851246e-11 
  731000          298 0.0010001914 -4.1666573e-11 
  732000          298 0.0014187428 -4.1078928e-11 
  733000          298 0.0024946803 -3.9533122e-11 
  734000          298 0.00025909673 -3.937395e-11 
  735000          298 0.0030069086 -3.7478175e-11 
  736000          298 0.00056560288 -3.668395e-11 
  737000          298 0.0026371002 -3.5494371e-11 
  738000          298 0.0002262526 -3.6055591e-11 
  739000          298 0.00039349755 -3.7347553e-11 
  740000          298 0.0011279706 -3.7365828e-11 
  741000          298 0.0008210706 -3.7916006e-11 
  742000          298  0.000603439 -3.7624478e-11 
  743000          298 0.00021962772 -3.8996589e-11 
  744000          298 0.0014147491 -3.932047e-11 
  745000          298 0.00042392738 -3.8622119e-11 
  746000          298 0.00088528786 -3.9472971e-11 
  747000          298 0.0011384627 -4.0201962e-11 
  748000          298 0.00074893933 -4.0272171e-11 
  749000          298 0.0017932093 -4.0328414e-11 
  750000          298 0.00099788287 -4.0274575e-11 
  751000          298 0.0020072094 -3.9295912e-11 
  752000          298 0.00044565849 -4.0299235e-11 
  753000          298 0.0015050355 -4.0158588e-11 
  754000          298 0.00048826501 -4.0756341e-11 
  755000          298 0.0016092923 -4.0224653e-11 
  756000          298 0.00021759338 -4.1126204e-11 
  757000          298 0.00086284249 -4.1105416e-11 
  758000          298 0.00035400298 -4.2010886e-11 
  759000          298 0.0010397937 -4.1626277e-11 
  760000          298 0.0020665585 -4.0361016e-11 
  761000          298 0.00065280296 -4.1391153e-11 
  762000          298 0.00020130776 -4.1429219e-11 
  763000          298 0.0015764812 -4.1264088e-11 
  764000          298 0.0004243281 -4.2658059e-11 
  765000          298 0.00022621419 -4.2675792e-11 
  766000          298 0.0018218477 -4.2746855e-11 
  767000          298 0.00040084234 -4.368854e-11 
  768000          298 8.5455352e-05 -4.3923893e-11 
  769000          298 0.0019446063 -4.3625857e-11 
  770000          298 0.00047791469 -4.4800924e-11 
  771000          298 0.00019967351 -4.4956467e-11 
  772000          298  0.001726717 -4.44313e-11 
  773000          298  0.001147323 -4.4847648e-11 
  774000          298 0.00010277273 -4.5486509e-11 
  775000          298 0.0018510252 -4.4537286e-11 
  776000          298 0.0014032457 -4.4267397e-11 
  777000          298 0.0013240322 -4.4144465e-11 
  778000          298 0.0014984983 -4.3559576e-11 
  779000          298 0.00076548277 -4.217075e-11 
  780000          298 0.0025759565 -4.1466866e-11 
  781000          298  0.003454001 -3.6990305e-11 
  782000          298 0.00057794909 -3.7217505e-11 
  783000          298 0.0017485141 -3.5207177e-11 
  784000          298 0.0016905084 -3.4979701e-11 
  785000          298 0.00010979412 -3.5905612e-11 
  786000          298 0.0028971539 -3.3688894e-11 
  787000          298 0.00015281559 -3.4008759e-11 
  788000          298 0.0012654616 -3.413228e-11 
  789000          298 0.00089990526 -3.437895e-11 
  790000          298 0.00011256628 -3.4463281e-11 
  791000          298 0.0016701668 -3.4628501e-11 
  792000          298 0.00046963506 -3.5360917e-11 
  793000          298 0.0013773939 -3.3884346e-11 
  794000          298 0.00079809944 -3.4799021e-11 
  795000          298 0.0009123073 -3.4547807e-11 
  796000          298 0.0017495715 -3.4044223e-11 
  797000          298 0.0003210513 -3.5180672e-11 
  798000          298 0.00085125707 -3.488062e-11 
  799000          298 0.0020176131 -3.3827062e-11 
  800000          298 0.00095221458 -3.4348984e-11 
  801000          298 0.0010863196 -3.3535167e-11 
  802000          298 0.00090606442 -3.3482728e-11 
  803000          298 4.7942094e-05 -3.4465649e-11 
  804000          298 0.0017476074 -3.4411147e-11 
  805000          298 0.0022087295 -3.2781852e-11 
  806000          298 0.00066975692 -3.3354103e-11 
  807000          298 0.00095253204 -3.3864566e-11 
  808000          298 0.0013790953 -3.3201689e-11 
  809000          298 0.00088883206 -3.3097163e-11 
  810000          298 0.0007816643 -3.3205184e-11 
  811000          298 0.0020956762 -3.1645583e-11 
  812000          298 0.00070191853 -3.2441445e-11 
  813000          298 0.00022330368 -3.2906908e-11 
  814000          298 0.0015263899 -3.311915e-11 
  815000          298  0.001782481 -3.23269e-11 
  816000          298 0.0006925287 -3.1540731e-11 
  817000          298 0.0010803278 -3.1958742e-11 
  818000          298 0.00061170559 -3.2768124e-11 
  819000          298 0.00045821546 -3.2731152e-11 
  820000          298 0.0012908815 -3.3298373e-11 
  821000          298 0.00026731543 -3.3873858e-11 
  822000          298 0.0015118954 -3.394233e-11 
  823000          298 0.00085783737 -3.4051706e-11 
  824000          298 0.0032185652 -3.1690697e-11 
  825000          298 0.00079342999 -3.0594999e-11 
  826000          298 0.00094232885 -3.1107591e-11 
  827000          298  0.001058703 -3.1088654e-11 
  828000          298 0.0010316902 -3.1129719e-11 
  829000          298 0.00019938693 -3.2405032e-11 
  830000          298 0.0019518005 -3.0929272e-11 
  831000          298 0.00064803072 -3.0138448e-11 
  832000          298 0.0011935955 -3.0228721e-11 
  833000          298 0.00020123313 -3.0498758e-11 
  834000          298 0.0014489971 -3.0771026e-11 
  835000          298 0.00095301631 -3.0958163e-11 
  836000          298 0.00062198757 -3.1019406e-11 
  837000          298 0.0015135757 -3.1008097e-11 
  838000          298 0.00018640798 -3.1877099e-11 
  839000          298 0.0014339168 -3.1719001e-11 
  840000          298 0.00018294028 -3.2757494e-11 
  841000          298 0.00089342825 -3.2944466e-11 
  842000          298 0.0022178055 -3.1758896e-11 
  843000          298 0.00065935075 -3.1542714e-11 
  844000          298 0.0023116273 -3.0657694e-11 
  845000          298 0.00040447128 -3.1554735e-11 
  846000          298 0.0012031864 -3.0592342e-11 
  847000          298 0.00090579688 -3.035698e-11 
  848000          298 0.00026323214 -3.1217094e-11 
  849000          298 0.0016449789 -2.987649e-11 
  850000          298 0.0018997388 -2.9533894e-11 
  851000          298 0.00089985745 -2.9947731e-11 
  852000          298 0.00048271775 -2.9901335e-11 
  853000          298   0.00190774 -2.9924146e-11 
  854000          298 0.00064561135 -2.9887216e-11 
  855000          298 0.0021044955 -2.8477868e-11 
  856000          298 0.0012855781 -2.8275875e-11 
  857000          298 0.0014055353 -2.7602804e-11 
  858000          298 0.0010820074 -2.7469317e-11 
  859000          298 0.0013356816 -2.6443194e-11 
  860000          298 0.00065950029 -2.7216525e-11 
  861000          298 0.0015676209 -2.6754209e-11 
  862000          298 0.00087791017 -2.6822818e-11 
  863000          298 0.00041452696 -2.7939459e-11 
  864000          298 0.0011253589 -2.7492529e-11 
  865000          298 0.00077642395 -2.7452962e-11 
  866000          298 0.0012880261 -2.7797854e-11 
  867000          298 0.00051341462 -2.8317833e-11 
  868000          298 0.0014504194 -2.7109975e-11 
  869000          298 0.0011439192 -2.7643453e-11 
  870000          298 0.00016779572 -2.8065802e-11 
  871000          298 0.0028455063 -2.7131342e-11 
  872000          298 0.00039246752 -2.7853301e-11 
  873000          298 0.00046027829 -2.8224979e-11 
  874000          298 0.0013737891 -2.8477904e-11 
  875000          298 0.00069292441 -2.7765931e-11 
  876000          298 0.0021134419 -2.7440991e-11 
  877000          298 0.00094447926 -2.6980492e-11 
  878000          298 0.0028853091 -2.5410222e-11 
  879000          298 0.0014866197 -2.4847063e-11 
  880000          298 0.00068359207 -2.5463176e-11 
  881000          298 0.00019609404 -2.5609221e-11 
  882000          298 0.0018714589 -2.5628713e-11 
  883000          298 0.00051737531 -2.6352453e-11 
  884000          298 0.0002417113 -2.6372974e-11 
  885000          298 0.0015379524 -2.6554876e-11 
  886000          298 0.00028913664 -2.7249381e-11 
  887000          298 0.00099415661 -2.6979886e-11 
  888000          298 0.00061802092 -2.7638964e-11 
  889000          298 0.00078285391 -2.7415983e-11 
  890000          298 0.00058271375 -2.7255302e-11 
  891000          298 0.00082304701 -2.7957002e-11 
  892000          298 0.00099509211 -2.7838387e-11 
  893000          298 0.00059340289 -2.8446098e-11 
  894000          298 0.00091810563 -2.9130306e-11 
  895000          298 0.00091115154 -2.8032777e-11 
  896000          298 0.0016664511 -2.7631325e-11 
  897000          298 0.0011547225 -2.8065752e-11 
  898000          298 0.00049084032 -2.7954829e-11 
  899000          298 0.0011383264 -2.8046061e-11 
  900000          298 0.00063432326 -2.8822171e-11 
  901000          298 4.6322332e-05 -2.9426374e-11 
  902000          298 0.0014089149 -2.9315998e-11 
  903000          298 0.0011250011 -2.9760431e-11 
  904000          298 0.00029911344 -2.9098759e-11 
  905000          298  0.001917561 -2.8834598e-11 
  906000          298 0.00024902641 -2.9663387e-11 
  907000          298 0.0012730426 -2.9345577e-11 
  908000          298  0.001604487 -2.9326507e-11 
  909000          298 0.0011060274 -2.9227297e-11 
  910000          298 0.00093737613 -2.9861228e-11 
  911000          298 0.00045643647 -2.9829739e-11 
  912000          298 0.0014740095 -2.9962758e-11 
  913000          298 0.0018841585 -2.9281149e-11 
  914000          298 0.00020057284 -2.9771373e-11 
  915000          298 0.0014377238 -2.9669491e-11 
  916000          298 0.00091431988 -3.0233597e-11 
  917000          298 0.00054685464 -3.0495855e-11 
  918000          298 0.0017311155 -3.0610137e-11 
  919000          298 0.0023057825 -2.9815771e-11 
  920000          298 0.00018967673 -3.0604541e-11 
  921000          298 0.00097439256 -3.057342e-11 
  922000          298  0.001397292 -3.0848606e-11 
  923000          298 0.00064927478 -3.1090934e-11 
  924000          298 0.00082853456 -3.1750614e-11 
  925000          298 0.00015735979 -3.1873889e-11 
  926000          298 0.00053148216 -3.234889e-11 
  927000          298 0.00072953818 -3.1804062e-11 
  928000          298 0.0001411787 -3.2568109e-11 
  929000          298 0.0012492567 -3.2253401e-11 
  930000          298 0.00068038389 -3.3004791e-11 
  931000          298 0.0016145704 -3.2907028e-11 
  932000          298 0.0010455465 -3.3229921e-11 
  933000          298 0.0011918199 -3.2956862e-11 
  934000          298 0.0020277648 -3.2251247e-11 
  935000          298 0.0014559649 -3.1976997e-11 
  936000          298 0.00035783109 -3.2315725e-11 
  937000          298 0.0018548899 -3.2227003e-11 
  938000          298 0.0011955088 -3.2437939e-11 
  939000          298 0.00053231074 -3.201595e-11 
  940000          298 0.0020870314 -3.1504186e-11 
  941000          298 0.00044109532 -3.2341915e-11 
  942000          298 0.0010970066 -3.2106634e-11 
  943000          298 0.0032028033 -3.0716356e-11 
  944000          298 0.00012864829 -3.1157174e-11 
  945000          298  0.001433436 -3.0852008e-11 
  946000          298 0.00093405658 -3.115559e-11 
  947000          298 0.0017776866 -2.9916729e-11 
  948000          298 0.0015342992 -2.9236026e-11 
  949000          298 0.0013215099 -2.9035013e-11 
  950000          298 0.00033266193 -2.9600438e-11 
  951000          298 0.0027410273 -2.8867678e-11 
  952000          298 0.0010417148 -2.8720345e-11 
  953000          298 0.0010523625 -2.8471332e-11 
  954000          298 0.0019224298 -2.8381703e-11 
  955000          298 0.0013551301 -2.735765e-11 
  956000          298 0.0021702257 -2.6888647e-11 
  957000          298 0.00078646676 -2.6334165e-11 
  958000          298 0.0027265738 -2.5668107e-11 
  959000          298 0.0015716851 -2.5187655e-11 
  960000          298 0.00047984894 -2.5536867e-11 
  961000          298 0.0029963061 -2.4687418e-11 
  962000          298 0.0011634432 -2.4307571e-11 
  963000          298 0.0015923489 -2.4029122e-11 
  964000          298 0.00085440644 -2.4405162e-11 
  965000          298 0.0025537556 -2.2364451e-11 
  966000          298 0.00066049615 -2.2607919e-11 
  967000          298 0.00057110825 -2.3237742e-11 
  968000          298 0.0032608078 -2.1858091e-11 
  969000          298 0.0025626702 -1.9230237e-11 
  970000          298 0.00012180198 -1.9705602e-11 
  971000          298 0.00094690182 -2.0213719e-11 
  972000          298 0.0026400735 -1.9247929e-11 
  973000          298 0.0010482745 -1.8916135e-11 
  974000          298 0.0018027206 -1.819355e-11 
  975000          298 0.0012781507 -1.8251845e-11 
  976000          298 0.0012904549 -1.7671865e-11 
  977000          298 0.0012154931 -1.7544734e-11 
  978000          298 0.0015872718 -1.6917487e-11 
  979000          298 0.0025564218 -1.6247745e-11 
  980000          298 0.0014827415 -1.5257211e-11 
  981000          298 0.00092431719 -1.5228297e-11 
  982000          298 0.0014593546 -1.5122341e-11 
  983000          298 0.00038287605 -1.5884354e-11 
  984000          298  0.001534896 -1.4896018e-11 
  985000          298  0.001365983 -1.4723874e-11 
  986000          298 0.00046233454 -1.5205843e-11 
  987000          298 0.0035876448 -1.3082886e-11 
  988000          298 0.00047044007 -1.3125579e-11 
  989000          298 0.0032298025 -1.1658783e-11 
  990000          298 0.00053946281 -1.1408413e-11 
  991000          298 0.0029381901 -1.0235931e-11 
  992000          298 0.0014045954 -9.9255696e-12 
  993000          298 0.00023684811 -1.0743469e-11 
  994000          298 0.0021478147 -9.8917246e-12 
  995000          298 0.00052244586 -1.0530104e-11 
  996000          298 0.0023110175 -9.1943039e-12 
  997000          298 0.00046599817 -9.618501e-12 
  998000          298 0.0021274714 -8.6960396e-12 
  999000          298 0.0003833552 -9.5033459e-12 
 1000000          298 0.0014875512 -9.2941162e-12 
Loop time of 902.939 on 1 procs for 1000000 steps with 2233 atoms

Performance: 95.687 ns/day, 0.251 hours/ns, 1107.494 timesteps/s
100.0% CPU use with 1 MPI tasks x no OpenMP threads

MPI task timing breakdown:
Section |  min time  |  avg time  |  max time  |%varavg| %total
---------------------------------------------------------------
Pair    | 19.518     | 19.518     | 19.518     |   0.0 |  2.16
Bond    | 674.89     | 674.89     | 674.89     |   0.0 | 74.74
Neigh   | 119.37     | 119.37     | 119.37     |   0.0 | 13.22
Comm    | 59.263     | 59.263     | 59.263     |   0.0 |  6.56
Output  | 2.6162     | 2.6162     | 2.6162     |   0.0 |  0.29
Modify  | 9.2742     | 9.2742     | 9.2742     |   0.0 |  1.03
Other   |            | 18         |            |       |  1.99

Nlocal:    2233 ave 2233 max 2233 min
Histogram: 1 0 0 0 0 0 0 0 0 0
Nghost:    15409 ave 15409 max 15409 min
Histogram: 1 0 0 0 0 0 0 0 0 0
Neighs:    1195 ave 1195 max 1195 min
Histogram: 1 0 0 0 0 0 0 0 0 0

Total # of neighbors = 1195
Ave neighs/atom = 0.535155
Ave special neighs/atom = 6.38424
Neighbor list builds = 2107
Dangerous builds = 0
unfix           3
unfix           4
undump          Pn_Ni-PyC-NH2_with_Xe_xyzmov


Total wall time: 0:17:45
