
# --------------------------------- Initialization -------------------------------------- #
units           real
atom_style      full
boundary        p p p

pair_style      lj/cut 14.000
bond_style      harmonic
angle_style     cosine/periodic
dihedral_style  harmonic
improper_style  fourier

special_bonds   lj/coul 0.0 0.0 1.0
pair_modify     tail no mix arithmetic
#dielectric      1.0
box tilt        large
read_data       data.NiPyC2_experiment_with_Ar
  triclinic box = (0 0 0) to (31.264 37.5702 30.8228) with tilt (0 -0.682783 0)
  1 by 1 by 1 MPI processor grid
  reading atoms ...
  2431 atoms
  scanning bonds ...
  6 = max bonds/atom
  scanning angles ...
  15 = max angles/atom
  scanning dihedrals ...
  8 = max dihedrals/atom
  scanning impropers ...
  3 = max impropers/atom
  reading bonds ...
  2880 bonds
  reading angles ...
  5490 angles
  reading dihedrals ...
  5760 dihedrals
  reading impropers ...
  3780 impropers
  6 = max # of 1-2 neighbors
  9 = max # of 1-3 neighbors
  12 = max # of special neighbors
  special bonds CPU = 0.000960354 secs
  read_data CPU = 0.0327016 secs

#### Atom Groupings ####
group           ar       id   2431   # 55
1 atoms in group ar
group           fram     id   1:2430 # 1:54 56:2431
2430 atoms in group fram
#### END Atom Groupings ####

###
# Speed up Calculations by exluding framework-framework interactions
#   since we are keeping the framework rigid and stationary
#
# neigh_modify keyword values ...
# keyword = exclude
# values  = group group1-ID group2-ID
#
# group1-ID, group2-ID = exclude if one atom is in 1st group, other in 2nd
###
neigh_modify exclude group fram fram

# ----------------------------- Variables ---------------------- #
dump            NiPyC2_experiment_with_Ar_xyzmov all xyz 1000 NiPyC2_experiment_with_Ar_mov.xyz
dump_modify     NiPyC2_experiment_with_Ar_xyzmov element Ni O N C H Ar
variable        dt         equal 1.00
variable        tdamp      equal 100*${dt}
variable        tdamp      equal 100*1
variable        eqtemp     equal 298.00

# ------------------------------ Equilibriation -------------------------------------------- #
# we do not need to perform equilibriation since we are using a rigid framework
# and the (single) adsorbate has already been inserted into the material via GCMC
# which already included an equilibriation phase.
fix             1 ar langevin ${eqtemp} ${eqtemp} ${tdamp} 533641
fix             1 ar langevin 298 ${eqtemp} ${tdamp} 533641
fix             1 ar langevin 298 298 ${tdamp} 533641
fix             1 ar langevin 298 298 100 533641
fix             2 ar nve
#fix             3 fram langevin 298.00 298.00 ${tdamp} 965287
#fix             4 fram nve
thermo          1000
run             200000
Neighbor list info ...
  update every 1 steps, delay 10 steps, check yes
  max neighbors/atom: 2000, page size: 100000
  master list distance cutoff = 16
  ghost atom cutoff = 16
  binsize = 8, bins = 4 5 4
  1 neighbor lists, perpetual/occasional/extra = 1 0 0
  (1) pair lj/cut, perpetual
      attributes: half, newton on
      pair build: half/bin/newton/tri
      stencil: half/bin/3d/newton/tri
      bin: standard
WARNING: Inconsistent image flags (src/domain.cpp:785)
Per MPI rank memory allocation (min/avg/max) = 31.08 | 31.08 | 31.08 Mbytes
Step Temp E_pair E_mol TotEng Press 
       0            0   -4.0509316    41619.543    41615.493   -78615.961 
    1000   0.32115233   -4.0485816    41619.543    41617.821   -78613.627 
    2000  0.083871154   -4.0778857    41619.543    41616.073   -78612.223 
    3000   0.12346197   -4.2008532    41619.543    41616.237   -78610.674 
    4000  0.046769809   -3.9931662    41619.543    41615.889   -78607.717 
    5000   0.13122557   -4.1609739    41619.543    41616.333   -78617.357 
    6000   0.13041913   -3.7540549    41619.543    41616.734   -78609.164 
    7000   0.16960237   -4.3204592    41619.543    41616.451   -78615.514 
    8000 0.0079542894   -4.3435294    41619.543    41615.258    -78616.19 
    9000  0.033794582   -4.2344523    41619.543    41615.554   -78617.821 
   10000   0.02373303   -3.7291973    41619.543    41615.986   -78609.451 
   11000  0.054926592   -4.3029014    41619.543    41615.638    -78614.45 
   12000   0.10157482   -2.6333088    41619.543    41617.646   -78590.767 
   13000   0.16879432   -4.1843112    41619.543    41616.582   -78615.959 
   14000   0.16175425   -3.8727701    41619.543    41616.842   -78608.901 
   15000  0.023176771   -3.9955265    41619.543    41615.716   -78616.372 
   16000  0.046868211   -3.8658861    41619.543    41616.017   -78611.709 
   17000  0.042005107   -4.3187386    41619.543    41615.529    -78614.57 
   18000  0.047836578   -4.0782208    41619.543    41615.812   -78611.974 
   19000  0.070173603   -4.0037258    41619.543    41616.048   -78617.465 
   20000  0.031765828   -4.0302125    41619.543    41615.743   -78617.332 
   21000  0.025031414   -4.1547793    41619.543     41615.57    -78613.47 
   22000   0.33461897   -3.9994345    41619.543    41617.968    -78607.82 
   23000  0.060641187   -3.9369212    41619.543    41616.046   -78618.442 
   24000   0.32076989     -4.03603    41619.543    41617.831   -78608.183 
   25000  0.028733981   -3.9963636    41619.543    41615.755   -78618.513 
   26000   0.33019532   -4.1308559    41619.543    41617.804    -78613.21 
   27000   0.12301389   -4.0394963    41619.543    41616.395   -78616.889 
   28000  0.070086143   -3.7997537    41619.543    41616.251    -78603.52 
   29000  0.028432333   -3.2468982    41619.543    41616.502   -78603.643 
   30000   0.21723447   -4.0468373    41619.543     41617.07    -78614.83 
   31000  0.054781317   -4.1339825    41619.543    41615.806   -78611.514 
   32000  0.094196189   -4.1870345    41619.543    41616.039   -78613.446 
   33000   0.29578818   -3.8397563    41619.543    41617.846   -78609.047 
   34000  0.060781008   -4.0759547    41619.543    41615.908   -78615.391 
   35000   0.33675464   -3.7733548    41619.543    41618.209   -78605.078 
   36000  0.035949443   -3.5665541    41619.543    41616.237   -78605.766 
   37000   0.11402243   -3.8997593    41619.543     41616.47   -78610.974 
   38000   0.13211118   -4.1140764    41619.543    41616.386   -78617.084 
   39000  0.072349186   -4.0416142    41619.543    41616.026   -78608.782 
   40000  0.049386676   -4.1347502    41619.543    41615.766   -78618.323 
   41000  0.052576746   -3.9851638    41619.543    41615.939    -78615.89 
   42000  0.061377534   -3.9115067    41619.543    41616.077   -78611.107 
   43000  0.014742094   -3.4959568    41619.543    41616.154   -78608.016 
   44000   0.25255837   -3.5801419    41619.543    41617.793   -78603.634 
   45000  0.085096285   -3.4323095    41619.543    41616.728   -78602.743 
   46000   0.18489045   -3.4058259    41619.543    41617.477   -78606.688 
   47000    0.1224528   -4.1752779    41619.543    41616.255   -78617.274 
   48000 0.0049618607   -3.9735895    41619.543    41615.606   -78616.834 
   49000  0.048133766   -4.1490367    41619.543    41615.743   -78616.863 
   50000   0.27971524   -4.2157534    41619.543    41617.354   -78614.271 
   51000    0.1833257   -4.1146379    41619.543    41616.757   -78613.727 
   52000   0.31122902    -4.053243    41619.543    41617.745   -78613.032 
   53000  0.015709144   -4.1386743    41619.543    41615.519    -78618.17 
   54000   0.13487984   -3.7769869    41619.543    41616.743   -78610.149 
   55000   0.37206967   -4.3868533    41619.543    41617.852   -78612.149 
   56000  0.044437746    -4.350966    41619.543    41615.514   -78615.144 
   57000   0.09153303   -4.0873191    41619.543    41616.119   -78609.698 
   58000   0.19149751   -4.2119809    41619.543    41616.719   -78614.139 
   59000  0.077328552   -3.9666339    41619.543    41616.137    -78615.26 
   60000   0.18038239   -4.1183755    41619.543    41616.732   -78617.116 
   61000   0.39343238   -4.2792084    41619.543    41618.114   -78612.427 
   62000   0.18488553   -2.3972814    41619.543    41618.485   -78586.508 
   63000  0.099060235   -4.2988575    41619.543    41615.962    -78614.16 
   64000  0.073377762   -4.0341605    41619.543    41616.041   -78616.008 
   65000   0.14105851   -3.4661836    41619.543    41617.099   -78600.389 
   66000   0.27992008   -4.0690356    41619.543    41617.502     -78615.1 
   67000   0.36816206   -4.0853513    41619.543    41618.125   -78611.675 
   68000   0.13676004   -3.6583987    41619.543    41616.876   -78606.486 
   69000 0.0020274818   -3.6186326    41619.543    41615.939   -78607.371 
   70000   0.16681542   -3.9865872    41619.543    41616.765   -78611.614 
   71000   0.41168651   -4.3144566    41619.543    41618.211   -78611.892 
   72000  0.063177991   -3.5556517    41619.543    41616.445   -78609.279 
   73000  0.033938275   -2.6932796    41619.543    41617.096   -78601.112 
   74000   0.05705716   -4.1245687    41619.543    41615.832   -78614.681 
   75000  0.023393939   -4.1162743    41619.543    41615.597   -78617.494 
   76000    0.3039754    -4.042207    41619.543    41617.703   -78615.657 
   77000   0.13777795   -3.9607164    41619.543    41616.581   -78615.699 
   78000   0.16057609    -3.975074    41619.543    41616.731   -78612.878 
   79000   0.24266555   -4.0463552    41619.543    41617.255    -78615.07 
   80000   0.17238026   -3.7721738    41619.543     41617.02   -78611.434 
   81000  0.093741684   -4.0903267    41619.543    41616.132   -78613.503 
   82000    0.1041569   -3.9665751    41619.543    41616.331   -78610.445 
   83000  0.017203748   -4.2673062    41619.543    41615.401   -78612.942 
   84000    0.3043225   -3.9679273    41619.543     41617.78   -78616.185 
   85000   0.32556251   -3.9311935    41619.543     41617.97   -78608.411 
   86000   0.12251476   -3.9494574    41619.543    41616.481   -78607.715 
   87000  0.093336095   -3.7690869    41619.543     41616.45   -78605.654 
   88000   0.13818464   -3.7318637    41619.543    41616.812   -78604.607 
   89000   0.45221848   -3.9695727    41619.543    41618.849   -78611.757 
   90000  0.075630916   -4.0272947    41619.543    41616.064   -78617.967 
   91000  0.053954675   -3.4873978    41619.543    41616.447   -78607.675 
   92000  0.009021418   -2.9537762    41619.543    41616.655   -78601.499 
   93000  0.043406154   -4.1797722    41619.543    41615.678   -78614.397 
   94000  0.019064413   -4.0056831    41619.543    41615.676   -78618.472 
   95000    0.1266425   -4.0558477    41619.543    41616.405   -78613.496 
   96000   0.08146676   -4.1101367    41619.543    41616.023   -78615.069 
   97000  0.098651699   -3.9720953    41619.543    41616.286   -78610.179 
   98000   0.09665216   -2.7478256    41619.543    41617.496   -78598.592 
   99000   0.23729022   -4.1885849    41619.543    41617.074    -78615.59 
  100000  0.078048309   -3.9856035    41619.543    41616.123   -78618.209 
  101000   0.33998536   -4.0284349    41619.543    41617.978   -78615.569 
  102000  0.061546328   -3.9895189    41619.543        41616   -78616.275 
  103000   0.25640747   -3.9203732    41619.543     41617.48   -78609.613 
  104000  0.053446565   -4.0095385    41619.543    41615.921   -78617.731 
  105000  0.029784254   -3.3891029    41619.543     41616.37   -78607.067 
  106000  0.091938493   -4.0736091    41619.543    41616.136   -78616.529 
  107000 0.0067210554   -3.9859507    41619.543    41615.606    -78615.68 
  108000   0.21907805   -3.1734612    41619.543    41617.957   -78601.894 
  109000  0.033461467   -4.1068945    41619.543    41615.679   -78615.501 
  110000  0.053112993   -4.3375206    41619.543    41615.591   -78615.485 
  111000  0.055599143    -4.082168    41619.543    41615.864   -78611.784 
  112000  0.028977878   -4.2855493    41619.543    41615.468   -78615.271 
  113000   0.28464747   -3.7411783    41619.543    41617.864   -78608.747 
  114000   0.07017938   -3.6010751    41619.543    41616.451   -78606.724 
  115000  0.018598759   -3.9155417    41619.543    41615.763   -78617.167 
  116000  0.087055911   -3.8454465    41619.543    41616.329   -78604.514 
  117000 0.0061520118   -3.9549848    41619.543    41615.633   -78615.495 
  118000  0.055713291   -4.0092473    41619.543    41615.938   -78617.498 
  119000   0.16831274   -4.2965161    41619.543    41616.466   -78611.954 
  120000  0.022338782   -3.3765325    41619.543    41616.329   -78607.716 
  121000   0.15216014   -3.1291674    41619.543    41617.516   -78601.149 
  122000  0.093509271   -3.9680687    41619.543    41616.253   -78618.118 
  123000   0.19722208   -3.9251223    41619.543    41617.047   -78615.411 
  124000   0.11585828   -3.6268047    41619.543    41616.756   -78608.126 
  125000   0.19419376   -4.0489669    41619.543    41616.901   -78616.742 
  126000   0.14436064    -4.162694    41619.543    41616.426   -78617.445 
  127000   0.14719512   -4.1927576    41619.543    41616.417   -78616.933 
  128000  0.032197382   -3.9930301    41619.543    41615.784    -78617.86 
  129000  0.054883036   -3.8499127    41619.543    41616.091   -78614.386 
  130000   0.32439718   -3.6674788    41619.543    41618.226   -78601.821 
  131000   0.11740288   -4.2358888    41619.543    41616.158   -78614.841 
  132000   0.35830628   -4.3861586    41619.543    41617.753   -78612.486 
  133000   0.11336493   -3.6490595    41619.543    41616.716   -78607.523 
  134000   0.12923762   -2.9517313    41619.543    41617.528   -78600.125 
  135000  0.053292426   -4.0787373    41619.543    41615.851   -78616.334 
  136000   0.20422414   -3.5510043    41619.543    41617.472   -78605.494 
  137000   0.19368897   -3.8015801    41619.543    41617.145   -78609.867 
  138000   0.20057605    -4.120969    41619.543    41616.875   -78615.613 
  139000   0.21753639   -3.9898352    41619.543    41617.129   -78615.387 
  140000    0.1237508   -4.0951778    41619.543    41616.345   -78616.664 
  141000   0.13429446   -3.7299605    41619.543    41616.786   -78606.574 
  142000   0.14790681   -3.5875465    41619.543    41617.027   -78608.161 
  143000  0.061833508   -3.9769644    41619.543    41616.014   -78612.992 
  144000   0.12986122   -4.0600246    41619.543    41616.424   -78609.555 
  145000   0.22370778   -3.8016499    41619.543    41617.362    -78612.26 
  146000    0.2149609   -4.0808426    41619.543     41617.02   -78610.553 
  147000   0.22150817   -4.0739537    41619.543    41617.074   -78614.547 
  148000  0.027867855   -3.9671325    41619.543    41615.778   -78613.102 
  149000  0.097686363   -3.9303539    41619.543    41616.321   -78611.071 
  150000   0.35364113   -4.1926641    41619.543    41617.912   -78610.999 
  151000   0.14123138   -4.3076535    41619.543    41616.259   -78614.209 
  152000  0.081311226   -3.8921191    41619.543     41616.24   -78610.104 
  153000   0.11240931   -3.9600277    41619.543    41616.398   -78615.407 
  154000  0.043561018   -4.2971367    41619.543    41615.562   -78617.947 
  155000   0.13980963   -4.0777044    41619.543    41616.478   -78616.131 
  156000   0.15568162   -3.0582351    41619.543    41617.613   -78603.441 
  157000  0.033862121   -3.7687771    41619.543     41616.02    -78605.46 
  158000   0.15775268   -3.9619846    41619.543    41616.724   -78611.957 
  159000   0.26655492   -4.1952168    41619.543    41617.279   -78613.517 
  160000   0.30415888   -2.1699435    41619.543    41619.577   -78584.742 
  161000  0.081867622   -4.0480545    41619.543    41616.088   -78610.575 
  162000   0.13012228   -4.0534065    41619.543    41616.433   -78612.432 
  163000  0.069226871   -3.3681274    41619.543    41616.677    -78602.87 
  164000  0.083324762   -3.9687251    41619.543    41616.178   -78616.944 
  165000  0.020036263   -4.0045485    41619.543    41615.684   -78617.695 
  166000 0.0046582708   -3.9309448    41619.543    41615.646    -78613.02 
  167000  0.088717922   -3.2653339    41619.543    41616.921   -78602.058 
  168000   0.13102219   -3.7430037    41619.543    41616.749   -78608.395 
  169000  0.043365273   -4.0515486    41619.543    41615.806   -78616.875 
  170000   0.10129593   -4.1608145    41619.543    41616.116   -78614.796 
  171000   0.14003899   -4.1366104    41619.543    41616.421   -78615.958 
  172000  0.021672511   -4.0434854    41619.543    41615.657   -78617.196 
  173000  0.094930485   -3.8628812    41619.543    41616.368   -78612.557 
  174000   0.17753813   -3.8252972    41619.543    41617.004   -78609.828 
  175000   0.11294478   -3.9968191    41619.543    41616.365   -78613.659 
  176000    0.1708187   -3.7625342    41619.543    41617.018   -78610.348 
  177000   0.24714406   -3.7505766    41619.543    41617.583   -78607.228 
  178000   0.31087099   -3.7273964    41619.543    41618.068    -78606.33 
  179000  0.097299907   -3.9884222    41619.543     41616.26   -78617.246 
  180000   0.13015485   -3.1644529    41619.543    41617.322   -78601.008 
  181000  0.074282442   -4.2377044    41619.543    41615.844   -78612.831 
  182000  0.087154253    -3.916302    41619.543    41616.258   -78614.745 
  183000  0.040734741   -4.1219781    41619.543    41615.717   -78617.147 
  184000   0.10443257   -3.9747183    41619.543    41616.325   -78616.526 
  185000  0.040895325   -4.0714514    41619.543    41615.768   -78614.273 
  186000  0.047684499   -4.0034391    41619.543    41615.885   -78615.137 
  187000   0.32001537   -3.5646771    41619.543    41618.297   -78601.415 
  188000    0.0713615    -3.823754    41619.543    41616.237   -78611.697 
  189000   0.20858328   -4.1003192    41619.543    41616.954   -78615.414 
  190000   0.11272542   -3.4046335    41619.543    41616.955   -78608.312 
  191000   0.11330068   -3.8488714    41619.543    41616.515   -78613.663 
  192000  0.058364136   -3.7715803    41619.543    41616.195    -78611.73 
  193000   0.18513673   -3.9982636    41619.543    41616.886   -78616.325 
  194000  0.092197364    -3.997114    41619.543    41616.214   -78616.597 
  195000   0.29091672   -4.3865947    41619.543    41617.264   -78612.657 
  196000   0.10528484   -4.3777874    41619.543    41615.928   -78615.022 
  197000   0.13688813   -4.1964539    41619.543    41616.339   -78616.874 
  198000   0.12542749    -3.926174    41619.543    41616.526   -78616.988 
  199000   0.15963619   -3.7358847    41619.543    41616.964   -78608.557 
  200000   0.23734631   -4.0517725    41619.543    41617.211   -78613.975 
Loop time of 193.946 on 1 procs for 200000 steps with 2431 atoms

Performance: 89.097 ns/day, 0.269 hours/ns, 1031.214 timesteps/s
100.0% CPU use with 1 MPI tasks x no OpenMP threads

MPI task timing breakdown:
Section |  min time  |  avg time  |  max time  |%varavg| %total
---------------------------------------------------------------
Pair    | 3.948      | 3.948      | 3.948      |   0.0 |  2.04
Bond    | 151.25     | 151.25     | 151.25     |   0.0 | 77.99
Neigh   | 20.487     | 20.487     | 20.487     |   0.0 | 10.56
Comm    | 12.607     | 12.607     | 12.607     |   0.0 |  6.50
Output  | 0.56105    | 0.56105    | 0.56105    |   0.0 |  0.29
Modify  | 1.2002     | 1.2002     | 1.2002     |   0.0 |  0.62
Other   |            | 3.89       |            |       |  2.01

Nlocal:    2431 ave 2431 max 2431 min
Histogram: 1 0 0 0 0 0 0 0 0 0
Nghost:    16166 ave 16166 max 16166 min
Histogram: 1 0 0 0 0 0 0 0 0 0
Neighs:    1172 ave 1172 max 1172 min
Histogram: 1 0 0 0 0 0 0 0 0 0

Total # of neighbors = 1172
Ave neighs/atom = 0.482106
Ave special neighs/atom = 6.58988
Neighbor list builds = 289
Dangerous builds = 0
unfix           1
unfix           2
#unfix           3
#unfix           4

# --------------------- Production (data gathering) --------------------------------------- #
# A simple way to hold atoms stationary is to not include those atoms in your time integration.
reset_timestep  0

fix             3 ar nvt temp ${eqtemp} ${eqtemp} ${tdamp}
fix             3 ar nvt temp 298 ${eqtemp} ${tdamp}
fix             3 ar nvt temp 298 298 ${tdamp}
fix             3 ar nvt temp 298 298 100

###
#  mean-squared disp of grp 1
#
# A vector of four quantities is calculated by this compute:
# The first 3 elements of the vector are the squared dx,dy,dz displacements, summed and averaged over atoms in the group.
# The fourth element is the total squared displacement, i.e. (dx*dx + dy*dy + dz*dz),
#  summed and averaged over atoms in the group.
#
# The slope of the MSD versus time is proportional to the diffusion coefficient.
# MSD values can be accumulated in a vector via the fix vector command,
#   and a line fit to the vector to compute its slope via the variable slope function,
#   and thus extract D.
#
# fix ID group-ID vector Nevery value1 value2 ...
#
# c_ID[I] = Ith component of global vector calculated by a compute with ID
# f_ID = global scalar calculated by a fix with ID
# v_name = value calculated by an equal-style variable with name
#
# variable name style args...
#
# The slope() function uses linear regression to fit a line to the set of points,
#   equally spaced by 1 in their x coordinate: (1,V1), (2,V2), …, (N,VN),
#   where the Vi are the values in the global vector of length N.
#   The returned value is the slope of the line.
#   If the line has a single point or is vertical, it returns 1.0e20.
###
compute         msd all msd com yes
fix             4 ar vector 500 c_msd[4]
variable        fitslope equal slope(f_4)/6/(500*dt)

thermo_style    custom step v_eqtemp c_msd[4] v_fitslope # prints this info to log file

thermo          1000
run             1000000
WARNING: Inconsistent image flags (src/domain.cpp:785)
Per MPI rank memory allocation (min/avg/max) = 31.83 | 31.83 | 31.83 Mbytes
Step v_eqtemp c_msd[4] v_fitslope 
       0          298 8.2682747e-31 3.3333333e+16 
    1000          298 0.0011270259 1.8783765e-07 
    2000          298 0.00017358334 6.781044e-08 
    3000          298 0.0029912608 1.149389e-07 
    4000          298  0.021160202 6.6302813e-07 
    5000          298 0.0093866408 6.2346553e-07 
    6000          298  0.010193772 4.1555254e-07 
    7000          298    0.0338575 6.0907922e-07 
    8000          298   0.05234925 9.6561817e-07 
    9000          298  0.023335002 8.2297192e-07 
   10000          298 0.0065937736 5.5438126e-07 
   11000          298  0.013339887 3.9887197e-07 
   12000          298 0.0097209165 2.6913878e-07 
   13000          298 0.0062201721 1.8974252e-07 
   14000          298  0.012397868 1.4084886e-07 
   15000          298  0.013831814 1.0567195e-07 
   16000          298 0.0091474787 8.0641067e-08 
   17000          298  0.011225459 5.3659423e-08 
   18000          298  0.011133276 4.5290051e-08 
   19000          298 0.00039838565 8.8343168e-09 
   20000          298 0.0048633487 -1.3799321e-08 
   21000          298 0.00059198846 -3.4035452e-08 
   22000          298  0.003239091 -4.7168755e-08 
   23000          298 0.0011943627 -6.0233796e-08 
   24000          298  0.016174461 -5.3652409e-08 
   25000          298  0.051520697 -3.3890602e-09 
   26000          298  0.056232722 6.3776799e-08 
   27000          298  0.063706758 1.1173458e-07 
   28000          298  0.052123897 1.5003657e-07 
   29000          298  0.067224619 1.8386597e-07 
   30000          298  0.045774494 1.9895855e-07 
   31000          298  0.064666348 2.2154198e-07 
   32000          298   0.04652737 2.263866e-07 
   33000          298  0.049899507 2.338715e-07 
   34000          298  0.058902514 2.4109616e-07 
   35000          298  0.038244331 2.3820686e-07 
   36000          298  0.068031598 2.4568022e-07 
   37000          298  0.035173358 2.4014976e-07 
   38000          298    0.0574798 2.361544e-07 
   39000          298  0.073016354 2.4808144e-07 
   40000          298  0.054723795 2.4605535e-07 
   41000          298  0.044766239 2.4077705e-07 
   42000          298  0.046203361 2.3537376e-07 
   43000          298  0.063358597 2.3562587e-07 
   44000          298   0.04982096 2.2983419e-07 
   45000          298  0.055061838 2.2709562e-07 
   46000          298  0.048691316 2.2105214e-07 
   47000          298  0.049791128 2.1453933e-07 
   48000          298  0.045046968 2.0632368e-07 
   49000          298   0.10169373 2.160747e-07 
   50000          298   0.17222655 2.5128547e-07 
   51000          298   0.25653797 3.0969629e-07 
   52000          298   0.23430375 3.6758368e-07 
   53000          298   0.23120076 4.1217446e-07 
   54000          298   0.26991107 4.5754339e-07 
   55000          298    0.2296698 4.9721905e-07 
   56000          298   0.24433001 5.2499721e-07 
   57000          298   0.21011347 5.4813219e-07 
   58000          298   0.23537247 5.7037893e-07 
   59000          298   0.20414596 5.8410852e-07 
   60000          298   0.29979132 6.1184623e-07 
   61000          298   0.41810898 6.6588495e-07 
   62000          298   0.35187181 7.1087358e-07 
   63000          298   0.38532589 7.5017708e-07 
   64000          298   0.35584811 7.7918253e-07 
   65000          298   0.44014378 8.2207476e-07 
   66000          298   0.43346189 8.6250202e-07 
   67000          298   0.34875347 8.8318569e-07 
   68000          298   0.40963655 9.0633215e-07 
   69000          298   0.31413845 9.1619174e-07 
   70000          298    0.2418031 9.081978e-07 
   71000          298   0.22113622 8.8980597e-07 
   72000          298   0.24179036 8.7978762e-07 
   73000          298   0.23936669 8.6532689e-07 
   74000          298   0.22705461 8.5211747e-07 
   75000          298   0.23480128 8.3879772e-07 
   76000          298   0.25475932 8.2693946e-07 
   77000          298   0.22266492 8.1143228e-07 
   78000          298   0.22333923 7.9629026e-07 
   79000          298   0.23785706 7.8554233e-07 
   80000          298   0.22434399 7.7033057e-07 
   81000          298   0.20632365 7.5667032e-07 
   82000          298   0.24333815 7.4307622e-07 
   83000          298   0.23094962 7.3360629e-07 
   84000          298   0.23342185 7.2004784e-07 
   85000          298   0.28712231 7.1515146e-07 
   86000          298   0.24490849 7.0758847e-07 
   87000          298    0.1524709 6.8837558e-07 
   88000          298  0.081646938 6.6035108e-07 
   89000          298  0.038777722 6.2757996e-07 
   90000          298  0.058735298 5.9698929e-07 
   91000          298  0.057775244 5.6846651e-07 
   92000          298  0.038486886 5.4012472e-07 
   93000          298  0.075604754 5.1553236e-07 
   94000          298  0.056017276 4.9214201e-07 
   95000          298  0.060048803 4.6889575e-07 
   96000          298  0.050815649 4.4656208e-07 
   97000          298  0.055642578 4.2487517e-07 
   98000          298  0.045458423 4.0408841e-07 
   99000          298  0.047016539 3.8424293e-07 
  100000          298  0.065144418 3.6593222e-07 
  101000          298  0.050662529 3.4887466e-07 
  102000          298  0.050118929 3.3153404e-07 
  103000          298  0.051086102 3.1532906e-07 
  104000          298  0.061574502 2.9996492e-07 
  105000          298  0.042255356 2.8517333e-07 
  106000          298  0.066416226 2.7134832e-07 
  107000          298  0.076138274 2.6007462e-07 
  108000          298  0.035297513 2.4669306e-07 
  109000          298  0.030286777 2.3248399e-07 
  110000          298  0.059859887 2.2085471e-07 
  111000          298   0.04861926 2.0952173e-07 
  112000          298  0.077290409 2.0010981e-07 
  113000          298   0.09665645 1.9277458e-07 
  114000          298   0.14057584 1.8908196e-07 
  115000          298   0.12099498 1.8445502e-07 
  116000          298   0.13076305 1.8098026e-07 
  117000          298   0.13341144 1.7729988e-07 
  118000          298    0.1242246 1.7360513e-07 
  119000          298   0.12712041 1.7023728e-07 
  120000          298   0.12026004 1.6571079e-07 
  121000          298   0.12416601 1.6234625e-07 
  122000          298   0.11996708 1.579817e-07 
  123000          298    0.1133784 1.5482014e-07 
  124000          298   0.13861094 1.5143241e-07 
  125000          298   0.11329206 1.4850843e-07 
  126000          298   0.12448757 1.4496195e-07 
  127000          298   0.12666909 1.4177537e-07 
  128000          298   0.11837502 1.3903799e-07 
  129000          298   0.13032656 1.3642393e-07 
  130000          298   0.13335936 1.3412957e-07 
  131000          298   0.11255264 1.3083694e-07 
  132000          298   0.12263759 1.2857742e-07 
  133000          298   0.12747575 1.2593715e-07 
  134000          298   0.11880736 1.2332097e-07 
  135000          298   0.12623183 1.2113323e-07 
  136000          298   0.12392483 1.1882292e-07 
  137000          298   0.14380351 1.1682407e-07 
  138000          298   0.22677093 1.1867253e-07 
  139000          298   0.23182933 1.2241643e-07 
  140000          298   0.21418228 1.2540046e-07 
  141000          298   0.20894306 1.275323e-07 
  142000          298    0.2423231 1.3061212e-07 
  143000          298   0.22987245 1.3321372e-07 
  144000          298   0.23851954 1.3655394e-07 
  145000          298   0.24718479 1.3923272e-07 
  146000          298   0.21486214 1.4154755e-07 
  147000          298   0.25704954 1.4376975e-07 
  148000          298   0.20999685 1.456014e-07 
  149000          298   0.24920373 1.4764543e-07 
  150000          298   0.23758865 1.4929854e-07 
  151000          298   0.24065729 1.5106422e-07 
  152000          298   0.22968633 1.5318923e-07 
  153000          298   0.24115823 1.5414287e-07 
  154000          298   0.22407265 1.5572605e-07 
  155000          298   0.24274528 1.5654328e-07 
  156000          298    0.2355882 1.5784736e-07 
  157000          298   0.21624304 1.5902886e-07 
  158000          298   0.13608492 1.5689537e-07 
  159000          298   0.13173594 1.5347666e-07 
  160000          298   0.12261901 1.5047701e-07 
  161000          298   0.12899853 1.4729084e-07 
  162000          298   0.11099698 1.4396006e-07 
  163000          298   0.17525699 1.4212882e-07 
  164000          298   0.25731119 1.4347742e-07 
  165000          298   0.25414877 1.449113e-07 
  166000          298   0.18539496 1.4481462e-07 
  167000          298   0.14005022 1.4289733e-07 
  168000          298   0.11727023 1.3953444e-07 
  169000          298   0.11284573 1.365296e-07 
  170000          298   0.13121909 1.3383605e-07 
  171000          298    0.1304856 1.3150409e-07 
  172000          298   0.13010522 1.2877539e-07 
  173000          298  0.096760025 1.2583817e-07 
  174000          298  0.056575509 1.2149049e-07 
  175000          298  0.054189256 1.1662534e-07 
  176000          298  0.074933632 1.1274396e-07 
  177000          298   0.05192356 1.0837075e-07 
  178000          298  0.044229069 1.0408443e-07 
  179000          298  0.057752806 9.9945551e-08 
  180000          298  0.042824491  9.55772e-08 
  181000          298  0.057105674 9.1724268e-08 
  182000          298  0.051264601 8.7751308e-08 
  183000          298  0.061257499 8.4388274e-08 
  184000          298  0.052156914 8.0657039e-08 
  185000          298  0.037664056 7.6993218e-08 
  186000          298  0.039450476 7.3066976e-08 
  187000          298   0.07382299 7.0184139e-08 
  188000          298  0.050404986 6.6985719e-08 
  189000          298  0.055987816 6.3877488e-08 
  190000          298  0.037619031 6.0420773e-08 
  191000          298  0.056408012 5.7609201e-08 
  192000          298   0.06136243 5.4810185e-08 
  193000          298  0.056469891 5.2113059e-08 
  194000          298  0.060119156 4.9574777e-08 
  195000          298  0.050771358 4.6819387e-08 
  196000          298  0.041018262 4.4176103e-08 
  197000          298  0.044718443 4.1309127e-08 
  198000          298   0.04653884 3.887028e-08 
  199000          298  0.055210443 3.6473212e-08 
  200000          298  0.055060423 3.4145425e-08 
  201000          298  0.046610485 3.1754116e-08 
  202000          298  0.052841591 2.9476307e-08 
  203000          298  0.049436143 2.7289236e-08 
  204000          298  0.063652893 2.550239e-08 
  205000          298  0.060995413 2.3518234e-08 
  206000          298  0.037587252 2.1387031e-08 
  207000          298  0.061011764 1.9397513e-08 
  208000          298   0.11567332 1.8639096e-08 
  209000          298   0.15899499 1.9143994e-08 
  210000          298   0.11045231 1.8876889e-08 
  211000          298   0.11472788 1.8596772e-08 
  212000          298   0.10583391 1.8203967e-08 
  213000          298   0.13910899 1.8253684e-08 
  214000          298    0.1179894 1.7963224e-08 
  215000          298   0.11976758 1.7894671e-08 
  216000          298   0.12899893 1.7677437e-08 
  217000          298   0.11226954 1.7211857e-08 
  218000          298    0.1163063 1.7052299e-08 
  219000          298   0.13605791 1.6874203e-08 
  220000          298   0.14095554 1.6969313e-08 
  221000          298   0.13035655 1.7150712e-08 
  222000          298   0.14350541 1.7064686e-08 
  223000          298   0.16347389 1.7678408e-08 
  224000          298   0.11114443 1.7520057e-08 
  225000          298   0.14965667 1.759053e-08 
  226000          298   0.10776047 1.7339383e-08 
  227000          298   0.12509235 1.7148085e-08 
  228000          298   0.12224877 1.6834324e-08 
  229000          298   0.12233913 1.6628942e-08 
  230000          298   0.12994633 1.6460817e-08 
  231000          298   0.11371148 1.625339e-08 
  232000          298    0.1267529 1.6245841e-08 
  233000          298     0.123328 1.6045157e-08 
  234000          298   0.15700312 1.6394503e-08 
  235000          298   0.12066418 1.6269797e-08 
  236000          298   0.13511368 1.6263325e-08 
  237000          298  0.077084288 1.545005e-08 
  238000          298  0.040271979 1.3934609e-08 
  239000          298  0.050338208 1.2518628e-08 
  240000          298  0.053260905 1.1103921e-08 
  241000          298  0.049187844 9.7932993e-09 
  242000          298  0.068648977 8.634435e-09 
  243000          298  0.049110928 7.4082659e-09 
  244000          298  0.058240646 6.2796564e-09 
  245000          298  0.046187493 4.9797597e-09 
  246000          298  0.065676603 4.0067693e-09 
  247000          298  0.042699426 2.756596e-09 
  248000          298  0.050165829  1.65992e-09 
  249000          298  0.055265167 5.6064637e-10 
  250000          298   0.05294651 -5.1370668e-10 
  251000          298  0.035328106 -1.7152373e-09 
  252000          298   0.04983265 -2.8150102e-09 
  253000          298  0.044045167 -3.8904976e-09 
  254000          298  0.051324934 -4.9801379e-09 
  255000          298  0.060212886 -5.8215643e-09 
  256000          298  0.046627262 -6.793756e-09 
  257000          298  0.057198155 -7.6244591e-09 
  258000          298  0.057768638 -8.5290181e-09 
  259000          298  0.047174247 -9.4191628e-09 
  260000          298  0.058924826 -1.0176964e-08 
  261000          298  0.019260298 -1.1355046e-08 
  262000          298  0.012017994 -1.2744951e-08 
  263000          298  0.010250773 -1.4075406e-08 
  264000          298  0.010378912 -1.5443592e-08 
  265000          298  0.015038493 -1.6647307e-08 
  266000          298 0.0070778298 -1.796675e-08 
  267000          298 0.0062465646 -1.923635e-08 
  268000          298 0.0094795432 -2.0465607e-08 
  269000          298  0.010078757 -2.1647416e-08 
  270000          298  0.012526103 -2.2798554e-08 
  271000          298 0.0044547785 -2.3941748e-08 
  272000          298  0.011617947 -2.5064607e-08 
  273000          298 0.0053832813 -2.6174789e-08 
  274000          298  0.012621523 -2.7190597e-08 
  275000          298 0.0066091957 -2.8250405e-08 
  276000          298  0.016543806 -2.9183101e-08 
  277000          298 0.0040596611 -3.0206329e-08 
  278000          298  0.012820449 -3.1149507e-08 
  279000          298  0.010024228 -3.2102258e-08 
  280000          298 0.0092097916 -3.3003323e-08 
  281000          298   0.01264936 -3.3885095e-08 
  282000          298 0.0080865998 -3.4724819e-08 
  283000          298  0.011923986 -3.558993e-08 
  284000          298 0.0097299356 -3.6380196e-08 
  285000          298  0.010094984 -3.7208422e-08 
  286000          298 0.0064175543 -3.80191e-08 
  287000          298  0.017653263 -3.8752202e-08 
  288000          298   0.01116491 -3.9439876e-08 
  289000          298  0.010413362 -4.018011e-08 
  290000          298 0.0070920296 -4.0893827e-08 
  291000          298  0.013030745 -4.1569596e-08 
  292000          298  0.011351415 -4.2259966e-08 
  293000          298 0.0050961853 -4.2940688e-08 
  294000          298  0.013148233 -4.3576109e-08 
  295000          298 0.0074246553 -4.423983e-08 
  296000          298  0.007126388 -4.4872135e-08 
  297000          298  0.015062195 -4.5458026e-08 
  298000          298 0.0054338582 -4.6042792e-08 
  299000          298  0.012163862 -4.662959e-08 
  300000          298  0.010016464 -4.7139779e-08 
  301000          298 0.0066984554 -4.7697879e-08 
  302000          298  0.017312912 -4.8162452e-08 
  303000          298 0.0050083217 -4.8719343e-08 
  304000          298  0.018135902 -4.9158966e-08 
  305000          298  0.010798303 -4.9645649e-08 
  306000          298   0.01154054 -5.0131685e-08 
  307000          298  0.011032011 -5.0581606e-08 
  308000          298  0.016522504 -5.1006616e-08 
  309000          298 0.0085528206 -5.1436961e-08 
  310000          298  0.011978378 -5.1856912e-08 
  311000          298   0.01005929 -5.2236879e-08 
  312000          298  0.010509417 -5.2638626e-08 
  313000          298  0.017164537 -5.3002491e-08 
  314000          298 0.0065891035 -5.3397454e-08 
  315000          298 0.0079272766 -5.3775683e-08 
  316000          298  0.015063462 -5.4128284e-08 
  317000          298  0.012341318 -5.4457876e-08 
  318000          298  0.013183628 -5.4769305e-08 
  319000          298   0.01261241 -5.5098839e-08 
  320000          298    0.0028754 -5.5449979e-08 
  321000          298  0.001643188 -5.5852618e-08 
  322000          298 0.0016043445 -5.6234154e-08 
  323000          298 0.0015099349 -5.6617737e-08 
  324000          298 0.0021714227 -5.6980984e-08 
  325000          298 0.00052572904 -5.7340297e-08 
  326000          298 0.0016072488 -5.7689766e-08 
  327000          298  0.001823494 -5.803158e-08 
  328000          298 0.0040901604 -5.8328129e-08 
  329000          298 5.2896619e-06 -5.8659061e-08 
  330000          298 0.0021852082 -5.896768e-08 
  331000          298 0.00034491336 -5.9280465e-08 
  332000          298 0.0017723338 -5.9572759e-08 
  333000          298 0.00066699329 -5.9866919e-08 
  334000          298 0.0041212872 -6.0130775e-08 
  335000          298  0.013755237 -6.0294029e-08 
  336000          298  0.010414379 -6.0484295e-08 
  337000          298  0.009177044 -6.0650019e-08 
  338000          298  0.010243737 -6.0806427e-08 
  339000          298  0.013186208 -6.096358e-08 
  340000          298 0.0093910905 -6.1114288e-08 
  341000          298  0.014352373 -6.1246847e-08 
  342000          298 0.0076909167 -6.1407314e-08 
  343000          298   0.01294515 -6.1519213e-08 
  344000          298  0.013958731 -6.162339e-08 
  345000          298 0.00048568112 -6.1822562e-08 
  346000          298  0.003715262 -6.2010052e-08 
  347000          298 0.0010090123 -6.2208709e-08 
  348000          298  0.013493639 -6.2331087e-08 
  349000          298 0.0068411761 -6.243517e-08 
  350000          298  0.015867254 -6.250911e-08 
  351000          298  0.011870857 -6.2607102e-08 
  352000          298 0.0065201753 -6.2723068e-08 
  353000          298  0.028211991 -6.2720579e-08 
  354000          298  0.062513273 -6.24554e-08 
  355000          298  0.051870645 -6.2203685e-08 
  356000          298  0.050043627 -6.1943522e-08 
  357000          298  0.058720539 -6.1701262e-08 
  358000          298   0.05788589 -6.1441665e-08 
  359000          298  0.048085241 -6.1218146e-08 
  360000          298  0.063030164 -6.098052e-08 
  361000          298  0.044025854 -6.0711592e-08 
  362000          298   0.02712194 -6.0652857e-08 
  363000          298  0.018245353 -6.064762e-08 
  364000          298 0.0099810967 -6.0730057e-08 
  365000          298 0.0074055867 -6.0802173e-08 
  366000          298  0.010392734 -6.086363e-08 
  367000          298 0.00079313387 -6.099029e-08 
  368000          298 0.0022347181 -6.1114868e-08 
  369000          298 0.00091368588 -6.1237219e-08 
  370000          298 0.0043945444 -6.1330007e-08 
  371000          298 0.00099076757 -6.1443026e-08 
  372000          298 0.0072479797 -6.1517503e-08 
  373000          298  0.001330468 -6.1609068e-08 
  374000          298 0.0040752949 -6.1701212e-08 
  375000          298 0.00015428018 -6.1793127e-08 
  376000          298 0.0021312277 -6.1886026e-08 
  377000          298 0.00048611123 -6.1972772e-08 
  378000          298 0.0025016267 -6.204989e-08 
  379000          298 0.0011704424 -6.2128138e-08 
  380000          298 0.00063365485 -6.2208331e-08 
  381000          298 0.0049766212 -6.2263591e-08 
  382000          298 0.00012587807 -6.2332212e-08 
  383000          298 0.0062599472 -6.237969e-08 
  384000          298  0.012322805 -6.2353025e-08 
  385000          298  0.012902902 -6.2321909e-08 
  386000          298  0.012488027 -6.2320806e-08 
  387000          298  0.010254763 -6.2308687e-08 
  388000          298  0.008542065 -6.229849e-08 
  389000          298 0.0079598176 -6.2280042e-08 
  390000          298 0.0087517582 -6.2294347e-08 
  391000          298 0.0099207923 -6.2269103e-08 
  392000          298  0.011892409 -6.2258521e-08 
  393000          298  0.004181331 -6.2250046e-08 
  394000          298 0.00058207634 -6.2287319e-08 
  395000          298 0.0064561343 -6.2304619e-08 
  396000          298  0.024783273 -6.2227284e-08 
  397000          298  0.027078071 -6.2072209e-08 
  398000          298  0.024110577 -6.1972919e-08 
  399000          298  0.020227718 -6.1853034e-08 
  400000          298  0.038338853 -6.1682987e-08 
  401000          298  0.021014938 -6.155441e-08 
  402000          298   0.03918628 -6.1372146e-08 
  403000          298  0.012587797 -6.1285193e-08 
  404000          298  0.021319411 -6.1211796e-08 
  405000          298   0.02118826 -6.1100185e-08 
  406000          298  0.018178001 -6.0986554e-08 
  407000          298  0.027381466 -6.0845106e-08 
  408000          298  0.035597885 -6.0689801e-08 
  409000          298  0.021114307 -6.0545297e-08 
  410000          298 0.0015491159 -6.0537788e-08 
  411000          298 0.00030442239 -6.0556242e-08 
  412000          298  0.003463749 -6.0560291e-08 
  413000          298 0.0022358135 -6.0565092e-08 
  414000          298 0.0019028032 -6.0567674e-08 
  415000          298 0.0011189783 -6.0571751e-08 
  416000          298 0.0014985817 -6.0572193e-08 
  417000          298 0.00013678673 -6.057481e-08 
  418000          298 0.0028610279 -6.0571061e-08 
  419000          298 7.6976084e-05 -6.0566983e-08 
  420000          298 0.0014954698 -6.0561702e-08 
  421000          298 0.00024513765 -6.0555869e-08 
  422000          298 0.0019216382 -6.0539579e-08 
  423000          298  0.002101369 -6.0526985e-08 
  424000          298 0.0019747609 -6.0512946e-08 
  425000          298 0.0072729732 -6.0466899e-08 
  426000          298 0.0011205634 -6.0439062e-08 
  427000          298 0.0020718159 -6.0419121e-08 
  428000          298 0.00080355471 -6.0399308e-08 
  429000          298 0.0007545347 -6.0372882e-08 
  430000          298 0.0041658776 -6.0342579e-08 
  431000          298 0.00030181131 -6.0316068e-08 
  432000          298 0.0010864164 -6.0291961e-08 
  433000          298 0.00046069489 -6.0265686e-08 
  434000          298 0.0010204824 -6.0237338e-08 
  435000          298 0.00030198716 -6.0210293e-08 
  436000          298 0.0023365768 -6.017383e-08 
  437000          298 5.6164969e-05 -6.0145006e-08 
  438000          298 0.0026705975 -6.0104346e-08 
  439000          298 0.00025956176 -6.0068756e-08 
  440000          298 0.0054751923 -6.0019265e-08 
  441000          298 0.0089779111 -5.9942426e-08 
  442000          298  0.021851616 -5.9824116e-08 
  443000          298   0.03790241 -5.9596644e-08 
  444000          298  0.014848142 -5.9462951e-08 
  445000          298  0.025280716 -5.9310839e-08 
  446000          298  0.014100651 -5.9190136e-08 
  447000          298  0.031849215 -5.901179e-08 
  448000          298  0.022226174 -5.8876034e-08 
  449000          298  0.049315099 -5.8620579e-08 
  450000          298  0.094160213 -5.8198178e-08 
  451000          298    0.1753304 -5.7415631e-08 
  452000          298   0.17238276 -5.6489555e-08 
  453000          298    0.1868012 -5.5607969e-08 
  454000          298   0.16030005 -5.4839077e-08 
  455000          298   0.15482839 -5.4060216e-08 
  456000          298   0.15118598 -5.3306924e-08 
  457000          298   0.18774407 -5.2436845e-08 
  458000          298   0.16939628 -5.1680532e-08 
  459000          298   0.16525078 -5.0922345e-08 
  460000          298   0.19231787 -5.0024917e-08 
  461000          298   0.14292275 -4.9338468e-08 
  462000          298   0.19662779 -4.8503616e-08 
  463000          298   0.15931065 -4.774068e-08 
  464000          298   0.19432564 -4.6940869e-08 
  465000          298   0.15433498 -4.6179434e-08 
  466000          298   0.13182491 -4.5627635e-08 
  467000          298   0.16693098 -4.492958e-08 
  468000          298   0.16854548 -4.424301e-08 
  469000          298   0.13948849 -4.3674471e-08 
  470000          298   0.22480339 -4.2813006e-08 
  471000          298    0.2980185 -4.1612658e-08 
  472000          298   0.23669559 -4.0557776e-08 
  473000          298   0.29212525 -3.9435503e-08 
  474000          298    0.2722018 -3.8284496e-08 
  475000          298   0.30568089 -3.7075244e-08 
  476000          298   0.26614096 -3.6026807e-08 
  477000          298   0.27357501 -3.4864264e-08 
  478000          298   0.28572401 -3.3807342e-08 
  479000          298   0.27621062 -3.2712144e-08 
  480000          298    0.2820198 -3.1613594e-08 
  481000          298   0.28255375 -3.0551548e-08 
  482000          298   0.30590981 -2.9470519e-08 
  483000          298   0.26727662 -2.8389767e-08 
  484000          298   0.31803334 -2.7294385e-08 
  485000          298   0.24896621 -2.6312167e-08 
  486000          298   0.27324836 -2.5411214e-08 
  487000          298   0.35465114 -2.4167263e-08 
  488000          298   0.39939211 -2.2767257e-08 
  489000          298   0.45455074 -2.1057422e-08 
  490000          298   0.42410088 -1.9498907e-08 
  491000          298    0.5388575 -1.7620362e-08 
  492000          298   0.64504607 -1.5292482e-08 
  493000          298   0.63428031 -1.2917849e-08 
  494000          298   0.58909307 -1.0737865e-08 
  495000          298   0.69599981 -8.2996276e-09 
  496000          298   0.58175786 -6.1080564e-09 
  497000          298   0.61497983 -4.0618339e-09 
  498000          298   0.61644938 -1.8706353e-09 
  499000          298   0.63933773 2.7686589e-10 
  500000          298   0.60140778 2.3247813e-09 
  501000          298   0.64067608 4.4772507e-09 
  502000          298   0.62227205 6.5228009e-09 
  503000          298   0.63070571 8.5907532e-09 
  504000          298   0.63110569 1.0531258e-08 
  505000          298   0.61210133 1.2469508e-08 
  506000          298    0.6285352 1.4456222e-08 
  507000          298    0.5703799 1.6233006e-08 
  508000          298    0.6378303 1.8180383e-08 
  509000          298   0.60738678 1.9959623e-08 
  510000          298   0.63244784 2.1902241e-08 
  511000          298   0.61801313 2.3697852e-08 
  512000          298   0.61909905 2.5556526e-08 
  513000          298   0.60993117 2.7305414e-08 
  514000          298    0.6228732 2.9126449e-08 
  515000          298   0.58821107 3.0717923e-08 
  516000          298   0.60902233 3.2433912e-08 
  517000          298   0.64661027 3.4128087e-08 
  518000          298   0.59460502 3.5838795e-08 
  519000          298    0.5847322 3.7431971e-08 
  520000          298   0.63918309 3.9075246e-08 
  521000          298   0.55072767 4.0549336e-08 
  522000          298   0.61512513 4.2019447e-08 
  523000          298   0.70186454 4.3888271e-08 
  524000          298   0.58398249 4.5456991e-08 
  525000          298   0.66505909 4.7029758e-08 
  526000          298   0.72565781 4.892018e-08 
  527000          298    0.8106606 5.0999699e-08 
  528000          298   0.81798558 5.3277501e-08 
  529000          298   0.88262725 5.5539576e-08 
  530000          298   0.78727574 5.7657263e-08 
  531000          298     0.902019 5.998589e-08 
  532000          298    0.8459688 6.2152413e-08 
  533000          298   0.81070488 6.4202693e-08 
  534000          298   0.82798296 6.634942e-08 
  535000          298   0.82946732 6.8412769e-08 
  536000          298   0.81985243 7.0449188e-08 
  537000          298   0.83701302 7.2487429e-08 
  538000          298   0.82018737 7.4473211e-08 
  539000          298   0.84359883 7.6461456e-08 
  540000          298   0.77972432 7.8291589e-08 
  541000          298   0.95281968 8.0460889e-08 
  542000          298    1.1702618 8.330226e-08 
  543000          298    1.1498106 8.6324608e-08 
  544000          298    1.0104532 8.8804009e-08 
  545000          298    1.1872845 9.168394e-08 
  546000          298    1.1111303 9.4529246e-08 
  547000          298    1.0511011 9.6962546e-08 
  548000          298    1.1138188 9.9593091e-08 
  549000          298   0.96433207 1.0183293e-07 
  550000          298   0.80756866 1.035879e-07 
  551000          298   0.83053072 1.0523494e-07 
  552000          298   0.90409857 1.0697476e-07 
  553000          298   0.82514323 1.0870253e-07 
  554000          298   0.84172501 1.1025458e-07 
  555000          298   0.80100375 1.1181254e-07 
  556000          298   0.88810376 1.134567e-07 
  557000          298   0.82739283  1.14985e-07 
  558000          298   0.82597192 1.1657787e-07 
  559000          298   0.86808712 1.1812117e-07 
  560000          298   0.79892284 1.1955491e-07 
  561000          298   0.85674924 1.2110086e-07 
  562000          298   0.87431686 1.2263514e-07 
  563000          298   0.81672728 1.2414243e-07 
  564000          298   0.87033841 1.255842e-07 
  565000          298   0.74920728 1.2681309e-07 
  566000          298    0.8144048 1.2803868e-07 
  567000          298   0.83405335 1.294119e-07 
  568000          298   0.83104272 1.3081466e-07 
  569000          298   0.82932214 1.3215054e-07 
  570000          298   0.66854839 1.3307017e-07 
  571000          298   0.61990499 1.3367424e-07 
  572000          298   0.61550467 1.3429407e-07 
  573000          298   0.61247086 1.3492862e-07 
  574000          298   0.63136563 1.3560045e-07 
  575000          298   0.63423938 1.3620731e-07 
  576000          298   0.58740577 1.3678212e-07 
  577000          298   0.71526583 1.3756299e-07 
  578000          298    0.8206912 1.3863737e-07 
  579000          298   0.85210915 1.3994744e-07 
  580000          298   0.79810504 1.4107195e-07 
  581000          298   0.84057544 1.422835e-07 
  582000          298   0.79063519 1.4336126e-07 
  583000          298   0.94378059 1.4474631e-07 
  584000          298    1.0124285 1.4633072e-07 
  585000          298    1.1110881 1.4822584e-07 
  586000          298    1.1087392 1.5004451e-07 
  587000          298     1.299523 1.5234013e-07 
  588000          298    1.4256449 1.5509538e-07 
  589000          298    1.3205155 1.5753666e-07 
  590000          298     1.318927 1.6003842e-07 
  591000          298    1.4024933 1.6258156e-07 
  592000          298    1.3216409 1.6502063e-07 
  593000          298    1.3942917 1.6747945e-07 
  594000          298    1.2984433 1.6982855e-07 
  595000          298    1.2348085 1.7186258e-07 
  596000          298     1.371936 1.7409868e-07 
  597000          298    1.4521264 1.7670092e-07 
  598000          298    1.3130582 1.7888489e-07 
  599000          298    1.3883823 1.8124154e-07 
  600000          298    1.3931364 1.8357098e-07 
  601000          298    1.3820922 1.8586491e-07 
  602000          298    1.3685675 1.8801435e-07 
  603000          298    1.3277186 1.9019714e-07 
  604000          298    1.4736168 1.9254449e-07 
  605000          298    1.3156486 1.9469091e-07 
  606000          298    1.3980876 1.9684552e-07 
  607000          298    1.3969772 1.9900675e-07 
  608000          298      1.37473 2.0112914e-07 
  609000          298    1.4255944 2.032142e-07 
  610000          298    1.6142033 2.057739e-07 
  611000          298    1.7146148 2.0870604e-07 
  612000          298    1.5839588 2.1143671e-07 
  613000          298    1.3587505 2.1351622e-07 
  614000          298    1.4643084 2.1552275e-07 
  615000          298      1.71185 2.1814067e-07 
  616000          298    1.6312941 2.2083396e-07 
  617000          298    1.7530819 2.2357463e-07 
  618000          298    1.5290807 2.259676e-07 
  619000          298    1.2894194 2.2770156e-07 
  620000          298    1.3006352 2.2923632e-07 
  621000          298    1.3804354 2.3106023e-07 
  622000          298    1.3686073 2.3277676e-07 
  623000          298    1.3733022 2.3457767e-07 
  624000          298    1.3655921 2.3622323e-07 
  625000          298    1.3603742 2.3794016e-07 
  626000          298    1.4039407 2.3957623e-07 
  627000          298    1.4032829 2.413842e-07 
  628000          298    1.3133748 2.4282375e-07 
  629000          298    1.4262503 2.4456295e-07 
  630000          298     1.186065 2.4581158e-07 
  631000          298    1.0227853 2.4655066e-07 
  632000          298    1.1797759 2.4752433e-07 
  633000          298    1.0758063 2.4843152e-07 
  634000          298    1.0703944 2.4919183e-07 
  635000          298    1.1427384 2.5000533e-07 
  636000          298    1.2733622 2.5118863e-07 
  637000          298    1.4008336 2.5270783e-07 
  638000          298    1.3742313 2.5417404e-07 
  639000          298    1.3921795 2.5569042e-07 
  640000          298    1.2864976 2.5692058e-07 
  641000          298    1.5019029 2.5850504e-07 
  642000          298    1.7319428 2.6060137e-07 
  643000          298    1.6186407 2.6267189e-07 
  644000          298     1.760119 2.6489838e-07 
  645000          298    1.7201708 2.6699741e-07 
  646000          298     1.647984 2.6908054e-07 
  647000          298    1.7177001 2.7115331e-07 
  648000          298    1.6537416 2.7304892e-07 
  649000          298     1.731812 2.7512969e-07 
  650000          298    1.6642339 2.7703543e-07 
  651000          298    1.6842913 2.7902155e-07 
  652000          298    1.6328466 2.8078034e-07 
  653000          298    1.7229061 2.8277836e-07 
  654000          298    1.6634188 2.846042e-07 
  655000          298    1.6461818 2.8644272e-07 
  656000          298    1.7085581 2.882859e-07 
  657000          298    1.6831032 2.9010092e-07 
  658000          298    1.7434669 2.9197906e-07 
  659000          298      1.68286 2.9379056e-07 
  660000          298    1.7838252 2.9572829e-07 
  661000          298    1.6550603 2.9743277e-07 
  662000          298    1.6925479 2.9917775e-07 
  663000          298     1.669971 3.008652e-07 
  664000          298    1.6986016 3.0253775e-07 
  665000          298    1.7083704 3.0423798e-07 
  666000          298    1.7130887 3.0583677e-07 
  667000          298    1.6360297 3.0744552e-07 
  668000          298    1.7478547 3.0908321e-07 
  669000          298    1.6505447 3.1061278e-07 
  670000          298     1.712121 3.1227391e-07 
  671000          298    1.7375965 3.1386831e-07 
  672000          298    1.5801549 3.1527592e-07 
  673000          298     1.706658 3.1669722e-07 
  674000          298    1.7040447 3.1826075e-07 
  675000          298    1.6749827 3.1967428e-07 
  676000          298    1.7110558 3.2119492e-07 
  677000          298    1.6851049 3.226866e-07 
  678000          298    1.6959166 3.240516e-07 
  679000          298    1.6617621 3.2549883e-07 
  680000          298    1.6859608 3.2691376e-07 
  681000          298    1.7245982 3.2829447e-07 
  682000          298     1.628692 3.2959527e-07 
  683000          298    1.6925353 3.309702e-07 
  684000          298    1.5907329 3.322316e-07 
  685000          298    1.3517473 3.3297017e-07 
  686000          298    1.3605066 3.3356635e-07 
  687000          298    1.3338606 3.3414828e-07 
  688000          298    1.3850131 3.3475297e-07 
  689000          298    1.3330253 3.3532099e-07 
  690000          298    1.3787642 3.3594189e-07 
  691000          298    1.3633254 3.364733e-07 
  692000          298    1.3593974 3.3700467e-07 
  693000          298    1.4269101 3.3766912e-07 
  694000          298    1.3608439 3.3816436e-07 
  695000          298    1.3263653 3.3871784e-07 
  696000          298    1.1407652 3.3887567e-07 
  697000          298    1.0980416  3.38788e-07 
  698000          298    1.0784248 3.3877062e-07 
  699000          298    1.1129798 3.387379e-07 
  700000          298    1.0945072 3.3876849e-07 
  701000          298    1.0676618 3.386388e-07 
  702000          298    1.0260505 3.3849818e-07 
  703000          298    1.1786221 3.3851168e-07 
  704000          298    1.1205735 3.3857759e-07 
  705000          298    1.1157948 3.3849352e-07 
  706000          298    1.0247337 3.3835952e-07 
  707000          298    1.1349357 3.3826678e-07 
  708000          298    1.2788352 3.3849744e-07 
  709000          298    1.3796894 3.3899133e-07 
  710000          298    1.3226001 3.3946518e-07 
  711000          298    1.0943609 3.3948975e-07 
  712000          298   0.94637975 3.3914577e-07 
  713000          298    0.8028076 3.3854548e-07 
  714000          298   0.94838412 3.3808729e-07 
  715000          298    1.0846794 3.3787993e-07 
  716000          298     1.059111 3.3774057e-07 
  717000          298    1.0502103 3.3758737e-07 
  718000          298     1.167439 3.3758103e-07 
  719000          298    1.0659101 3.3744535e-07 
  720000          298    1.0430589 3.3731959e-07 
  721000          298    1.0803009 3.3716211e-07 
  722000          298    1.0737654 3.3700659e-07 
  723000          298    1.0721493 3.3679442e-07 
  724000          298     1.064427 3.3667197e-07 
  725000          298    1.0580901 3.364793e-07 
  726000          298    1.0910616 3.363392e-07 
  727000          298    1.0749377 3.3620349e-07 
  728000          298    1.0835541 3.359852e-07 
  729000          298    1.1648802 3.3599385e-07 
  730000          298   0.93898297 3.3566852e-07 
  731000          298   0.73168763 3.3493978e-07 
  732000          298    0.5603817 3.3388177e-07 
  733000          298    0.6160701 3.3280105e-07 
  734000          298   0.59864659 3.3178964e-07 
  735000          298    0.6862077 3.3084582e-07 
  736000          298   0.57329578 3.2982004e-07 
  737000          298   0.66398936 3.2882638e-07 
  738000          298   0.59502932 3.2785806e-07 
  739000          298    0.6407433 3.2683706e-07 
  740000          298   0.69456723  3.25993e-07 
  741000          298   0.59050749 3.2497889e-07 
  742000          298   0.59820481 3.2396883e-07 
  743000          298   0.71760611 3.2311305e-07 
  744000          298   0.84441497 3.2247265e-07 
  745000          298    0.8423223 3.2192247e-07 
  746000          298   0.86691995 3.2137471e-07 
  747000          298   0.77211037 3.2074903e-07 
  748000          298   0.78905425 3.2005221e-07 
  749000          298   0.79938888 3.1946165e-07 
  750000          298   0.87543347 3.1893287e-07 
  751000          298   0.83356577 3.1834152e-07 
  752000          298   0.82095804 3.1778587e-07 
  753000          298   0.73329094 3.1704884e-07 
  754000          298   0.73524169 3.1629723e-07 
  755000          298   0.84368651 3.1567994e-07 
  756000          298   0.82624334 3.1512871e-07 
  757000          298    0.8659247 3.1461222e-07 
  758000          298   0.87128471 3.1410326e-07 
  759000          298   0.81958508 3.1349462e-07 
  760000          298   0.78660348 3.129121e-07 
  761000          298    0.6043703 3.1203415e-07 
  762000          298   0.44656004 3.1087209e-07 
  763000          298    0.4551659 3.096321e-07 
  764000          298   0.42098951 3.0839446e-07 
  765000          298   0.43467967 3.0716855e-07 
  766000          298   0.44537596 3.0597085e-07 
  767000          298      0.41302 3.0472139e-07 
  768000          298   0.45447211 3.0355706e-07 
  769000          298   0.42837011 3.0237126e-07 
  770000          298   0.45039499 3.0119053e-07 
  771000          298   0.41740313 2.9999396e-07 
  772000          298   0.46125227 2.9884711e-07 
  773000          298    0.4407835 2.9765655e-07 
  774000          298   0.43151722 2.9649437e-07 
  775000          298   0.46691897 2.9538381e-07 
  776000          298   0.40948875 2.9418277e-07 
  777000          298   0.45788004 2.9307593e-07 
  778000          298   0.34252691 2.9181288e-07 
  779000          298   0.25424261 2.904013e-07 
  780000          298   0.30697653 2.8903648e-07 
  781000          298   0.30269946 2.8768748e-07 
  782000          298   0.28636186 2.863262e-07 
  783000          298   0.27882576 2.8498505e-07 
  784000          298   0.31134824 2.8363821e-07 
  785000          298   0.26883301 2.8230682e-07 
  786000          298   0.29459429 2.8097923e-07 
  787000          298   0.28055334 2.7964325e-07 
  788000          298   0.27057765 2.7833508e-07 
  789000          298   0.30642789 2.7704237e-07 
  790000          298   0.28448253 2.7572839e-07 
  791000          298    0.2773265 2.7443481e-07 
  792000          298   0.29074483  2.73144e-07 
  793000          298   0.31148853 2.7187655e-07 
  794000          298   0.27365944 2.7062205e-07 
  795000          298   0.28417591 2.6932313e-07 
  796000          298   0.26396731 2.6806634e-07 
  797000          298   0.19043071 2.6668904e-07 
  798000          298    0.1638737 2.6523943e-07 
  799000          298   0.15085418 2.6380237e-07 
  800000          298   0.18173596 2.6238858e-07 
  801000          298   0.14640003 2.6097845e-07 
  802000          298   0.17973176 2.5956935e-07 
  803000          298   0.15581537 2.5817642e-07 
  804000          298   0.18821408 2.5681236e-07 
  805000          298   0.13555772 2.5540127e-07 
  806000          298   0.17062669 2.5402877e-07 
  807000          298   0.13453675 2.526323e-07 
  808000          298   0.16781607 2.5127344e-07 
  809000          298    0.1473714 2.4990243e-07 
  810000          298   0.17029292 2.4857655e-07 
  811000          298   0.18522122 2.472753e-07 
  812000          298   0.11231629 2.4589251e-07 
  813000          298  0.071197733 2.4444274e-07 
  814000          298  0.099186857 2.430206e-07 
  815000          298   0.06566239 2.4158918e-07 
  816000          298   0.08119224 2.4016907e-07 
  817000          298  0.063365443 2.3873535e-07 
  818000          298  0.092429796 2.3734896e-07 
  819000          298  0.083171548 2.3594636e-07 
  820000          298  0.090135654 2.3456808e-07 
  821000          298   0.07969169 2.331864e-07 
  822000          298  0.077137818 2.3181646e-07 
  823000          298  0.080416669 2.3045248e-07 
  824000          298  0.085091792 2.291083e-07 
  825000          298  0.070597217 2.2774214e-07 
  826000          298  0.073295405 2.264086e-07 
  827000          298   0.10051423 2.2509012e-07 
  828000          298  0.072040889 2.2376979e-07 
  829000          298   0.11911425 2.2248764e-07 
  830000          298   0.18596534 2.2130962e-07 
  831000          298   0.16156447 2.2012238e-07 
  832000          298    0.1599818 2.1895423e-07 
  833000          298   0.14338717 2.1775007e-07 
  834000          298   0.16596836 2.1659636e-07 
  835000          298   0.16362393 2.1544347e-07 
  836000          298   0.16533979 2.1428543e-07 
  837000          298   0.16551082 2.1315321e-07 
  838000          298   0.16014153 2.1200519e-07 
  839000          298   0.15455144 2.1086762e-07 
  840000          298   0.19515767 2.0976361e-07 
  841000          298   0.16907221  2.08668e-07 
  842000          298   0.16790845 2.0756327e-07 
  843000          298   0.15296129 2.0645425e-07 
  844000          298   0.17590445 2.0534856e-07 
  845000          298    0.1757609 2.0427466e-07 
  846000          298   0.17124687 2.0319951e-07 
  847000          298   0.14221515 2.0211498e-07 
  848000          298   0.14742007 2.0100492e-07 
  849000          298   0.15253717  1.99934e-07 
  850000          298   0.17266536 1.9888465e-07 
  851000          298   0.17444067 1.9782497e-07 
  852000          298   0.21811217 1.9684153e-07 
  853000          298   0.19556503 1.9585276e-07 
  854000          298   0.13320568 1.9478532e-07 
  855000          298   0.18359614 1.9375566e-07 
  856000          298   0.17321781 1.9273376e-07 
  857000          298   0.17733592 1.9170907e-07 
  858000          298   0.14231674 1.9068572e-07 
  859000          298   0.16743801  1.89662e-07 
  860000          298   0.16758202 1.8866884e-07 
  861000          298   0.17894563 1.8766872e-07 
  862000          298   0.15774985 1.866896e-07 
  863000          298   0.10932033 1.8563745e-07 
  864000          298  0.053274832 1.8452199e-07 
  865000          298  0.020197434 1.8336178e-07 
  866000          298  0.028770517 1.8220396e-07 
  867000          298  0.012819838 1.8104614e-07 
  868000          298 0.00084236056 1.7987243e-07 
  869000          298 0.0012674678 1.7870244e-07 
  870000          298 0.0009318551 1.7753877e-07 
  871000          298 0.00086168352 1.763826e-07 
  872000          298 0.0036542091 1.7523458e-07 
  873000          298 0.00018849019 1.7409031e-07 
  874000          298  0.001887569 1.7295372e-07 
  875000          298 0.00050221666 1.7182226e-07 
  876000          298  0.002108931 1.7069921e-07 
  877000          298 0.0016483952 1.6958117e-07 
  878000          298 0.00091980608 1.6846904e-07 
  879000          298 0.00094938079 1.6736492e-07 
  880000          298 0.0040348151 1.6626761e-07 
  881000          298 0.00042083251 1.6517498e-07 
  882000          298   0.00740653 1.6409247e-07 
  883000          298  0.036074839 1.6304575e-07 
  884000          298  0.020622263 1.6200549e-07 
  885000          298  0.036853818  1.60975e-07 
  886000          298  0.015524001 1.5993991e-07 
  887000          298  0.012125359 1.5889549e-07 
  888000          298  0.040826971 1.5788317e-07 
  889000          298  0.072181379 1.5691389e-07 
  890000          298   0.14283046 1.5602942e-07 
  891000          298   0.17707266 1.5521931e-07 
  892000          298   0.15044411 1.5438885e-07 
  893000          298   0.14615211 1.535624e-07 
  894000          298   0.16596761 1.5273376e-07 
  895000          298   0.14287488 1.5190792e-07 
  896000          298   0.16783422 1.5109774e-07 
  897000          298   0.16386143 1.5028675e-07 
  898000          298   0.15895397 1.4948693e-07 
  899000          298   0.17079635 1.4869209e-07 
  900000          298   0.15410929 1.4790485e-07 
  901000          298   0.18382797 1.4714096e-07 
  902000          298   0.15326899 1.4634214e-07 
  903000          298   0.21792312 1.4561463e-07 
  904000          298   0.21118782 1.4490284e-07 
  905000          298   0.13516005 1.4411873e-07 
  906000          298   0.16596399 1.4333428e-07 
  907000          298   0.15833521 1.4257522e-07 
  908000          298   0.16118151 1.4181679e-07 
  909000          298   0.18787674 1.4107484e-07 
  910000          298   0.15697557 1.4031849e-07 
  911000          298   0.15219409 1.395597e-07 
  912000          298   0.17131832 1.3883561e-07 
  913000          298   0.13290913 1.3805934e-07 
  914000          298   0.16671219 1.3732329e-07 
  915000          298   0.14405427 1.3657169e-07 
  916000          298   0.18803392 1.358682e-07 
  917000          298   0.16578742 1.3514675e-07 
  918000          298   0.18964439 1.3445319e-07 
  919000          298   0.16783724 1.3373501e-07 
  920000          298   0.20594077 1.3306832e-07 
  921000          298     0.152723 1.323589e-07 
  922000          298   0.22737912 1.3170598e-07 
  923000          298   0.33875149 1.3117164e-07 
  924000          298   0.45814356 1.3077589e-07 
  925000          298   0.43998358 1.3042029e-07 
  926000          298   0.44226273 1.3003022e-07 
  927000          298   0.42969947 1.2966886e-07 
  928000          298     0.434286 1.2929065e-07 
  929000          298   0.48790286 1.2893868e-07 
  930000          298   0.49241697 1.2864288e-07 
  931000          298    0.4350608 1.2826937e-07 
  932000          298   0.46316909 1.2794522e-07 
  933000          298   0.44762935 1.2756974e-07 
  934000          298   0.43152764 1.272062e-07 
  935000          298   0.45348258 1.2685102e-07 
  936000          298   0.45059726 1.2649065e-07 
  937000          298   0.45491464 1.2612543e-07 
  938000          298   0.41222536 1.2575881e-07 
  939000          298   0.43268503 1.2540477e-07 
  940000          298    0.4337809 1.2504071e-07 
  941000          298   0.43463017 1.2470608e-07 
  942000          298   0.42189086 1.2433221e-07 
  943000          298   0.47460691 1.2398278e-07 
  944000          298   0.63029785 1.2380019e-07 
  945000          298    0.6343982 1.2369432e-07 
  946000          298   0.63432765 1.2354807e-07 
  947000          298   0.67401621 1.2347262e-07 
  948000          298   0.54085842 1.2326544e-07 
  949000          298   0.59160477 1.2306078e-07 
  950000          298   0.60740721 1.2291551e-07 
  951000          298   0.65810819 1.2277369e-07 
  952000          298   0.64784517 1.2264861e-07 
  953000          298    0.5777383 1.2247908e-07 
  954000          298   0.68651788 1.2236547e-07 
  955000          298   0.61234696 1.2225264e-07 
  956000          298    0.6243257 1.2208676e-07 
  957000          298   0.58510879 1.2193667e-07 
  958000          298   0.69041971  1.21836e-07 
  959000          298   0.60934653 1.2172097e-07 
  960000          298   0.55627844 1.2150371e-07 
  961000          298   0.64620829 1.2137235e-07 
  962000          298    0.5689816 1.2117754e-07 
  963000          298   0.67713706 1.2107047e-07 
  964000          298   0.58065316 1.2091238e-07 
  965000          298   0.60915631  1.20758e-07 
  966000          298   0.61745667 1.2060252e-07 
  967000          298   0.62611834 1.2046529e-07 
  968000          298   0.62579247 1.2033707e-07 
  969000          298   0.65852917 1.202139e-07 
  970000          298   0.55013999 1.2002037e-07 
  971000          298   0.64907064 1.1986217e-07 
  972000          298   0.69640125 1.1980474e-07 
  973000          298   0.61933492 1.1966626e-07 
  974000          298   0.66605586 1.1954686e-07 
  975000          298    0.5194145 1.1933677e-07 
  976000          298   0.39187425 1.1898227e-07 
  977000          298   0.44972273 1.1864047e-07 
  978000          298   0.42824135 1.1831177e-07 
  979000          298   0.42420533 1.1797581e-07 
  980000          298    0.4536965 1.1765157e-07 
  981000          298   0.41629411  1.17321e-07 
  982000          298   0.42802647 1.1699536e-07 
  983000          298   0.42982501 1.1667823e-07 
  984000          298   0.48445652 1.1637365e-07 
  985000          298    0.4081249 1.1605241e-07 
  986000          298   0.45980527 1.1572557e-07 
  987000          298   0.43359982 1.1542194e-07 
  988000          298   0.44102288 1.1508936e-07 
  989000          298    0.4800292 1.1482082e-07 
  990000          298   0.40173948 1.144716e-07 
  991000          298   0.44276764 1.1415802e-07 
  992000          298   0.43340361 1.1383059e-07 
  993000          298   0.45167109 1.1354171e-07 
  994000          298   0.46718953 1.1323898e-07 
  995000          298   0.44554405 1.1293914e-07 
  996000          298   0.43666195 1.1264692e-07 
  997000          298   0.45624751 1.1233785e-07 
  998000          298   0.37678468 1.1199488e-07 
  999000          298   0.40351753 1.1163919e-07 
 1000000          298   0.46159529 1.1136225e-07 
Loop time of 1149.55 on 1 procs for 1000000 steps with 2431 atoms

Performance: 75.160 ns/day, 0.319 hours/ns, 869.905 timesteps/s
100.0% CPU use with 1 MPI tasks x no OpenMP threads

MPI task timing breakdown:
Section |  min time  |  avg time  |  max time  |%varavg| %total
---------------------------------------------------------------
Pair    | 19.08      | 19.08      | 19.08      |   0.0 |  1.66
Bond    | 741.03     | 741.03     | 741.03     |   0.0 | 64.46
Neigh   | 296.44     | 296.44     | 296.44     |   0.0 | 25.79
Comm    | 61.688     | 61.688     | 61.688     |   0.0 |  5.37
Output  | 2.7996     | 2.7996     | 2.7996     |   0.0 |  0.24
Modify  | 9.5658     | 9.5658     | 9.5658     |   0.0 |  0.83
Other   |            | 18.95      |            |       |  1.65

Nlocal:    2431 ave 2431 max 2431 min
Histogram: 1 0 0 0 0 0 0 0 0 0
Nghost:    16166 ave 16166 max 16166 min
Histogram: 1 0 0 0 0 0 0 0 0 0
Neighs:    1174 ave 1174 max 1174 min
Histogram: 1 0 0 0 0 0 0 0 0 0

Total # of neighbors = 1174
Ave neighs/atom = 0.482929
Ave special neighs/atom = 6.58988
Neighbor list builds = 4253
Dangerous builds = 0
unfix           3
unfix           4
undump          NiPyC2_experiment_with_Ar_xyzmov

Total wall time: 0:22:23
