Created on Wed Aug 12 10:46:06 2020 

         156 atoms
         176 bonds
         340 angles
         376 dihedrals
         168 impropers

           6 atom types
          10 bond types
          18 angle types
           5 dihedral types
           1 improper types
           0.000000  12.505600 xlo xhi
           0.000000  12.523400 ylo yhi
           0.000000  10.274279 zlo zhi
           0.000000  -0.227594   0.000000 xy xz yz

Masses

    1    58.693400000 # Ni4+2
    2    15.999400000 # O_R
    3    14.006700000 # N_R
    4    12.010700000 # C_R
    5     1.007940000 # H_
    6    12.010700000 # C_3

Bond Coeffs

    1      321.720028        1.793457  # Ni4+2 O_R
    2      328.673665        1.841585  # Ni4+2 N_R
    3      646.680887        1.311940  # O_R C_R
    4      663.718927        1.345073  # N_R C_R
    5      462.655054        1.379256  # C_R C_R
    6      357.440381        1.081418  # C_R H_
    7      369.943935        1.486000  # C_R C_3
    8      391.669513        1.458000  # C_R C_R
    9      349.795899        1.514000  # C_3 C_3
   10      331.069389        1.109401  # C_3 H_

Angle Coeffs

    1              cosine/periodic      322.980216               1               4 # O_R Ni4+2 O_R
    2              cosine/periodic      343.030950               1               4 # O_R Ni4+2 N_R
    3              cosine/periodic      364.965660               1               4 # N_R Ni4+2 N_R
    4              cosine/periodic      238.346347              -1               3 # C_R O_R Ni4+2
    5              cosine/periodic      177.809033              -1               3 # Ni4+2 N_R C_R
    6              cosine/periodic      240.001032              -1               3 # C_R N_R C_R
    7              cosine/periodic      114.578032              -1               3 # C_R C_R H_
    8              cosine/periodic      222.595017              -1               3 # C_R C_R C_R
    9              cosine/periodic      198.274298              -1               3 # C_R C_R C_3
   10              cosine/periodic      204.366560              -1               3 # C_R C_R C_R
   11              cosine/periodic      307.398705              -1               3 # N_R C_R C_R
   12              cosine/periodic      159.573934              -1               3 # N_R C_R H_
   13              cosine/periodic      263.511421              -1               3 # O_R C_R C_R
   14              cosine/periodic      374.272657              -1               3 # O_R C_R O_R
   15                      fourier      220.229931        0.343737        0.374972        0.281246 # C_R C_3 C_3
   16                      fourier      121.777217        0.343737        0.374972        0.281246 # C_R C_3 H_
   17                      fourier      117.318683        0.343737        0.374972        0.281246 # C_3 C_3 H_
   18                      fourier       75.498766        0.343737        0.374972        0.281246 # H_ C_3 H_

Dihedral Coeffs

    1        2.245703              -1               2 # Ni4+2 O_R C_R C_R
    2        1.497136              -1               2 # Ni4+2 N_R C_R C_R
    3        0.083333               1               3 # C_R C_R C_3 C_3
    4        0.555556              -1               2 # C_R C_R C_R O_R
    5        0.066219               1               3 # C_R C_3 C_3 H_

Improper Coeffs

    1        2.000000        1.000000       -1.000000        0.000000               0 # Ni4+2 N_R C_R C_R

Pair Coeffs

    1        0.015000        2.524807 # Ni4+2 Ni4+2
    2        0.060000        3.118146 # O_R O_R
    3        0.069000        3.260689 # N_R N_R
    4        0.105000        3.430851 # C_R C_R
    5        0.044000        2.571134 # H_ H_
    6        0.105000        3.430851 # C_3 C_3

Atoms

       1      444        1     0.00000    2.89857    9.41116    8.59265
       2      444        1     0.00000    6.17525    3.10579    3.48481
       3      444        2     0.00000    1.44827    4.35425    3.93374
       4      444        2     0.00000    4.44160    8.15245    9.05464
       5      444        2     0.00000    4.63665    1.84729    3.87523
       6      444        2     0.00000    1.36499   10.67435    9.00295
       7      444        2     0.00000    5.80609    4.46033    4.96242
       8      444        2     0.00000    2.54244    8.03270   10.06753
       9      444        2     0.00000    0.25117    1.69264    4.94273
      10      444        2     0.00000    3.23722   10.80466   10.06262
      11      444        3     0.00000    3.69677   10.66058    7.24160
      12      444        3     0.00000    0.71256    1.86420    2.11704
      13      444        3     0.00000    2.17217    8.14409    7.25198
      14      444        3     0.00000    5.44023    4.39481    2.13747
      15      444        4     0.00000    3.48546   12.14832    5.36301
      16      444        4     0.00000    0.47488    0.38955    0.22920
      17      444        5     0.00000    2.86453   12.51808    4.55267
      18      444        4     0.00000    4.76073    0.14740    5.61481
      19      444        4     0.00000    1.74333   12.36991    0.47412
      20      444        4     0.00000    5.50345   12.15023    6.68209
      21      444        4     0.00000    2.49852    0.35508    1.54004
      22      444        5     0.00000    3.49155   12.50668    1.77336
      23      444        4     0.00000    2.48363    6.63370    5.40822
      24      444        4     0.00000    5.72803    5.90364    0.28669
      25      444        4     0.00000    2.92756    7.68099    6.23068
      26      444        4     0.00000    6.18830    4.86756    1.11596
      27      444        5     0.00000    3.89994    8.14655    6.08890
      28      444        5     0.00000    0.91589    4.41889    0.97634
      29      444        4     0.00000    2.98256   11.13588    6.19748
      30      444        4     0.00000   -0.01036    1.40553    1.07106
      31      444        5     0.00000    1.99392   10.70905    6.04703
      32      444        5     0.00000    5.26093    1.85011    0.92351
      33      444        4     0.00000    4.93641   11.13810    7.47507
      34      444        4     0.00000    1.94823    1.37190    2.34060
      35      444        5     0.00000    5.48559   10.70967    8.30944
      36      444        5     0.00000    2.50886    1.79214    3.17267
      37      444        4     0.00000    0.94573    7.62654    7.47302
      38      444        4     0.00000    4.21083    4.90458    2.35686
      39      444        5     0.00000    0.36328    8.05184    8.28732
      40      444        5     0.00000    3.63605    4.47744    3.17528
      41      444        4     0.00000    0.43859    6.57577    6.69176
      42      444        4     0.00000    3.68763    5.94500    1.56944
      43      444        5     0.00000    2.69824    6.32683    1.80071
      44      444        4     0.00000    1.22745    6.06471    5.65205
      45      444        4     0.00000    4.46338    6.45777    0.52027
      46      444        4     0.00000    5.31260    1.24381    4.79419
      47      444        4     0.00000    2.05020   11.26755    9.92158
      48      444        4     0.00000    0.73548    4.94016    4.83586
      49      444        4     0.00000    3.73174    7.56629    9.95688
      50      444        1     0.00000    9.15137    9.41116    8.59265
      51      444        1     0.00000   12.42805    3.10579    3.48481
      52      444        2     0.00000    7.70109    4.35425    3.93374
      53      444        2     0.00000   10.69440    8.15245    9.05464
      54      444        2     0.00000   10.88945    1.84729    3.87523
      55      444        2     0.00000    7.61779   10.67435    9.00295
      56      444        2     0.00000   12.05889    4.46033    4.96242
      57      444        2     0.00000    8.79524    8.03270   10.06753
      58      444        2     0.00000    6.50397    1.69264    4.94273
      59      444        2     0.00000    9.49002   10.80466   10.06262
      60      444        3     0.00000    9.94957   10.66058    7.24160
      61      444        3     0.00000    6.96536    1.86420    2.11704
      62      444        3     0.00000    8.42499    8.14409    7.25198
      63      444        3     0.00000   11.69303    4.39481    2.13747
      64      444        4     0.00000    9.73826   12.14832    5.36301
      65      444        4     0.00000    6.72768    0.38955    0.22920
      66      444        5     0.00000    9.11733   12.51808    4.55267
      67      444        4     0.00000   11.01353    0.14740    5.61481
      68      444        4     0.00000    7.99613   12.36991    0.47412
      69      444        4     0.00000   11.75625   12.15023    6.68209
      70      444        4     0.00000    8.75132    0.35508    1.54004
      71      444        5     0.00000    9.74435   12.50668    1.77336
      72      444        4     0.00000    8.73644    6.63370    5.40822
      73      444        4     0.00000   11.98084    5.90364    0.28669
      74      444        5     0.00000    9.38574    6.27291    4.61605
      75      444        4     0.00000    9.18036    7.68099    6.23068
      76      444        4     0.00000   12.44110    4.86756    1.11596
      77      444        5     0.00000   10.15274    8.14655    6.08890
      78      444        5     0.00000    7.16869    4.41889    0.97634
      79      444        4     0.00000    9.23536   11.13588    6.19748
      80      444        4     0.00000    6.24244    1.40553    1.07106
      81      444        5     0.00000    8.24672   10.70905    6.04703
      82      444        5     0.00000   11.51373    1.85011    0.92351
      83      444        4     0.00000   11.18921   11.13810    7.47507
      84      444        4     0.00000    8.20102    1.37190    2.34060
      85      444        5     0.00000   11.73839   10.70967    8.30944
      86      444        5     0.00000    8.76167    1.79214    3.17267
      87      444        4     0.00000    7.19853    7.62654    7.47302
      88      444        4     0.00000   10.46363    4.90458    2.35686
      89      444        5     0.00000    6.61608    8.05184    8.28732
      90      444        5     0.00000    9.88885    4.47744    3.17528
      91      444        4     0.00000    6.69139    6.57577    6.69176
      92      444        4     0.00000    9.94043    5.94500    1.56944
      93      444        5     0.00000   11.96054    6.17693    6.91975
      94      444        5     0.00000    8.95104    6.32683    1.80071
      95      444        4     0.00000    7.48025    6.06471    5.65205
      96      444        4     0.00000   10.71618    6.45777    0.52027
      97      444        4     0.00000   11.56540    1.24381    4.79419
      98      444        4     0.00000    8.30300   11.26755    9.92158
      99      444        4     0.00000    6.98827    4.94016    4.83586
     100      444        4     0.00000    9.98454    7.56629    9.95688
     101      444        6     0.00000    6.91920    0.14363    6.99516
     102      444        6     0.00000    7.64093   12.02797    8.18430
     103      444        5     0.00000    6.85525    1.23300    7.20481
     104      444        5     0.00000    7.55838   12.49840    6.10197
     105      444        5     0.00000    7.07365   12.20051    9.12362
     106      444        5     0.00000    8.64467   12.48962    8.29763
     107      444        5     0.00000    7.77900   10.93850    8.01729
     108      444        6     0.00000   11.88764   12.41398    9.33006
     109      444        6     0.00000   10.51821    0.55098    9.15155
     110      444        5     0.00000   11.70528   11.32654    9.46783
     111      444        5     0.00000   -0.05541    0.05534    8.38605
     112      444        5     0.00000    9.88442    0.38360   10.04832
     113      444        5     0.00000   10.00338    0.10113    8.27631
     114      444        5     0.00000   10.63169    1.63980    8.96310
     115      444        6     0.00000    3.37658    6.12948    4.25918
     116      444        6     0.00000    4.73020    6.82192    4.08154
     117      444        5     0.00000    2.82242    6.25578    3.30433
     118      444        5     0.00000    3.58594    5.05105    4.42631
     119      444        5     0.00000    4.59030    7.90233    3.86457
     120      444        5     0.00000    5.26839    6.36470    3.22436
     121      444        5     0.00000    5.35626    6.69377    4.99013
     122      444        6     0.00000    6.39084    6.41385    9.41001
     123      444        6     0.00000    7.75505    5.74028    9.24105
     124      444        5     0.00000    5.84162    6.27315    8.45431
     125      444        5     0.00000    6.58379    7.49632    9.57066
     126      444        5     0.00000    7.63176    4.65653    9.03078
     127      444        5     0.00000    8.28916    6.19975    8.38252
     128      444        5     0.00000    8.37631    5.88358   10.15068
     129      444        6     0.00000    0.66640    0.14363    6.99516
     130      444        6     0.00000    1.38813   12.02797    8.18430
     131      444        5     0.00000    0.60245    1.23300    7.20481
     132      444        5     0.00000    1.30558   12.49840    6.10197
     133      444        5     0.00000    0.82085   12.20051    9.12362
     134      444        5     0.00000    2.39187   12.48962    8.29763
     135      444        5     0.00000    1.52620   10.93850    8.01729
     136      444        6     0.00000    5.63482   12.41397    9.33007
     137      444        6     0.00000    4.26545    0.55104    9.15150
     138      444        5     0.00000    6.19742    0.05530    8.38606
     139      444        5     0.00000    5.45243   11.32654    9.46785
     140      444        5     0.00000    4.37898    1.63985    8.96302
     141      444        5     0.00000    3.75061    0.10119    8.27626
     142      444        5     0.00000    3.63161    0.38370   10.04826
     143      444        6     0.00000    5.29232    6.00627    6.98457
     144      444        6     0.00000    4.51779    6.63933    8.14330
     145      444        5     0.00000    4.66711    6.12894    6.07416
     146      444        5     0.00000    5.39678    4.92523    7.21951
     147      444        5     0.00000    4.33830    7.71826    7.94934
     148      444        5     0.00000    3.53182    6.13832    8.24487
     149      444        5     0.00000    5.07029    6.51073    9.09836
     150      444        6     0.00000    0.13806    6.41386    9.41001
     151      444        6     0.00000    1.50227    5.74029    9.24107
     152      444        5     0.00000   12.09443    6.27316    8.45432
     153      444        5     0.00000    0.33100    7.49632    9.57068
     154      444        5     0.00000    1.37897    4.65654    9.03079
     155      444        5     0.00000    2.03637    6.19976    8.38254
     156      444        5     0.00000    2.12351    5.88359   10.15070

Bonds

       1        1        1        4
       2        1        1        6
       3        1        1        8
       4        1        1       10
       5        2        1       11
       6        2        1       13
       7        1        2        5
       8        1        2        7
       9        2        2       14
      10        1        2       52
      11        1        2       58
      12        2        2       61
      13        3        3       48
      14        1        3       51
      15        3        4       49
      16        3        5       46
      17        3        6       47
      18        3        7       99
      19        3        8       49
      20        1        9       51
      21        3        9       97
      22        3       10       47
      23        4       11       29
      24        4       11       33
      25        4       12       30
      26        4       12       34
      27        2       12       51
      28        4       13       25
      29        4       13       37
      30        4       14       26
      31        4       14       38
      32        6       15       17
      33        5       15       18
      34        5       15       29
      35        5       16       19
      36        5       16       30
      37        7       16      108
      38        5       18       20
      39        8       18       46
      40        5       19       21
      41        8       19       47
      42        5       20       33
      43        7       20      101
      44        6       21       22
      45        5       21       34
      46        5       23       25
      47        5       23       44
      48        7       23      115
      49        5       24       26
      50        5       24       45
      51        7       24      122
      52        6       25       27
      53        6       26       78
      54        6       28       76
      55        6       29       31
      56        6       30       82
      57        6       32       80
      58        6       33       35
      59        6       34       36
      60        6       37       39
      61        5       37       41
      62        6       38       40
      63        5       38       42
      64        5       41       44
      65        6       41       93
      66        6       42       43
      67        5       42       45
      68        8       44       48
      69        8       45       49
      70        3       46       58
      71        3       48       56
      72        1       50       53
      73        1       50       55
      74        1       50       57
      75        1       50       59
      76        2       50       60
      77        2       50       62
      78        1       51       54
      79        1       51       56
      80        2       51       63
      81        3       52       99
      82        3       53      100
      83        3       54       97
      84        3       55       98
      85        3       57      100
      86        3       59       98
      87        4       60       79
      88        4       60       83
      89        4       61       80
      90        4       61       84
      91        4       62       75
      92        4       62       87
      93        4       63       76
      94        4       63       88
      95        6       64       66
      96        5       64       67
      97        5       64       79
      98        5       65       68
      99        5       65       80
     100        7       65      136
     101        5       67       69
     102        8       67       97
     103        5       68       70
     104        8       68       98
     105        5       69       83
     106        7       69      129
     107        6       70       71
     108        5       70       84
     109        6       72       74
     110        5       72       75
     111        5       72       95
     112        5       73       76
     113        5       73       96
     114        7       73      150
     115        6       75       77
     116        6       79       81
     117        6       83       85
     118        6       84       86
     119        6       87       89
     120        5       87       91
     121        6       88       90
     122        5       88       92
     123        5       91       95
     124        7       91      143
     125        6       92       94
     126        5       92       96
     127        8       95       99
     128        8       96      100
     129        9      101      102
     130       10      101      103
     131       10      101      104
     132       10      102      105
     133       10      102      106
     134       10      102      107
     135        9      108      109
     136       10      108      110
     137       10      108      111
     138       10      109      112
     139       10      109      113
     140       10      109      114
     141        9      115      116
     142       10      115      117
     143       10      115      118
     144       10      116      119
     145       10      116      120
     146       10      116      121
     147        9      122      123
     148       10      122      124
     149       10      122      125
     150       10      123      126
     151       10      123      127
     152       10      123      128
     153        9      129      130
     154       10      129      131
     155       10      129      132
     156       10      130      133
     157       10      130      134
     158       10      130      135
     159        9      136      137
     160       10      136      138
     161       10      136      139
     162       10      137      140
     163       10      137      141
     164       10      137      142
     165        9      143      144
     166       10      143      145
     167       10      143      146
     168       10      144      147
     169       10      144      148
     170       10      144      149
     171        9      150      151
     172       10      150      152
     173       10      150      153
     174       10      151      154
     175       10      151      155
     176       10      151      156

Angles

       1        1        4        1        6
       2        1        4        1        8
       3        1        4        1       10
       4        2        4        1       11
       5        2        4        1       13
       6        1        6        1        8
       7        1        6        1       10
       8        2        6        1       11
       9        2        6        1       13
      10        1        8        1       10
      11        2        8        1       11
      12        2        8        1       13
      13        2       10        1       11
      14        2       10        1       13
      15        3       11        1       13
      16        2       14        2        5
      17        2       14        2        7
      18        2       14        2       52
      19        2       14        2       58
      20        3       14        2       61
      21        1        5        2        7
      22        1        5        2       52
      23        1        5        2       58
      24        2        5        2       61
      25        1        7        2       52
      26        1        7        2       58
      27        2        7        2       61
      28        1       52        2       58
      29        2       52        2       61
      30        2       58        2       61
      31        4       48        3       51
      32        4        1        4       49
      33        4        2        5       46
      34        4        1        6       47
      35        4        2        7       99
      36        4        1        8       49
      37        4       51        9       97
      38        4        1       10       47
      39        5        1       11       29
      40        5        1       11       33
      41        6       29       11       33
      42        6       30       12       34
      43        5       30       12       51
      44        5       34       12       51
      45        5        1       13       25
      46        5        1       13       37
      47        6       25       13       37
      48        5        2       14       26
      49        5        2       14       38
      50        6       26       14       38
      51        7       18       15       17
      52        8       18       15       29
      53        7       17       15       29
      54        8       19       16       30
      55        9       19       16      108
      56        9       30       16      108
      57        8       15       18       20
      58       10       15       18       46
      59       10       20       18       46
      60        8       16       19       21
      61       10       16       19       47
      62       10       21       19       47
      63        8       18       20       33
      64        9       18       20      101
      65        9       33       20      101
      66        8       19       21       34
      67        7       19       21       22
      68        7       34       21       22
      69        8       25       23       44
      70        9       25       23      115
      71        9       44       23      115
      72        8       26       24       45
      73        9       26       24      122
      74        9       45       24      122
      75       11       13       25       23
      76       12       13       25       27
      77        7       23       25       27
      78       11       14       26       24
      79       12       14       26       78
      80        7       24       26       78
      81       11       11       29       15
      82       12       11       29       31
      83        7       15       29       31
      84       11       12       30       16
      85       12       12       30       82
      86        7       16       30       82
      87       11       20       33       11
      88        7       20       33       35
      89       12       11       33       35
      90       11       12       34       21
      91       12       12       34       36
      92        7       21       34       36
      93       11       13       37       41
      94       12       13       37       39
      95        7       41       37       39
      96       11       14       38       42
      97       12       14       38       40
      98        7       42       38       40
      99        8       37       41       44
     100        7       37       41       93
     101        7       44       41       93
     102        8       38       42       45
     103        7       38       42       43
     104        7       45       42       43
     105        8       23       44       41
     106       10       23       44       48
     107       10       41       44       48
     108        8       24       45       42
     109       10       24       45       49
     110       10       42       45       49
     111       13        5       46       18
     112       14        5       46       58
     113       13       18       46       58
     114       13       10       47       19
     115       14       10       47        6
     116       13       19       47        6
     117       13        3       48       44
     118       14        3       48       56
     119       13       44       48       56
     120       13        8       49       45
     121       14        8       49        4
     122       13       45       49        4
     123        1       53       50       55
     124        1       53       50       57
     125        1       53       50       59
     126        2       53       50       60
     127        2       53       50       62
     128        1       55       50       57
     129        1       55       50       59
     130        2       55       50       60
     131        2       55       50       62
     132        1       57       50       59
     133        2       57       50       60
     134        2       57       50       62
     135        2       59       50       60
     136        2       59       50       62
     137        3       60       50       62
     138        2        9       51       12
     139        1        9       51       54
     140        1        9       51        3
     141        1        9       51       56
     142        2        9       51       63
     143        2       12       51       54
     144        2       12       51        3
     145        2       12       51       56
     146        3       12       51       63
     147        1       54       51        3
     148        1       54       51       56
     149        2       54       51       63
     150        1        3       51       56
     151        2        3       51       63
     152        2       56       51       63
     153        4        2       52       99
     154        4       50       53      100
     155        4       51       54       97
     156        4       50       55       98
     157        4       48       56       51
     158        4       50       57      100
     159        4        2       58       46
     160        4       50       59       98
     161        5       50       60       79
     162        5       50       60       83
     163        6       79       60       83
     164        5        2       61       84
     165        5        2       61       80
     166        6       84       61       80
     167        5       50       62       75
     168        5       50       62       87
     169        6       75       62       87
     170        5       88       63       51
     171        6       88       63       76
     172        5       51       63       76
     173        7       67       64       66
     174        8       67       64       79
     175        7       66       64       79
     176        8       68       65       80
     177        9       68       65      136
     178        9       80       65      136
     179        8       64       67       69
     180       10       64       67       97
     181       10       69       67       97
     182        8       65       68       70
     183       10       65       68       98
     184       10       70       68       98
     185        8       67       69       83
     186        9       67       69      129
     187        9       83       69      129
     188        8       68       70       84
     189        7       68       70       71
     190        7       84       70       71
     191        8       75       72       95
     192        7       75       72       74