units           real
atom_style      full
boundary        p p p

pair_style      lj/cut 5.000
bond_style      harmonic
angle_style     hybrid fourier cosine/periodic
dihedral_style  harmonic
improper_style  fourier

dielectric      1.0
pair_modify     tail yes mix arithmetic
special_bonds   lj/coul 0.0 0.0 1.0
box tilt        large
read_data       data.NiPyC2_relax_sc211_meta_functionalized_CH2-CH3
  triclinic box = (0 0 0) to (12.5056 12.5234 10.2743) with tilt (0 -0.227594 0)
  1 by 1 by 1 MPI processor grid
  reading atoms ...
  156 atoms
  scanning bonds ...
  6 = max bonds/atom
  scanning angles ...
  15 = max angles/atom
  scanning dihedrals ...
  14 = max dihedrals/atom
  scanning impropers ...
  3 = max impropers/atom
  reading bonds ...
  176 bonds
  reading angles ...
  340 angles
  reading dihedrals ...
  376 dihedrals
  reading impropers ...
  168 impropers
  6 = max # of 1-2 neighbors
  9 = max # of 1-3 neighbors
  12 = max # of special neighbors
  special bonds CPU = 0.000330777 secs
  read_data CPU = 0.0374244 secs

#### Atom Groupings ####
group           fram     id   1:156
156 atoms in group fram
#### END Atom Groupings ####

dump            NiPyC2_relax_sc211_meta_functionalized_CH2-CH3_xyzmov all xyz 20000 NiPyC2_relax_sc211_meta_functionalized_CH2-CH3_mov.xyz
dump_modify     NiPyC2_relax_sc211_meta_functionalized_CH2-CH3_xyzmov element Ni O N C H C
min_style       cg
print           "MinStep,CellMinStep,AtomMinStep,FinalStep,Energy,EDiff,vol,lx,ly,lz,xy,xz,yz" file NiPyC2_relax_sc211_meta_functionalized_CH2-CH3.min.csv screen no
variable        min_eval   equal 1.00e-06
variable        prev_E     equal 50000.00
variable        iter       loop 100000
label           loop_min
min_style       cg
variable        tempstp    equal $(step)
variable        tempstp    equal 0
variable        CellMinStep equal ${tempstp}
variable        CellMinStep equal 0
minimize        1.0e-15 1.0e-15 10000 100000
WARNING: Using 'neigh_modify every 1 delay 0 check yes' setting during minimization (src/min.cpp:190)
Neighbor list info ...
  update every 1 steps, delay 0 steps, check yes
  max neighbors/atom: 2000, page size: 100000
  master list distance cutoff = 7
  ghost atom cutoff = 7
  binsize = 3.5, bins = 4 4 3
  1 neighbor lists, perpetual/occasional/extra = 1 0 0
  (1) pair lj/cut, perpetual
      attributes: half, newton on
      pair build: half/bin/newton/tri
      stencil: half/bin/3d/newton/tri
      bin: standard
WARNING: Inconsistent image flags (src/domain.cpp:785)
WARNING: Bond/angle/dihedral extent > half of periodic box length (src/domain.cpp:906)
Per MPI rank memory allocation (min/avg/max) = 18.79 | 18.79 | 18.79 Mbytes
Step Temp E_pair E_mol TotEng Press 
       0            0    121954.66    2226.8489    124181.51     20792224 
     425            0    91.553301    1800.7309    1892.2842   -62253.596 
WARNING: Bond/angle/dihedral extent > half of periodic box length (src/domain.cpp:906)
Loop time of 0.173541 on 1 procs for 425 steps with 156 atoms

98.0% CPU use with 1 MPI tasks x 1 OpenMP threads

Minimization stats:
  Stopping criterion = linesearch alpha is zero
  Energy initial, next-to-last, final = 
         124181.506863      1892.28415902      1892.28415902
  Force two-norm initial, final = 943533 11.2889
  Force max component initial, final = 439553 2.8665
  Final line search alpha, max atom move = 6.25694e-11 1.79355e-10
  Iterations, force evaluations = 425 878

MPI task timing breakdown:
Section |  min time  |  avg time  |  max time  |%varavg| %total
---------------------------------------------------------------
Pair    | 0.096446   | 0.096446   | 0.096446   |   0.0 | 55.58
Bond    | 0.054871   | 0.054871   | 0.054871   |   0.0 | 31.62
Neigh   | 0.012925   | 0.012925   | 0.012925   |   0.0 |  7.45
Comm    | 0.0056187  | 0.0056187  | 0.0056187  |   0.0 |  3.24
Output  | 0          | 0          | 0          |   0.0 |  0.00
Modify  | 0          | 0          | 0          |   0.0 |  0.00
Other   |            | 0.003681   |            |       |  2.12

Nlocal:    156 ave 156 max 156 min
Histogram: 1 0 0 0 0 0 0 0 0 0
Nghost:    1502 ave 1502 max 1502 min
Histogram: 1 0 0 0 0 0 0 0 0 0
Neighs:    10275 ave 10275 max 10275 min
Histogram: 1 0 0 0 0 0 0 0 0 0

Total # of neighbors = 10275
Ave neighs/atom = 65.8654
Ave special neighs/atom = 6.41026
Neighbor list builds = 16
Dangerous builds = 0
variable        AtomMinStep equal ${tempstp}
variable        AtomMinStep equal 0
variable        temppe     equal $(pe)
variable        temppe     equal 1892.284159021155574
variable        min_E      equal abs(${prev_E}-${temppe})
variable        min_E      equal abs(50000-${temppe})
variable        min_E      equal abs(50000-1892.28415902116)
print           "${iter},${CellMinStep},${AtomMinStep},${AtomMinStep},$(pe),${min_E},$(vol),$(lx),$(ly),$(lz),$(xy),$(xz),$(yz)" append NiPyC2_relax_sc211_meta_functionalized_CH2-CH3.min.csv screen no
if              "${min_E} < ${min_eval}" then "jump SELF break_min"
variable        prev_E     equal ${temppe}
variable        prev_E     equal 1892.28415902116
next            iter
jump            SELF loop_min
min_style       cg
variable        tempstp    equal $(step)
variable        tempstp    equal 425
variable        CellMinStep equal ${tempstp}
variable        CellMinStep equal 425
minimize        1.0e-15 1.0e-15 10000 100000
WARNING: Using 'neigh_modify every 1 delay 0 check yes' setting during minimization (src/min.cpp:190)
WARNING: Inconsistent image flags (src/domain.cpp:785)
WARNING: Bond/angle/dihedral extent > half of periodic box length (src/domain.cpp:906)
Per MPI rank memory allocation (min/avg/max) = 18.79 | 18.79 | 18.79 Mbytes
Step Temp E_pair E_mol TotEng Press 
     425            0    91.553301    1800.7309    1892.2842   -62253.596 
     437            0    91.199971    1800.6659    1891.8658   -62502.368 
WARNING: Bond/angle/dihedral extent > half of periodic box length (src/domain.cpp:906)
Loop time of 0.0151128 on 1 procs for 12 steps with 156 atoms

96.3% CPU use with 1 MPI tasks x 1 OpenMP threads

Minimization stats:
  Stopping criterion = linesearch alpha is zero
  Energy initial, next-to-last, final = 
         1892.28415902      1891.86584618      1891.86584618
  Force two-norm initial, final = 11.2889 12.0408
  Force max component initial, final = 2.8665 2.16555
  Final line search alpha, max atom move = 4.82898e-11 1.04574e-10
  Iterations, force evaluations = 12 79

MPI task timing breakdown:
Section |  min time  |  avg time  |  max time  |%varavg| %total
---------------------------------------------------------------
Pair    | 0.0090948  | 0.0090948  | 0.0090948  |   0.0 | 60.18
Bond    | 0.0051438  | 0.0051438  | 0.0051438  |   0.0 | 34.04
Neigh   | 0          | 0          | 0          |   0.0 |  0.00
Comm    | 0.00047725 | 0.00047725 | 0.00047725 |   0.0 |  3.16
Output  | 0          | 0          | 0          |   0.0 |  0.00
Modify  | 0          | 0          | 0          |   0.0 |  0.00
Other   |            | 0.0003969  |            |       |  2.63

Nlocal:    156 ave 156 max 156 min
Histogram: 1 0 0 0 0 0 0 0 0 0
Nghost:    1492 ave 1492 max 1492 min
Histogram: 1 0 0 0 0 0 0 0 0 0
Neighs:    10248 ave 10248 max 10248 min
Histogram: 1 0 0 0 0 0 0 0 0 0

Total # of neighbors = 10248
Ave neighs/atom = 65.6923
Ave special neighs/atom = 6.41026
Neighbor list builds = 0
Dangerous builds = 0
variable        AtomMinStep equal ${tempstp}
variable        AtomMinStep equal 425
variable        temppe     equal $(pe)
variable        temppe     equal 1891.865846182549376
variable        min_E      equal abs(${prev_E}-${temppe})
variable        min_E      equal abs(1892.28415902116-${temppe})
variable        min_E      equal abs(1892.28415902116-1891.86584618255)
print           "${iter},${CellMinStep},${AtomMinStep},${AtomMinStep},$(pe),${min_E},$(vol),$(lx),$(ly),$(lz),$(xy),$(xz),$(yz)" append NiPyC2_relax_sc211_meta_functionalized_CH2-CH3.min.csv screen no
if              "${min_E} < ${min_eval}" then "jump SELF break_min"
variable        prev_E     equal ${temppe}
variable        prev_E     equal 1891.86584618255
next            iter
jump            SELF loop_min
min_style       cg
variable        tempstp    equal $(step)
variable        tempstp    equal 437
variable        CellMinStep equal ${tempstp}
variable        CellMinStep equal 437
minimize        1.0e-15 1.0e-15 10000 100000
WARNING: Using 'neigh_modify every 1 delay 0 check yes' setting during minimization (src/min.cpp:190)
WARNING: Inconsistent image flags (src/domain.cpp:785)
WARNING: Bond/angle/dihedral extent > half of periodic box length (src/domain.cpp:906)
Per MPI rank memory allocation (min/avg/max) = 18.79 | 18.79 | 18.79 Mbytes
Step Temp E_pair E_mol TotEng Press 
     437            0    91.199971    1800.6659    1891.8658   -62502.368 
     443            0    91.026106    1800.7335    1891.7596   -62496.774 
WARNING: Bond/angle/dihedral extent > half of periodic box length (src/domain.cpp:906)
Loop time of 0.0131192 on 1 procs for 6 steps with 156 atoms

100.0% CPU use with 1 MPI tasks x 1 OpenMP threads

Minimization stats:
  Stopping criterion = linesearch alpha is zero
  Energy initial, next-to-last, final = 
         1891.86584618      1891.75956299      1891.75956299
  Force two-norm initial, final = 12.0408 7.41782
  Force max component initial, final = 2.16555 2.18752
  Final line search alpha, max atom move = 1.34951e-10 2.95207e-10
  Iterations, force evaluations = 6 67

MPI task timing breakdown:
Section |  min time  |  avg time  |  max time  |%varavg| %total
---------------------------------------------------------------
Pair    | 0.0078554  | 0.0078554  | 0.0078554  |   0.0 | 59.88
Bond    | 0.0044793  | 0.0044793  | 0.0044793  |   0.0 | 34.14
Neigh   | 0          | 0          | 0          |   0.0 |  0.00
Comm    | 0.00043489 | 0.00043489 | 0.00043489 |   0.0 |  3.31
Output  | 0          | 0          | 0          |   0.0 |  0.00
Modify  | 0          | 0          | 0          |   0.0 |  0.00
Other   |            | 0.0003497  |            |       |  2.67

Nlocal:    156 ave 156 max 156 min
Histogram: 1 0 0 0 0 0 0 0 0 0
Nghost:    1492 ave 1492 max 1492 min
Histogram: 1 0 0 0 0 0 0 0 0 0
Neighs:    10234 ave 10234 max 10234 min
Histogram: 1 0 0 0 0 0 0 0 0 0

Total # of neighbors = 10234
Ave neighs/atom = 65.6026
Ave special neighs/atom = 6.41026
Neighbor list builds = 0
Dangerous builds = 0
variable        AtomMinStep equal ${tempstp}
variable        AtomMinStep equal 437
variable        temppe     equal $(pe)
variable        temppe     equal 1891.7595629927373011
variable        min_E      equal abs(${prev_E}-${temppe})
variable        min_E      equal abs(1891.86584618255-${temppe})
variable        min_E      equal abs(1891.86584618255-1891.75956299274)
print           "${iter},${CellMinStep},${AtomMinStep},${AtomMinStep},$(pe),${min_E},$(vol),$(lx),$(ly),$(lz),$(xy),$(xz),$(yz)" append NiPyC2_relax_sc211_meta_functionalized_CH2-CH3.min.csv screen no
if              "${min_E} < ${min_eval}" then "jump SELF break_min"
variable        prev_E     equal ${temppe}
variable        prev_E     equal 1891.75956299274
next            iter
jump            SELF loop_min
min_style       cg
variable        tempstp    equal $(step)
variable        tempstp    equal 443
variable        CellMinStep equal ${tempstp}
variable        CellMinStep equal 443
minimize        1.0e-15 1.0e-15 10000 100000
WARNING: Using 'neigh_modify every 1 delay 0 check yes' setting during minimization (src/min.cpp:190)
WARNING: Inconsistent image flags (src/domain.cpp:785)
WARNING: Bond/angle/dihedral extent > half of periodic box length (src/domain.cpp:906)
Per MPI rank memory allocation (min/avg/max) = 18.79 | 18.79 | 18.79 Mbytes
Step Temp E_pair E_mol TotEng Press 
     443            0    91.026106    1800.7335    1891.7596   -62496.774 
     446            0    91.053568    1800.6829    1891.7365   -62513.375 
WARNING: Bond/angle/dihedral extent > half of periodic box length (src/domain.cpp:906)
Loop time of 0.0114059 on 1 procs for 3 steps with 156 atoms

100.0% CPU use with 1 MPI tasks x 1 OpenMP threads

Minimization stats:
  Stopping criterion = linesearch alpha is zero
  Energy initial, next-to-last, final = 
         1891.75956299      1891.73650392      1891.73650392
  Force two-norm initial, final = 7.41782 5.88632
  Force max component initial, final = 2.18752 1.55531
  Final line search alpha, max atom move = 2.30653e-10 3.58736e-10
  Iterations, force evaluations = 3 61

MPI task timing breakdown:
Section |  min time  |  avg time  |  max time  |%varavg| %total
---------------------------------------------------------------
Pair    | 0.0068551  | 0.0068551  | 0.0068551  |   0.0 | 60.10
Bond    | 0.0038941  | 0.0038941  | 0.0038941  |   0.0 | 34.14
Neigh   | 0          | 0          | 0          |   0.0 |  0.00
Comm    | 0.00035993 | 0.00035993 | 0.00035993 |   0.0 |  3.16
Output  | 0          | 0          | 0          |   0.0 |  0.00
Modify  | 0          | 0          | 0          |   0.0 |  0.00
Other   |            | 0.0002969  |            |       |  2.60

Nlocal:    156 ave 156 max 156 min
Histogram: 1 0 0 0 0 0 0 0 0 0
Nghost:    1492 ave 1492 max 1492 min
Histogram: 1 0 0 0 0 0 0 0 0 0
Neighs:    10237 ave 10237 max 10237 min
Histogram: 1 0 0 0 0 0 0 0 0 0

Total # of neighbors = 10237
Ave neighs/atom = 65.6218
Ave special neighs/atom = 6.41026
Neighbor list builds = 0
Dangerous builds = 0
variable        AtomMinStep equal ${tempstp}
variable        AtomMinStep equal 443
variable        temppe     equal $(pe)
variable        temppe     equal 1891.7365039190508469
variable        min_E      equal abs(${prev_E}-${temppe})
variable        min_E      equal abs(1891.75956299274-${temppe})
variable        min_E      equal abs(1891.75956299274-1891.73650391905)
print           "${iter},${CellMinStep},${AtomMinStep},${AtomMinStep},$(pe),${min_E},$(vol),$(lx),$(ly),$(lz),$(xy),$(xz),$(yz)" append NiPyC2_relax_sc211_meta_functionalized_CH2-CH3.min.csv screen no
if              "${min_E} < ${min_eval}" then "jump SELF break_min"
variable        prev_E     equal ${temppe}
variable        prev_E     equal 1891.73650391905
next            iter
jump            SELF loop_min
min_style       cg
variable        tempstp    equal $(step)
variable        tempstp    equal 446
variable        CellMinStep equal ${tempstp}
variable        CellMinStep equal 446
minimize        1.0e-15 1.0e-15 10000 100000
WARNING: Using 'neigh_modify every 1 delay 0 check yes' setting during minimization (src/min.cpp:190)
WARNING: Inconsistent image flags (src/domain.cpp:785)
WARNING: Bond/angle/dihedral extent > half of periodic box length (src/domain.cpp:906)
Per MPI rank memory allocation (min/avg/max) = 18.79 | 18.79 | 18.79 Mbytes
Step Temp E_pair E_mol TotEng Press 
     446            0    91.053568    1800.6829    1891.7365   -62513.375 
     449            0    91.008967    1800.7177    1891.7267   -62524.917 
WARNING: Bond/angle/dihedral extent > half of periodic box length (src/domain.cpp:906)
Loop time of 0.0110206 on 1 procs for 3 steps with 156 atoms

97.5% CPU use with 1 MPI tasks x 1 OpenMP threads

Minimization stats:
  Stopping criterion = linesearch alpha is zero
  Energy initial, next-to-last, final = 
         1891.73650392      1891.72666467      1891.72666467
  Force two-norm initial, final = 5.88632 4.4606
  Force max component initial, final = 1.55531 1.32693
  Final line search alpha, max atom move = 5.82534e-10 7.72984e-10
  Iterations, force evaluations = 3 59

MPI task timing breakdown:
Section |  min time  |  avg time  |  max time  |%varavg| %total
---------------------------------------------------------------
Pair    | 0.0066464  | 0.0066464  | 0.0066464  |   0.0 | 60.31
Bond    | 0.0037296  | 0.0037296  | 0.0037296  |   0.0 | 33.84
Neigh   | 0          | 0          | 0          |   0.0 |  0.00
Comm    | 0.00034063 | 0.00034063 | 0.00034063 |   0.0 |  3.09
Output  | 0          | 0          | 0          |   0.0 |  0.00
Modify  | 0          | 0          | 0          |   0.0 |  0.00
Other   |            | 0.000304   |            |       |  2.76

Nlocal:    156 ave 156 max 156 min
Histogram: 1 0 0 0 0 0 0 0 0 0
Nghost:    1492 ave 1492 max 1492 min
Histogram: 1 0 0 0 0 0 0 0 0 0
Neighs:    10236 ave 10236 max 10236 min
Histogram: 1 0 0 0 0 0 0 0 0 0

Total # of neighbors = 10236
Ave neighs/atom = 65.6154
Ave special neighs/atom = 6.41026
Neighbor list builds = 0
Dangerous builds = 0
variable        AtomMinStep equal ${tempstp}
variable        AtomMinStep equal 446
variable        temppe     equal $(pe)
variable        temppe     equal 1891.7266646706088977
variable        min_E      equal abs(${prev_E}-${temppe})
variable        min_E      equal abs(1891.73650391905-${temppe})
variable        min_E      equal abs(1891.73650391905-1891.72666467061)
print           "${iter},${CellMinStep},${AtomMinStep},${AtomMinStep},$(pe),${min_E},$(vol),$(lx),$(ly),$(lz),$(xy),$(xz),$(yz)" append NiPyC2_relax_sc211_meta_functionalized_CH2-CH3.min.csv screen no
if              "${min_E} < ${min_eval}" then "jump SELF break_min"
variable        prev_E     equal ${temppe}
variable        prev_E     equal 1891.72666467061
next            iter
jump            SELF loop_min
min_style       cg
variable        tempstp    equal $(step)
variable        tempstp    equal 449
variable        CellMinStep equal ${tempstp}
variable        CellMinStep equal 449
minimize        1.0e-15 1.0e-15 10000 100000
WARNING: Using 'neigh_modify every 1 delay 0 check yes' setting during minimization (src/min.cpp:190)
WARNING: Inconsistent image flags (src/domain.cpp:785)
WARNING: Bond/angle/dihedral extent > half of periodic box length (src/domain.cpp:906)
Per MPI rank memory allocation (min/avg/max) = 18.79 | 18.79 | 18.79 Mbytes
Step Temp E_pair E_mol TotEng Press 
     449            0    91.008967    1800.7177    1891.7267   -62524.917 
     450            0    91.008967    1800.7177    1891.7267   -62524.917 
WARNING: Bond/angle/dihedral extent > half of periodic box length (src/domain.cpp:906)
Loop time of 0.010466 on 1 procs for 1 steps with 156 atoms

95.7% CPU use with 1 MPI tasks x 1 OpenMP threads

Minimization stats:
  Stopping criterion = linesearch alpha is zero
  Energy initial, next-to-last, final = 
         1891.72666467      1891.72666467      1891.72666467
  Force two-norm initial, final = 4.4606 4.4606
  Force max component initial, final = 1.32693 1.32693
  Final line search alpha, max atom move = 5.61489e-10 7.45058e-10
  Iterations, force evaluations = 1 54

MPI task timing breakdown:
Section |  min time  |  avg time  |  max time  |%varavg| %total
---------------------------------------------------------------
Pair    | 0.0063022  | 0.0063022  | 0.0063022  |   0.0 | 60.22
Bond    | 0.0035281  | 0.0035281  | 0.0035281  |   0.0 | 33.71
Neigh   | 0          | 0          | 0          |   0.0 |  0.00
Comm    | 0.00031843 | 0.00031843 | 0.00031843 |   0.0 |  3.04
Output  | 0          | 0          | 0          |   0.0 |  0.00
Modify  | 0          | 0          | 0          |   0.0 |  0.00
Other   |            | 0.0003173  |            |       |  3.03

Nlocal:    156 ave 156 max 156 min
Histogram: 1 0 0 0 0 0 0 0 0 0
Nghost:    1492 ave 1492 max 1492 min
Histogram: 1 0 0 0 0 0 0 0 0 0
Neighs:    10236 ave 10236 max 10236 min
Histogram: 1 0 0 0 0 0 0 0 0 0

Total # of neighbors = 10236
Ave neighs/atom = 65.6154
Ave special neighs/atom = 6.41026
Neighbor list builds = 0
Dangerous builds = 0
variable        AtomMinStep equal ${tempstp}
variable        AtomMinStep equal 449
variable        temppe     equal $(pe)
variable        temppe     equal 1891.7266646706088977
variable        min_E      equal abs(${prev_E}-${temppe})
variable        min_E      equal abs(1891.72666467061-${temppe})
variable        min_E      equal abs(1891.72666467061-1891.72666467061)
print           "${iter},${CellMinStep},${AtomMinStep},${AtomMinStep},$(pe),${min_E},$(vol),$(lx),$(ly),$(lz),$(xy),$(xz),$(yz)" append NiPyC2_relax_sc211_meta_functionalized_CH2-CH3.min.csv screen no
if              "${min_E} < ${min_eval}" then "jump SELF break_min"
jump SELF break_min
undump          NiPyC2_relax_sc211_meta_functionalized_CH2-CH3_xyzmov

# Dump last snapshot for restart
variable curr_lx equal lx
variable curr_ly equal ly
variable curr_lz equal lz
change_box all x final 0 ${curr_lx} y final 0 ${curr_ly} z final 0 ${curr_lz}
change_box all x final 0 12.5056 y final 0 ${curr_ly} z final 0 ${curr_lz}
change_box all x final 0 12.5056 y final 0 12.5234 z final 0 ${curr_lz}
change_box all x final 0 12.5056 y final 0 12.5234 z final 0 10.274279
  triclinic box = (0 0 0) to (12.5056 12.5234 10.2743) with tilt (0 -0.227594 0)
  triclinic box = (0 0 0) to (12.5056 12.5234 10.2743) with tilt (0 -0.227594 0)
  triclinic box = (0 0 0) to (12.5056 12.5234 10.2743) with tilt (0 -0.227594 0)

reset_timestep 0
dump            NiPyC2_relax_sc211_meta_functionalized_CH2-CH3_restart all atom 1 NiPyC2_relax_sc211_meta_functionalized_CH2-CH3_restart.lammpstrj
dump_modify     NiPyC2_relax_sc211_meta_functionalized_CH2-CH3_restart scale no sort id
run 0
WARNING: No fixes defined, atoms won't move (src/verlet.cpp:52)
WARNING: Inconsistent image flags (src/domain.cpp:785)
WARNING: Bond/angle/dihedral extent > half of periodic box length (src/domain.cpp:906)
Per MPI rank memory allocation (min/avg/max) = 17.66 | 17.66 | 17.66 Mbytes
Step Temp E_pair E_mol TotEng Press 
       0            0    91.008967    1800.7177    1891.7267   -62524.917 
WARNING: Bond/angle/dihedral extent > half of periodic box length (src/domain.cpp:906)
Loop time of 2.413e-06 on 1 procs for 0 steps with 156 atoms

0.0% CPU use with 1 MPI tasks x 1 OpenMP threads

MPI task timing breakdown:
Section |  min time  |  avg time  |  max time  |%varavg| %total
---------------------------------------------------------------
Pair    | 0          | 0          | 0          |   0.0 |  0.00
Bond    | 0          | 0          | 0          |   0.0 |  0.00
Neigh   | 0          | 0          | 0          |   0.0 |  0.00
Comm    | 0          | 0          | 0          |   0.0 |  0.00
Output  | 0          | 0          | 0          |   0.0 |  0.00
Modify  | 0          | 0          | 0          |   0.0 |  0.00
Other   |            | 2.413e-06  |            |       |100.00

Nlocal:    156 ave 156 max 156 min
Histogram: 1 0 0 0 0 0 0 0 0 0
Nghost:    1492 ave 1492 max 1492 min
Histogram: 1 0 0 0 0 0 0 0 0 0
Neighs:    10236 ave 10236 max 10236 min
Histogram: 1 0 0 0 0 0 0 0 0 0

Total # of neighbors = 10236
Ave neighs/atom = 65.6154
Ave special neighs/atom = 6.41026
Neighbor list builds = 0
Dangerous builds = 0
undump          NiPyC2_relax_sc211_meta_functionalized_CH2-CH3_restart
Total wall time: 0:00:00
units           real
atom_style      full
boundary        p p p

pair_style      lj/cut 5.000
bond_style      harmonic
angle_style     hybrid fourier cosine/periodic
dihedral_style  harmonic
improper_style  fourier

special_bonds   lj/coul 0.0 0.0 1.0
pair_modify     tail yes mix arithmetic
dielectric      1.0
box tilt        large
read_data       data.NiPyC2_relax_sc211_meta_functionalized_CH2-CH3
  triclinic box = (0 0 0) to (12.5056 12.5234 10.2743) with tilt (0 -0.227594 0)
  1 by 1 by 1 MPI processor grid
  reading atoms ...
  156 atoms
  scanning bonds ...
  6 = max bonds/atom
  scanning angles ...
  15 = max angles/atom
  scanning dihedrals ...
  14 = max dihedrals/atom
  scanning impropers ...
  3 = max impropers/atom
  reading bonds ...
  176 bonds
  reading angles ...
  340 angles
  reading dihedrals ...
  376 dihedrals
  reading impropers ...
  168 impropers
  6 = max # of 1-2 neighbors
  9 = max # of 1-3 neighbors
  12 = max # of special neighbors
  special bonds CPU = 0.00017701 secs
  read_data CPU = 0.00521711 secs

#### Atom Groupings ####
group           fram     id   1:156
156 atoms in group fram
#### END Atom Groupings ####

dump            NiPyC2_relax_sc211_meta_functionalized_CH2-CH3_xyzmov all xyz 20000 NiPyC2_relax_sc211_meta_functionalized_CH2-CH3_mov.xyz
dump_modify     NiPyC2_relax_sc211_meta_functionalized_CH2-CH3_xyzmov element Ni O N C H C
min_style       cg
print           "MinStep,CellMinStep,AtomMinStep,FinalStep,Energy,EDiff,vol,lx,ly,lz,xy,xz,yz" file NiPyC2_relax_sc211_meta_functionalized_CH2-CH3.min.csv screen no
variable        min_eval   equal 1.00e-06
variable        prev_E     equal 50000.00
variable        iter       loop 100000
label           loop_min
min_style       cg
variable        tempstp    equal $(step)
variable        tempstp    equal 0
variable        CellMinStep equal ${tempstp}
variable        CellMinStep equal 0
minimize        1.0e-15 1.0e-15 10000 100000
WARNING: Using 'neigh_modify every 1 delay 0 check yes' setting during minimization (src/min.cpp:190)
Neighbor list info ...
  update every 1 steps, delay 0 steps, check yes
  max neighbors/atom: 2000, page size: 100000
  master list distance cutoff = 7
  ghost atom cutoff = 7
  binsize = 3.5, bins = 4 4 3
  1 neighbor lists, perpetual/occasional/extra = 1 0 0
  (1) pair lj/cut, perpetual
      attributes: half, newton on
      pair build: half/bin/newton/tri
      stencil: half/bin/3d/newton/tri
      bin: standard
WARNING: Inconsistent image flags (src/domain.cpp:785)
WARNING: Bond/angle/dihedral extent > half of periodic box length (src/domain.cpp:906)
Per MPI rank memory allocation (min/avg/max) = 18.79 | 18.79 | 18.79 Mbytes
Step Temp E_pair E_mol TotEng Press 
       0            0    121954.66    2226.8489    124181.51     20792224 
     425            0    91.553301    1800.7309    1892.2842   -62253.596 
WARNING: Bond/angle/dihedral extent > half of periodic box length (src/domain.cpp:906)
Loop time of 0.186162 on 1 procs for 425 steps with 156 atoms

100.0% CPU use with 1 MPI tasks x 1 OpenMP threads

Minimization stats:
  Stopping criterion = linesearch alpha is zero
  Energy initial, next-to-last, final = 
         124181.506863      1892.28415902      1892.28415902
  Force two-norm initial, final = 943533 11.2889
  Force max component initial, final = 439553 2.8665
  Final line search alpha, max atom move = 6.25694e-11 1.79355e-10
  Iterations, force evaluations = 425 878

MPI task timing breakdown:
Section |  min time  |  avg time  |  max time  |%varavg| %total
---------------------------------------------------------------
Pair    | 0.10368    | 0.10368    | 0.10368    |   0.0 | 55.69
Bond    | 0.05849    | 0.05849    | 0.05849    |   0.0 | 31.42
Neigh   | 0.013804   | 0.013804   | 0.013804   |   0.0 |  7.42
Comm    | 0.0060862  | 0.0060862  | 0.0060862  |   0.0 |  3.27
Output  | 0          | 0          | 0          |   0.0 |  0.00
Modify  | 0          | 0          | 0          |   0.0 |  0.00
Other   |            | 0.0041     |            |       |  2.20

Nlocal:    156 ave 156 max 156 min
Histogram: 1 0 0 0 0 0 0 0 0 0
Nghost:    1502 ave 1502 max 1502 min
Histogram: 1 0 0 0 0 0 0 0 0 0
Neighs:    10275 ave 10275 max 10275 min
Histogram: 1 0 0 0 0 0 0 0 0 0

Total # of neighbors = 10275
Ave neighs/atom = 65.8654
Ave special neighs/atom = 6.41026
Neighbor list builds = 16
Dangerous builds = 0
variable        AtomMinStep equal ${tempstp}
variable        AtomMinStep equal 0
variable        temppe     equal $(pe)
variable        temppe     equal 1892.284159021155574
variable        min_E      equal abs(${prev_E}-${temppe})
variable        min_E      equal abs(50000-${temppe})
variable        min_E      equal abs(50000-1892.28415902116)
print           "${iter},${CellMinStep},${AtomMinStep},${AtomMinStep},$(pe),${min_E},$(vol),$(lx),$(ly),$(lz),$(xy),$(xz),$(yz)" append NiPyC2_relax_sc211_meta_functionalized_CH2-CH3.min.csv screen no
if              "${min_E} < ${min_eval}" then "jump SELF break_min"
variable        prev_E     equal ${temppe}
variable        prev_E     equal 1892.28415902116
next            iter
jump            SELF loop_min
min_style       cg
variable        tempstp    equal $(step)
variable        tempstp    equal 425
variable        CellMinStep equal ${tempstp}
variable        CellMinStep equal 425
minimize        1.0e-15 1.0e-15 10000 100000
WARNING: Using 'neigh_modify every 1 delay 0 check yes' setting during minimization (src/min.cpp:190)
WARNING: Inconsistent image flags (src/domain.cpp:785)
WARNING: Bond/angle/dihedral extent > half of periodic box length (src/domain.cpp:906)
Per MPI rank memory allocation (min/avg/max) = 18.79 | 18.79 | 18.79 Mbytes
Step Temp E_pair E_mol TotEng Press 
     425            0    91.553301    1800.7309    1892.2842   -62253.596 
     437            0    91.199971    1800.6659    1891.8658   -62502.368 
WARNING: Bond/angle/dihedral extent > half of periodic box length (src/domain.cpp:906)
Loop time of 0.0191725 on 1 procs for 12 steps with 156 atoms

100.0% CPU use with 1 MPI tasks x 1 OpenMP threads

Minimization stats:
  Stopping criterion = linesearch alpha is zero
  Energy initial, next-to-last, final = 
         1892.28415902      1891.86584618      1891.86584618
  Force two-norm initial, final = 11.2889 12.0408
  Force max component initial, final = 2.8665 2.16555
  Final line search alpha, max atom move = 4.82898e-11 1.04574e-10
  Iterations, force evaluations = 12 79

MPI task timing breakdown:
Section |  min time  |  avg time  |  max time  |%varavg| %total
---------------------------------------------------------------
Pair    | 0.011519   | 0.011519   | 0.011519   |   0.0 | 60.08
Bond    | 0.0065157  | 0.0065157  | 0.0065157  |   0.0 | 33.98
Neigh   | 0          | 0          | 0          |   0.0 |  0.00
Comm    | 0.00062053 | 0.00062053 | 0.00062053 |   0.0 |  3.24
Output  | 0          | 0          | 0          |   0.0 |  0.00
Modify  | 0          | 0          | 0          |   0.0 |  0.00
Other   |            | 0.0005174  |            |       |  2.70

Nlocal:    156 ave 156 max 156 min
Histogram: 1 0 0 0 0 0 0 0 0 0
Nghost:    1492 ave 1492 max 1492 min
Histogram: 1 0 0 0 0 0 0 0 0 0
Neighs:    10248 ave 10248 max 10248 min
Histogram: 1 0 0 0 0 0 0 0 0 0

Total # of neighbors = 10248
Ave neighs/atom = 65.6923
Ave special neighs/atom = 6.41026
Neighbor list builds = 0
Dangerous builds = 0
variable        AtomMinStep equal ${tempstp}
variable        AtomMinStep equal 425
variable        temppe     equal $(pe)
variable        temppe     equal 1891.865846182549376
variable        min_E      equal abs(${prev_E}-${temppe})
variable        min_E      equal abs(1892.28415902116-${temppe})
variable        min_E      equal abs(1892.28415902116-1891.86584618255)
print           "${iter},${CellMinStep},${AtomMinStep},${AtomMinStep},$(pe),${min_E},$(vol),$(lx),$(ly),$(lz),$(xy),$(xz),$(yz)" append NiPyC2_relax_sc211_meta_functionalized_CH2-CH3.min.csv screen no
if              "${min_E} < ${min_eval}" then "jump SELF break_min"
variable        prev_E     equal ${temppe}
variable        prev_E     equal 1891.86584618255
next            iter
jump            SELF loop_min
min_style       cg
variable        tempstp    equal $(step)
variable        tempstp    equal 437
variable        CellMinStep equal ${tempstp}
variable        CellMinStep equal 437
minimize        1.0e-15 1.0e-15 10000 100000
WARNING: Using 'neigh_modify every 1 delay 0 check yes' setting during minimization (src/min.cpp:190)
WARNING: Inconsistent image flags (src/domain.cpp:785)
WARNING: Bond/angle/dihedral extent > half of periodic box length (src/domain.cpp:906)
Per MPI rank memory allocation (min/avg/max) = 18.79 | 18.79 | 18.79 Mbytes
Step Temp E_pair E_mol TotEng Press 
     437            0    91.199971    1800.6659    1891.8658   -62502.368 
     443            0    91.026106    1800.7335    1891.7596   -62496.774 
WARNING: Bond/angle/dihedral extent > half of periodic box length (src/domain.cpp:906)
Loop time of 0.0127492 on 1 procs for 6 steps with 156 atoms

100.0% CPU use with 1 MPI tasks x 1 OpenMP threads

Minimization stats:
  Stopping criterion = linesearch alpha is zero
  Energy initial, next-to-last, final = 
         1891.86584618      1891.75956299      1891.75956299
  Force two-norm initial, final = 12.0408 7.41782
  Force max component initial, final = 2.16555 2.18752
  Final line search alpha, max atom move = 1.34951e-10 2.95207e-10
  Iterations, force evaluations = 6 67

MPI task timing breakdown:
Section |  min time  |  avg time  |  max time  |%varavg| %total
---------------------------------------------------------------
Pair    | 0.0076115  | 0.0076115  | 0.0076115  |   0.0 | 59.70
Bond    | 0.0043268  | 0.0043268  | 0.0043268  |   0.0 | 33.94
Neigh   | 0          | 0          | 0          |   0.0 |  0.00
Comm    | 0.00039884 | 0.00039884 | 0.00039884 |   0.0 |  3.13
Output  | 0          | 0          | 0          |   0.0 |  0.00
Modify  | 0          | 0          | 0          |   0.0 |  0.00
Other   |            | 0.0004121  |            |       |  3.23

Nlocal:    156 ave 156 max 156 min
Histogram: 1 0 0 0 0 0 0 0 0 0
Nghost:    1492 ave 1492 max 1492 min
Histogram: 1 0 0 0 0 0 0 0 0 0
Neighs:    10234 ave 10234 max 10234 min
Histogram: 1 0 0 0 0 0 0 0 0 0

Total # of neighbors = 10234
Ave neighs/atom = 65.6026
Ave special neighs/atom = 6.41026
Neighbor list builds = 0
Dangerous builds = 0
variable        AtomMinStep equal ${tempstp}
variable        AtomMinStep equal 437
variable        temppe     equal $(pe)
variable        temppe     equal 1891.7595629927373011
variable        min_E      equal abs(${prev_E}-${temppe})
variable        min_E      equal abs(1891.86584618255-${temppe})
variable        min_E      equal abs(1891.86584618255-1891.75956299274)
print           "${iter},${CellMinStep},${AtomMinStep},${AtomMinStep},$(pe),${min_E},$(vol),$(lx),$(ly),$(lz),$(xy),$(xz),$(yz)" append NiPyC2_relax_sc211_meta_functionalized_CH2-CH3.min.csv screen no
if              "${min_E} < ${min_eval}" then "jump SELF break_min"
variable        prev_E     equal ${temppe}
variable        prev_E     equal 1891.75956299274
next            iter
jump            SELF loop_min
min_style       cg
variable        tempstp    equal $(step)
variable        tempstp    equal 443
variable        CellMinStep equal ${tempstp}
variable        CellMinStep equal 443
minimize        1.0e-15 1.0e-15 10000 100000
WARNING: Using 'neigh_modify every 1 delay 0 check yes' setting during minimization (src/min.cpp:190)
WARNING: Inconsistent image flags (src/domain.cpp:785)
WARNING: Bond/angle/dihedral extent > half of periodic box length (src/domain.cpp:906)
Per MPI rank memory allocation (min/avg/max) = 18.79 | 18.79 | 18.79 Mbytes
Step Temp E_pair E_mol TotEng Press 
     443            0    91.026106    1800.7335    1891.7596   -62496.774 
     446            0    91.053568    1800.6829    1891.7365   -62513.375 
WARNING: Bond/angle/dihedral extent > half of periodic box length (src/domain.cpp:906)
Loop time of 0.0115948 on 1 procs for 3 steps with 156 atoms

100.0% CPU use with 1 MPI tasks x 1 OpenMP threads

Minimization stats:
  Stopping criterion = linesearch alpha is zero
  Energy initial, next-to-last, final = 
         1891.75956299      1891.73650392      1891.73650392
  Force two-norm initial, final = 7.41782 5.88632
  Force max component initial, final = 2.18752 1.55531
  Final line search alpha, max atom move = 2.30653e-10 3.58736e-10
  Iterations, force evaluations = 3 61

MPI task timing breakdown:
Section |  min time  |  avg time  |  max time  |%varavg| %total
---------------------------------------------------------------
Pair    | 0.0069812  | 0.0069812  | 0.0069812  |   0.0 | 60.21
Bond    | 0.0039161  | 0.0039161  | 0.0039161  |   0.0 | 33.77
Neigh   | 0          | 0          | 0          |   0.0 |  0.00
Comm    | 0.00037764 | 0.00037764 | 0.00037764 |   0.0 |  3.26
Output  | 0          | 0          | 0          |   0.0 |  0.00
Modify  | 0          | 0          | 0          |   0.0 |  0.00
Other   |            | 0.0003198  |            |       |  2.76

Nlocal:    156 ave 156 max 156 min
Histogram: 1 0 0 0 0 0 0 0 0 0
Nghost:    1492 ave 1492 max 1492 min
Histogram: 1 0 0 0 0 0 0 0 0 0
Neighs:    10237 ave 10237 max 10237 min
Histogram: 1 0 0 0 0 0 0 0 0 0

Total # of neighbors = 10237
Ave neighs/atom = 65.6218
Ave special neighs/atom = 6.41026
Neighbor list builds = 0
Dangerous builds = 0
variable        AtomMinStep equal ${tempstp}
variable        AtomMinStep equal 443
variable        temppe     equal $(pe)
variable        temppe     equal 1891.7365039190508469
variable        min_E      equal abs(${prev_E}-${temppe})
variable        min_E      equal abs(1891.75956299274-${temppe})
variable        min_E      equal abs(1891.75956299274-1891.73650391905)
print           "${iter},${CellMinStep},${AtomMinStep},${AtomMinStep},$(pe),${min_E},$(vol),$(lx),$(ly),$(lz),$(xy),$(xz),$(yz)" append NiPyC2_relax_sc211_meta_functionalized_CH2-CH3.min.csv screen no
if              "${min_E} < ${min_eval}" then "jump SELF break_min"
variable        prev_E     equal ${temppe}
variable        prev_E     equal 1891.73650391905
next            iter
jump            SELF loop_min
min_style       cg
variable        tempstp    equal $(step)
variable        tempstp    equal 446
variable        CellMinStep equal ${tempstp}
variable        CellMinStep equal 446
minimize        1.0e-15 1.0e-15 10000 100000
WARNING: Using 'neigh_modify every 1 delay 0 check yes' setting during minimization (src/min.cpp:190)
WARNING: Inconsistent image flags (src/domain.cpp:785)
WARNING: Bond/angle/dihedral extent > half of periodic box length (src/domain.cpp:906)
Per MPI rank memory allocation (min/avg/max) = 18.79 | 18.79 | 18.79 Mbytes
Step Temp E_pair E_mol TotEng Press 
     446            0    91.053568    1800.6829    1891.7365   -62513.375 
     449            0    91.008967    1800.7177    1891.7267   -62524.917 
WARNING: Bond/angle/dihedral extent > half of periodic box length (src/domain.cpp:906)
Loop time of 0.0117695 on 1 procs for 3 steps with 156 atoms

100.0% CPU use with 1 MPI tasks x 1 OpenMP threads

Minimization stats:
  Stopping criterion = linesearch alpha is zero
  Energy initial, next-to-last, final = 
         1891.73650392      1891.72666467      1891.72666467
  Force two-norm initial, final = 5.88632 4.4606
  Force max component initial, final = 1.55531 1.32693
  Final line search alpha, max atom move = 5.82534e-10 7.72984e-10
  Iterations, force evaluations = 3 59

MPI task timing breakdown:
Section |  min time  |  avg time  |  max time  |%varavg| %total
---------------------------------------------------------------
Pair    | 0.0070994  | 0.0070994  | 0.0070994  |   0.0 | 60.32
Bond    | 0.0039547  | 0.0039547  | 0.0039547  |   0.0 | 33.60
Neigh   | 0          | 0          | 0          |   0.0 |  0.00
Comm    | 0.00038347 | 0.00038347 | 0.00038347 |   0.0 |  3.26
Output  | 0          | 0          | 0          |   0.0 |  0.00
Modify  | 0          | 0          | 0          |   0.0 |  0.00
Other   |            | 0.000332   |            |       |  2.82

Nlocal:    156 ave 156 max 156 min
Histogram: 1 0 0 0 0 0 0 0 0 0
Nghost:    1492 ave 1492 max 1492 min
Histogram: 1 0 0 0 0 0 0 0 0 0
Neighs:    10236 ave 10236 max 10236 min
Histogram: 1 0 0 0 0 0 0 0 0 0

Total # of neighbors = 10236
Ave neighs/atom = 65.6154
Ave special neighs/atom = 6.41026
Neighbor list builds = 0
Dangerous builds = 0
variable        AtomMinStep equal ${tempstp}
variable        AtomMinStep equal 446
variable        temppe     equal $(pe)
variable        temppe     equal 1891.7266646706088977
variable        min_E      equal abs(${prev_E}-${temppe})
variable        min_E      equal abs(1891.73650391905-${temppe})
variable        min_E      equal abs(1891.73650391905-1891.72666467061)
print           "${iter},${CellMinStep},${AtomMinStep},${AtomMinStep},$(pe),${min_E},$(vol),$(lx),$(ly),$(lz),$(xy),$(xz),$(yz)" append NiPyC2_relax_sc211_meta_functionalized_CH2-CH3.min.csv screen no
if              "${min_E} < ${min_eval}" then "jump SELF break_min"
variable        prev_E     equal ${temppe}
variable        prev_E     equal 1891.72666467061
next            iter
jump            SELF loop_min
min_style       cg
variable        tempstp    equal $(step)
variable        tempstp    equal 449
variable        CellMinStep equal ${tempstp}
variable        CellMinStep equal 449
minimize        1.0e-15 1.0e-15 10000 100000
WARNING: Using 'neigh_modify every 1 delay 0 check yes' setting during minimization (src/min.cpp:190)
WARNING: Inconsistent image flags (src/domain.cpp:785)
WARNING: Bond/angle/dihedral extent > half of periodic box length (src/domain.cpp:906)
Per MPI rank memory allocation (min/avg/max) = 18.79 | 18.79 | 18.79 Mbytes
Step Temp E_pair E_mol TotEng Press 
     449            0    91.008967    1800.7177    1891.7267   -62524.917 
     450            0    91.008967    1800.7177    1891.7267   -62524.917 
WARNING: Bond/angle/dihedral extent > half of periodic box length (src/domain.cpp:906)
Loop time of 0.0143719 on 1 procs for 1 steps with 156 atoms

100.0% CPU use with 1 MPI tasks x 1 OpenMP threads

Minimization stats:
  Stopping criterion = linesearch alpha is zero
  Energy initial, next-to-last, final = 
         1891.72666467      1891.72666467      1891.72666467
  Force two-norm initial, final = 4.4606 4.4606
  Force max component initial, final = 1.32693 1.32693
  Final line search alpha, max atom move = 5.61489e-10 7.45058e-10
  Iterations, force evaluations = 1 54

MPI task timing breakdown:
Section |  min time  |  avg time  |  max time  |%varavg| %total
---------------------------------------------------------------
Pair    | 0.0087594  | 0.0087594  | 0.0087594  |   0.0 | 60.95
Bond    | 0.0046549  | 0.0046549  | 0.0046549  |   0.0 | 32.39
Neigh   | 0          | 0          | 0          |   0.0 |  0.00
Comm    | 0.0005056  | 0.0005056  | 0.0005056  |   0.0 |  3.52
Output  | 0          | 0          | 0          |   0.0 |  0.00
Modify  | 0          | 0          | 0          |   0.0 |  0.00
Other   |            | 0.000452   |            |       |  3.14

Nlocal:    156 ave 156 max 156 min
Histogram: 1 0 0 0 0 0 0 0 0 0
Nghost:    1492 ave 1492 max 1492 min
Histogram: 1 0 0 0 0 0 0 0 0 0
Neighs:    10236 ave 10236 max 10236 min
Histogram: 1 0 0 0 0 0 0 0 0 0

Total # of neighbors = 10236
Ave neighs/atom = 65.6154
Ave special neighs/atom = 6.41026
Neighbor list builds = 0
Dangerous builds = 0
variable        AtomMinStep equal ${tempstp}
variable        AtomMinStep equal 449
variable        temppe     equal $(pe)
variable        temppe     equal 1891.7266646706088977
variable        min_E      equal abs(${prev_E}-${temppe})
variable        min_E      equal abs(1891.72666467061-${temppe})
variable        min_E      equal abs(1891.72666467061-1891.72666467061)
print           "${iter},${CellMinStep},${AtomMinStep},${AtomMinStep},$(pe),${min_E},$(vol),$(lx),$(ly),$(lz),$(xy),$(xz),$(yz)" append NiPyC2_relax_sc211_meta_functionalized_CH2-CH3.min.csv screen no
if              "${min_E} < ${min_eval}" then "jump SELF break_min"
jump SELF break_min
undump          NiPyC2_relax_sc211_meta_functionalized_CH2-CH3_xyzmov

# Dump last snapshot for restart
variable curr_lx equal lx
variable curr_ly equal ly
variable curr_lz equal lz
change_box all x final 0 ${curr_lx} y final 0 ${curr_ly} z final 0 ${curr_lz}
change_box all x final 0 12.5056 y final 0 ${curr_ly} z final 0 ${curr_lz}
change_box all x final 0 12.5056 y final 0 12.5234 z final 0 ${curr_lz}
change_box all x final 0 12.5056 y final 0 12.5234 z final 0 10.274279
  triclinic box = (0 0 0) to (12.5056 12.5234 10.2743) with tilt (0 -0.227594 0)
  triclinic box = (0 0 0) to (12.5056 12.5234 10.2743) with tilt (0 -0.227594 0)
  triclinic box = (0 0 0) to (12.5056 12.5234 10.2743) with tilt (0 -0.227594 0)

reset_timestep 0
dump            NiPyC2_relax_sc211_meta_functionalized_CH2-CH3_restart all atom 1 NiPyC2_relax_sc211_meta_functionalized_CH2-CH3_restart.lammpstrj
dump_modify     NiPyC2_relax_sc211_meta_functionalized_CH2-CH3_restart scale no sort id
run 0
WARNING: No fixes defined, atoms won't move (src/verlet.cpp:52)
WARNING: Inconsistent image flags (src/domain.cpp:785)
WARNING: Bond/angle/dihedral extent > half of periodic box length (src/domain.cpp:906)
Per MPI rank memory allocation (min/avg/max) = 17.66 | 17.66 | 17.66 Mbytes
Step Temp E_pair E_mol TotEng Press 
       0            0    91.008967    1800.7177    1891.7267   -62524.917 
WARNING: Bond/angle/dihedral extent > half of periodic box length (src/domain.cpp:906)
Loop time of 1.013e-06 on 1 procs for 0 steps with 156 atoms

296.1% CPU use with 1 MPI tasks x 1 OpenMP threads

MPI task timing breakdown:
Section |  min time  |  avg time  |  max time  |%varavg| %total
---------------------------------------------------------------
Pair    | 0          | 0          | 0          |   0.0 |  0.00
Bond    | 0          | 0          | 0          |   0.0 |  0.00
Neigh   | 0          | 0          | 0          |   0.0 |  0.00
Comm    | 0          | 0          | 0          |   0.0 |  0.00
Output  | 0          | 0          | 0          |   0.0 |  0.00
Modify  | 0          | 0          | 0          |   0.0 |  0.00
Other   |            | 1.013e-06  |            |       |100.00

Nlocal:    156 ave 156 max 156 min
Histogram: 1 0 0 0 0 0 0 0 0 0
Nghost:    1492 ave 1492 max 1492 min
Histogram: 1 0 0 0 0 0 0 0 0 0
Neighs:    10236 ave 10236 max 10236 min
Histogram: 1 0 0 0 0 0 0 0 0 0

Total # of neighbors = 10236
Ave neighs/atom = 65.6154
Ave special neighs/atom = 6.41026
Neighbor list builds = 0
Dangerous builds = 0
undump          NiPyC2_relax_sc211_meta_functionalized_CH2-CH3_restart
Total wall time: 0:00:00
