156
Atoms. Timestep: 0
Ni 2.89857 9.41116 8.59265
Ni 6.17525 3.10579 3.48481
O 1.44827 4.35425 3.93374
O 4.4416 8.15245 9.05464
O 4.63665 1.84729 3.87523
O 1.36499 10.6744 9.00295
O 5.80609 4.46033 4.96242
O 2.54244 8.0327 10.0675
O 0.25117 1.69264 4.94273
O 3.23722 10.8047 10.0626
N 3.69677 10.6606 7.2416
N 0.71256 1.8642 2.11704
N 2.17217 8.14409 7.25198
N 5.44023 4.39481 2.13747
C 3.48546 12.1483 5.36301
C 0.47488 0.38955 0.2292
H 2.86453 12.5181 4.55267
C 4.76073 0.1474 5.61481
C 1.74333 12.3699 0.47412
C 5.50345 12.1502 6.68209
C 2.49852 0.35508 1.54004
H 3.49155 12.5067 1.77336
C 2.48363 6.6337 5.40822
C 5.72803 5.90364 0.28669
C 2.92756 7.68099 6.23068
C 6.1883 4.86756 1.11596
H 3.89994 8.14655 6.0889
H 0.91589 4.41889 0.97634
C 2.98256 11.1359 6.19748
C -0.01036 1.40553 1.07106
H 1.99392 10.709 6.04703
H 5.26093 1.85011 0.92351
C 4.93641 11.1381 7.47507
C 1.94823 1.3719 2.3406
H 5.48559 10.7097 8.30944
H 2.50886 1.79214 3.17267
C 0.94573 7.62654 7.47302
C 4.21083 4.90458 2.35686
H 0.36328 8.05184 8.28732
H 3.63605 4.47744 3.17528
C 0.43859 6.57577 6.69176
C 3.68763 5.945 1.56944
H 2.69824 6.32683 1.80071
C 1.22745 6.06471 5.65205
C 4.46338 6.45777 0.52027
C 5.3126 1.24381 4.79419
C 2.0502 11.2675 9.92158
C 0.73548 4.94016 4.83586
C 3.73174 7.56629 9.95688
Ni 9.15137 9.41116 8.59265
Ni 12.4281 3.10579 3.48481
O 7.70109 4.35425 3.93374
O 10.6944 8.15245 9.05464
O 10.8895 1.84729 3.87523
O 7.61779 10.6744 9.00295
O 12.0589 4.46033 4.96242
O 8.79524 8.0327 10.0675
O 6.50397 1.69264 4.94273
O 9.49002 10.8047 10.0626
N 9.94957 10.6606 7.2416
N 6.96536 1.8642 2.11704
N 8.42499 8.14409 7.25198
N 11.693 4.39481 2.13747
C 9.73826 12.1483 5.36301
C 6.72768 0.38955 0.2292
H 9.11733 12.5181 4.55267
C 11.0135 0.1474 5.61481
C 7.99613 12.3699 0.47412
C 11.7562 12.1502 6.68209
C 8.75132 0.35508 1.54004
H 9.74435 12.5067 1.77336
C 8.73644 6.6337 5.40822
C 11.9808 5.90364 0.28669
H 9.38574 6.27291 4.61605
C 9.18036 7.68099 6.23068
C 12.4411 4.86756 1.11596
H 10.1527 8.14655 6.0889
H 7.16869 4.41889 0.97634
C 9.23536 11.1359 6.19748
C 6.24244 1.40553 1.07106
H 8.24672 10.709 6.04703
H 11.5137 1.85011 0.92351
C 11.1892 11.1381 7.47507
C 8.20102 1.3719 2.3406
H 11.7384 10.7097 8.30944
H 8.76167 1.79214 3.17267
C 7.19853 7.62654 7.47302
C 10.4636 4.90458 2.35686
H 6.61608 8.05184 8.28732
H 9.88885 4.47744 3.17528
C 6.69139 6.57577 6.69176
C 9.94043 5.945 1.56944
H 11.9605 6.17693 6.91975
H 8.95104 6.32683 1.80071
C 7.48025 6.06471 5.65205
C 10.7162 6.45777 0.52027
C 11.5654 1.24381 4.79419
C 8.303 11.2675 9.92158
C 6.98827 4.94016 4.83586
C 9.98454 7.56629 9.95688
C 6.9192 0.14363 6.99516
C 7.64093 12.028 8.1843
H 6.85525 1.233 7.20481
H 7.55838 12.4984 6.10197
H 7.07365 12.2005 9.12362
H 8.64467 12.4896 8.29763
H 7.779 10.9385 8.01729
C 11.8876 12.414 9.33006
C 10.5182 0.55098 9.15155
H 11.7053 11.3265 9.46783
H -0.05541 0.05534 8.38605
H 9.88442 0.3836 10.0483
H 10.0034 0.10113 8.27631
H 10.6317 1.6398 8.9631
C 3.37658 6.12948 4.25918
C 4.7302 6.82192 4.08154
H 2.82242 6.25578 3.30433
H 3.58594 5.05105 4.42631
H 4.5903 7.90233 3.86457
H 5.26839 6.3647 3.22436
H 5.35626 6.69377 4.99013
C 6.39084 6.41385 9.41001
C 7.75505 5.74028 9.24105
H 5.84162 6.27315 8.45431
H 6.58379 7.49632 9.57066
H 7.63176 4.65653 9.03078
H 8.28916 6.19975 8.38252
H 8.37631 5.88358 10.1507
C 0.6664 0.14363 6.99516
C 1.38813 12.028 8.1843
H 0.60245 1.233 7.20481
H 1.30558 12.4984 6.10197
H 0.82085 12.2005 9.12362
H 2.39187 12.4896 8.29763
H 1.5262 10.9385 8.01729
C 5.63482 12.414 9.33007
C 4.26545 0.55104 9.1515
H 6.19742 0.0553 8.38606
H 5.45243 11.3265 9.46785
H 4.37898 1.63985 8.96302
H 3.75061 0.10119 8.27626
H 3.63161 0.3837 10.0483
C 5.29232 6.00627 6.98457
C 4.51779 6.63933 8.1433
H 4.66711 6.12894 6.07416
H 5.39678 4.92523 7.21951
H 4.3383 7.71826 7.94934
H 3.53182 6.13832 8.24487
H 5.07029 6.51073 9.09836
C 0.13806 6.41386 9.41001
C 1.50227 5.74029 9.24107
H 12.0944 6.27316 8.45432
H 0.331 7.49632 9.57068
H 1.37897 4.65654 9.03079
H 2.03637 6.19976 8.38254
H 2.12351 5.88359 10.1507
156
Atoms. Timestep: 230
Ni 2.62401 8.81755 9.25453
Ni 6.1408 3.46994 3.14915
O 0.825862 4.7842 3.53843
O 4.1295 7.88053 9.47686
O 4.65051 2.46781 3.30496
O 1.10458 9.75039 9.41469
O 5.65799 4.62317 4.37018
O 2.19573 7.63667 10.5095
O -0.313014 2.66778 4.49201
O 2.97437 9.97225 10.5493
N 3.35895 10.0313 7.85991
N 0.0529914 2.67881 1.97868
N 1.97792 7.63215 7.84735
N 5.43773 4.6404 1.8036
C 3.23965 10.9059 5.57881
C -0.158835 1.60622 -0.152744
H 2.68625 10.9445 4.64895
C 4.60328 1.37137 5.59838
C 1.22458 11.1076 -0.150016
C 5.31779 11.0865 6.81924
C 1.95187 1.50486 1.01529
H 2.95222 11.0247 1.14479
C 2.17409 6.72999 5.58449
C 5.79203 6.06739 -0.0924807
C 2.73475 7.3735 6.73602
C 6.27429 5.35427 1.02293
H 3.72887 7.77527 6.69028
H 0.572207 5.08132 0.979637
C 2.62456 10.3233 6.73013
C 12.847 2.20186 0.994611
H 1.62085 9.93465 6.63756
H 5.06136 1.84679 0.972388
C 4.73295 10.1925 7.76787
C 1.36385 2.27734 2.05137
H 5.37295 9.50151 8.26983
H 1.94674 2.52755 2.92748
C 0.635141 7.37694 7.77717
C 4.09161 4.89252 1.72279
H -0.0474887 7.92138 8.39703
H 3.40555 4.38421 2.3752
C 0.101624 6.52469 6.79805
C 3.58122 5.8561 0.820499
H 2.55282 6.17742 0.904382
C 0.839286 6.21703 5.65286
C 4.39782 6.38513 -0.192059
C 5.31339 1.85074 4.31594
C 1.70224 10.4058 10.445
C 0.153637 5.46116 4.50025
C 3.47264 7.19487 10.4416
Ni 9.4503 8.52181 8.99077
Ni 12.8985 3.84755 3.30414
O 7.61133 4.46095 3.34355
O 10.9779 7.57614 9.16052
O 11.3597 2.88815 3.40067
O 7.91619 9.45425 9.21625
O 12.4442 5.00677 4.5756
O 9.06897 7.36604 10.2074
O 6.57183 2.33072 4.35432
O 9.82118 9.6596 10.2973
N 10.1432 9.76641 7.61502
N 6.90016 2.3087 1.83886
N 8.76173 7.31979 7.58601
N 12.2902 5.06235 1.94629
C 10.0877 10.646 5.33595
C 6.7075 11.144 -0.273715
H 9.64338 10.5835 4.35088
C 11.2878 1.44881 5.53059
C 8.0915 10.7631 -0.298778
C 11.9131 1.34007 6.79674
C 8.83489 11.1041 0.851136
H 9.85836 10.7591 0.960291
C 8.9565 6.13163 5.46655
C 12.5777 5.85778 -0.315509
H 9.55915 5.86549 4.62044
C 9.54867 6.81731 6.57026
C -0.464041 5.36311 0.908383
H 10.6005 7.05678 6.52672
H 7.33189 5.32856 1.21671
C 9.52294 9.88062 6.39583
C 6.12902 1.744 0.900447
H 8.64042 9.31009 6.19528
H 11.784 2.35188 1.06073
C 11.4299 10.254 7.7157
C 8.23993 1.98612 1.87797
H 12.1354 9.68559 8.27905
H 8.83941 2.30029 2.72023
C 7.40008 7.11281 7.49924
C 11.0002 5.51174 1.92978
H 6.72223 7.75945 8.00731
H 10.3521 5.28278 2.75238
C 6.85891 6.11863 6.64205
C 10.4904 6.23346 0.823079
H 12.6535 6.17526 6.9019
H 9.49231 6.64819 0.87098
C 7.58027 5.81808 5.47537
C 11.2504 6.35616 -0.358672
C 12.0023 2.18604 4.36941
C 8.54102 10.0759 10.2596
C 6.91458 5.11757 4.29903
C 10.322 6.91014 10.1533
C 6.80355 1.62282 6.90296
C 7.71564 2.319 7.9616
H 6.69486 2.56373 6.43302
H 7.37375 10.9583 6.18525
H 7.1897 2.78766 8.81006
H 8.33894 3.13673 7.48439
H 8.50084 1.69193 8.34775
C 12.2324 11.1859 10.5519
C 11.1974 2.39692 10.2468
H 11.815 10.2373 10.8792
H -0.784556 10.9779 9.67553
H 10.383 2.41652 10.9879
H 10.7283 2.26186 9.26056
H 11.6596 3.40464 10.2397
C 2.99287 6.60041 4.3175
C 4.12148 7.63604 4.14093
H 2.33343 6.71643 3.4291
H 3.42864 5.58154 4.32733
H 3.72875 8.67169 4.18653
H 4.5817 7.51528 3.14029
H 4.93234 7.51086 4.89154
C 6.53927 6.47462 10.707
C 7.47178 5.27465 10.3819
H 6.10571 6.8581 9.80297
H 7.32734 7.31492 -0.588536
H 6.91542 4.32732 10.3102
H 8.01586 5.43485 9.44129
H 8.51689 5.12927 -0.633758
C -0.388812 2.1691 6.99783
C 0.483432 2.54625 8.14688
H 12.8614 3.19619 6.69288
H 0.338599 1.7087 6.32878
H -0.131432 2.90157 8.96983
H 1.12861 3.37479 7.77496
H 1.26047 1.82525 8.35877
C 5.61119 11.0867 10.3303
C 4.62537 2.36398 10.1801
H 6.23984 11.0647 9.48128
H 5.17713 10.0872 10.3313
H 5.06697 3.32222 10.4924
H 4.29794 2.46535 9.12964
H 3.73761 2.25182 10.8217
C 6.04857 5.00356 7.2742
C 4.77591 5.30987 7.98918
H 5.70028 4.29402 6.54051
H 6.71199 4.5585 7.99079
H 4.64004 6.36516 7.92029
H 3.91295 4.73817 7.56179
H 4.87493 5.02084 9.0461
C -0.391063 5.90244 10.2721
C 0.756361 4.9019 10.2904
H 12.5789 5.72648 9.35522
H 0.0170006 6.91529 10.2745
H 0.525387 3.9394 10.7986
H 1.06032 4.77448 9.26376
H 1.64305 5.31296 10.7526
156
Atoms. Timestep: 8024
Ni 2.74057 8.84714 9.2797
Ni 6.23415 3.60636 3.21712
O 0.99185 4.74804 3.68409
O 4.16347 7.77274 9.42556
O 4.73915 2.6388 3.41834
O 1.31105 9.89436 9.49995
O 5.80839 4.78834 4.4223
O 2.23398 7.63614 10.486
O -0.0144521 2.61069 4.82483
O 3.21821 9.90661 10.6223
N 3.52413 10.0675 7.95117
N 0.384959 2.48302 2.24247
N 2.00636 7.78449 7.81819
N 5.51678 4.77351 1.87134
C 3.34173 1.55259 5.94183
C 0.155304 1.34333 0.149575
H 2.72021 2.148 5.28806
C 4.71936 1.39203 5.65587
C 1.56694 11.1148 -0.00138551
C 5.47492 10.5414 6.56275
C 2.35387 1.66922 1.07419
H 3.4149 1.47988 1.0895
C 2.07685 7.03387 5.4909
C 5.79967 6.00657 -0.162183
C 2.69839 7.61656 6.63934
C 6.32467 5.44194 1.02038
H 3.72776 7.91749 6.57419
H 0.711951 4.73212 0.936084
C 2.75604 10.8265 7.08972
C -0.373895 1.7584 1.38733
H 1.68949 10.9046 7.24642
H 5.27953 2.60347 0.589349
C 4.85435 9.90728 7.66048
C 1.74594 2.35441 2.16572
H 5.44677 9.2413 8.2531
H 2.35569 2.73451 2.9625
C 0.684705 7.43846 7.8334
C 4.16856 5.03104 1.83576
H 0.0215088 7.89905 8.54411
H 3.5358 4.67059 2.62861
C 0.153091 6.56801 6.85405
C 3.60748 5.85566 0.828734
H 2.56727 6.14096 0.892885
C 0.841264 6.35544 5.65097
C 4.39856 6.3087 -0.240972
C 5.40233 2.0213 4.42556
C 1.98321 10.4486 10.5493
C 0.244212 5.44939 4.57265
C 3.47354 7.09889 10.3786
Ni 9.57537 8.45646 9.13569
Ni -0.431406 3.70324 3.49487
O 7.73498 4.57043 3.36191
O 11.0893 7.51363 9.36076
O 11.6924 2.68125 3.61041
O 8.05081 9.41928 9.28452
O 12.5778 4.91086 4.67184
O 9.1663 7.33754 10.4327
O 6.66927 2.4854 4.48298
O 9.93969 9.67412 10.3909
N 10.2924 9.63368 7.69808
N 6.93202 2.3771 1.86051
N 8.91221 7.18431 7.78529
N 12.4826 4.79589 2.03342
C 10.6342 10.2222 5.34264
C 6.90215 1.58985 -0.449832
H 10.367 10.0688 4.30425
C 11.6096 11.1671 5.68501
C 8.1636 10.8323 -0.303277
C 11.8497 1.46272 7.04844
C 8.7541 10.9054 0.979985
H 9.68625 10.3898 1.1733
C 9.15182 6.12323 5.60471
C 12.6845 5.60866 -0.258284
H 9.77493 5.94409 4.74517
C 9.72392 6.67572 6.79447
C -0.320468 5.03736 0.927104
H 10.7743 6.90152 6.80826
H 7.38394 5.45786 1.20159
C 9.93525 9.5175 6.36198
C 6.27171 2.20378 0.68192
H 9.10734 8.91851 6.06192
H 12.162 1.5773 1.61291
C 11.4125 10.3713 7.96087
C 8.16109 1.77654 2.02208
H 12.1437 9.93586 8.60373
H 8.69637 1.90069 2.95376
C 7.56371 6.9167 7.7061
C 11.1914 5.25173 2.05826
H 6.87448 7.48928 8.28921
H 10.556 4.99865 2.88995
C 7.05698 5.98946 6.75634
C 10.6623 6.02461 0.996075
H 12.7791 6.0855 7.0275
H 9.67764 6.46041 1.10269
C 7.77684 5.81175 5.56906
C 11.3774 6.18262 -0.207558
C 12.3334 2.06188 4.6262
C 8.66241 10.1183 10.2855
C 7.07741 5.24653 4.33669
C 10.43 6.87059 10.3641
C 6.95142 10.3448 6.36615
C 7.78515 1.61852 6.88239
H 7.18467 10.1204 5.30314
H 7.24303 9.44142 6.9187
H 7.16155 2.40618 7.29732
H 8.43856 2.03722 6.0902
H 8.42721 1.33267 7.7239
C 12.542 11.1146 10.7917
C 11.3595 2.19537 10.8227
H 12.2082 10.062 10.7957
H -0.461576 1.42649 9.88508
H 10.9554 2.04855 -0.0979158
H 10.7297 2.08534 9.92828
H 11.7215 3.23144 10.835
C 2.70706 7.21927 4.12155
C 3.05509 8.67661 3.82479
H 2.03108 6.89581 3.30703
H 3.63366 6.61422 4.06874
H 2.2023 9.34541 4.07126
H 3.29219 8.79171 2.74541
H 3.95225 8.97574 4.40125
C 6.44089 6.13924 10.4564
C 7.56964 5.06917 10.4053
H 5.82672 6.01686 9.56806
H 6.83858 7.16812 10.4865
H 7.17603 4.04994 10.4874
H 8.14452 5.11439 9.46396
H 8.56229 5.1824 -0.565103
C 12.0826 2.8764 7.54018
C 10.782 3.67089 7.52506
H 12.8331 3.4119 6.93317
H 12.5072 2.90648 8.54487
H 9.9736 3.14092 8.06515
H 10.4588 3.84165 6.47797
H 10.9401 4.64175 8.02883
C 5.89525 1.51707 10.0474
C 4.79807 2.57539 9.81127
H 6.61288 1.60608 9.22893
H 5.45591 10.4249 10.0546
H 5.13136 3.59695 10.0436
H 4.4911 2.5649 8.74935
H 3.90317 2.38548 10.4273
C 6.09551 4.89143 7.19554
C 4.62695 5.2501 7.12498
H 6.19928 4.02311 6.54117
H 6.35498 4.47745 8.17619
H 4.35743 5.94639 7.92341
H 4.39496 5.68693 6.14194
H 4.00471 4.33944 7.24603
C -0.340015 5.66647 10.2603
C 0.77399 4.6255 10.0995
H 12.5679 5.54608 9.386
H 0.101599 6.66609 10.2657
H 0.408206 3.61181 10.3276
H 1.14274 4.63333 9.05199
H 1.63266 4.84884 10.7552
156
Atoms. Timestep: 8054
Ni 2.73695 8.82805 9.22296
Ni 6.23522 3.62665 3.25064
O 0.97992 4.7553 3.71157
O 4.15314 7.7621 9.35693
O 4.74297 2.66911 3.43865
O 1.31366 9.86661 9.42774
O 5.80913 4.8141 4.43337
O 2.22993 7.6225 10.4255
O -0.0160862 2.62662 4.85177
O 3.21757 9.88462 10.5557
N 3.51718 10.0359 7.90486
N 0.376103 2.51276 2.29835
N 2.0042 7.77433 7.78358
N 5.52054 4.77073 1.91933
C 3.34351 1.5978 5.91626
C 0.150565 1.35767 0.235305
H 2.72933 2.19618 5.2616
C 4.72102 1.43151 5.6422
C 1.5632 11.0845 0.0839731
C 5.47273 10.5097 6.53967
C 2.34827 1.70977 1.15365
H 3.41098 1.52046 1.17349
C 2.07339 7.01912 5.47418
C 5.79952 6.02989 -0.0717754
C 2.69772 7.59419 6.61325
C 6.32245 5.47053 1.09805
H 3.72777 7.89133 6.54638
H 0.707133 4.75443 1.00967
C 2.75165 10.8014 7.0502
C -0.375881 1.76458 1.46382
H 1.6833 10.8804 7.20128
H 5.27594 2.61307 0.66845
C 4.84711 9.86819 7.61727
C 1.73634 2.38682 2.23584
H 5.43704 9.20375 8.20899
H 2.33861 2.77298 3.03216
C 0.678748 7.45193 7.7987
C 4.17187 5.02372 1.90024
H 0.0207763 7.92948 8.50055
H 3.54899 4.66493 2.69919
C 0.143174 6.58208 6.8354
C 3.60534 5.84798 0.910483
H 2.56315 6.13253 0.982464
C 0.828578 6.3632 5.63901
C 4.39282 6.30585 -0.152293
C 5.40437 2.0548 4.43802
C 1.9842 10.4252 10.4677
C 0.232462 5.45875 4.58849
C 3.46767 7.08691 10.3012
Ni 9.58202 8.44241 9.0749
Ni -0.438246 3.71854 3.53478
O 7.73404 4.57909 3.37758
O 11.0955 7.51027 9.28528
O 11.7112 2.70686 3.63496
O 8.06026 9.39455 9.21661
O 12.5873 4.91971 4.70614
O 9.17784 7.32833 10.3658
O 6.66752 2.52154 4.51201
O 9.94651 9.6576 10.3232
N 10.2895 9.61117 7.6509
N 6.93013 2.40061 1.92855
N 8.92295 7.17969 7.74244
N 12.495 4.80216 2.09597
C 10.6454 10.192 5.30712
C 6.90295 1.61812 -0.360461
H 10.3793 10.05 4.2687
C 11.6359 11.1146 5.6639
C 8.16821 10.8031 -0.20988
C 11.8648 1.48407 7.02081
C 8.75796 10.8748 1.06899
H 9.69461 10.3634 1.26472
C 9.15786 6.11324 5.57938
C 12.6947 5.61902 -0.175271
H 9.77373 5.93842 4.71862
C 9.73365 6.66501 6.75835
C -0.325225 5.05988 1.00195
H 10.7856 6.88855 6.76862
H 7.38225 5.48469 1.27456
C 9.93502 9.49554 6.3159
C 6.26774 2.21359 0.762364
H 9.10364 8.9012 6.01189
H 12.1765 1.58658 1.68439
C 11.4188 10.3289 7.92064
C 8.16195 1.81124 2.09971
H 12.1534 9.85892 8.53282
H 8.69719 1.9511 3.02788
C 7.57431 6.91962 7.66876
C 11.2027 5.24879 2.12871
H 6.89029 7.51225 8.23298
H 10.5674 4.97201 2.94926
C 7.06376 5.99566 6.73096
C 10.6719 6.02415 1.08074
H 12.7875 6.10015 7.01609
H 9.68284 6.45516 1.19113
C 7.78017 5.818 5.55062
C 11.3853 6.18369 -0.119073
C 12.3555 2.07622 4.63311
C 8.67043 10.0974 10.2075
C 7.07889 5.26768 4.33582
C 10.4403 6.86375 10.2822
C 6.95319 10.3102 6.3427
C 7.79985 1.65027 6.8518
H 7.18507 10.0791 5.28146
H 7.2443 9.40877 6.89282
H 7.18607 2.44242 7.26404
H 8.45432 2.06916 6.06054
H 8.44073 1.3754 7.695
C 12.5575 11.0702 10.6933
C 11.373 2.22319 10.7324
H 12.2214 10.0197 10.7017
H -0.46666 1.44689 9.78676
H 10.9627 2.08173 -6.20066e-05
H 10.7322 2.1199 9.84627
H 11.7296 3.26009 10.7436
C 2.70267 7.20661 4.10746
C 3.05425 8.66519 3.82408
H 2.03293 6.8876 3.28812
H 3.63347 6.60795 4.06032
H 2.20427 9.33361 4.08141
H 3.29474 8.79559 2.74861
H 3.94919 8.95922 4.4076
C 6.44853 6.15409 10.3651
C 7.57787 5.07582 10.3164
H 5.83387 6.03578 9.48255
H 6.84832 7.18048 10.4004
H 7.18523 4.05694 10.4002
H 8.16291 5.10716 9.38002
H 8.56814 5.18058 -0.465385
C 12.0894 2.90613 7.50876
C 10.7877 3.69633 7.4874
H 12.8385 3.45025 6.9108
H 12.5203 2.95914 8.50733
H 9.97823 3.16691 8.02231
H 10.4694 3.86137 6.43924
H 10.9378 4.66539 7.99358
C 5.89514 1.54114 9.95784
C 4.79706 2.60217 9.72169
H 6.60489 1.6263 9.13989
H 5.45551 10.384 9.98499
H 5.12593 3.62337 9.96182
H 4.48416 2.59961 8.66202
H 3.90186 2.41628 10.3386
C 6.09568 4.89783 7.17115
C 4.62589 5.25201 7.09458
H 6.194 4.03088 6.51991
H 6.35301 4.466 8.14139
H 4.34752 5.94363 7.88822
H 4.39571 5.69109 6.11424
H 4.00001 4.34386 7.20968
C -0.343612 5.67627 10.1595
C 0.773789 4.63633 10.0022
H 12.59 5.5573 9.28293
H 0.0992545 6.6718 10.1837
H 0.412488 3.62391 10.2398
H 1.15046 4.63452 8.95727
H 1.63051 4.85831 10.6611
156
Atoms. Timestep: 18057
Ni 2.74333 8.85032 9.20042
Ni 6.23972 3.64887 3.23936
O 0.982384 4.75441 3.73053
O 4.14489 7.76465 9.32316
O 4.75123 2.68746 3.43151
O 1.33391 9.90665 9.42023
O 5.81211 4.8311 4.42646
O 2.21919 7.64212 10.3916
O -0.000836309 2.63537 4.89873
O 3.24261 9.88822 10.542
N 3.53758 10.0595 7.8948
N 0.409353 2.47926 2.34494
N 1.99348 7.81857 7.7517
N 5.51533 4.7999 1.91275
C 3.36853 1.64188 5.92665
C 0.184295 11.1416 0.299665
H 2.76157 2.27629 5.29789
C 4.7373 1.44475 5.63045
C 1.59679 11.0873 0.113754
C 5.48482 10.4995 6.50698
C 2.38694 1.74299 1.16416
H 3.45254 1.58421 1.16693
C 2.03924 7.06816 5.44034
C 5.78659 6.08272 -0.0612032
C 2.67474 7.64581 6.57208
C 6.30592 5.54571 1.11949
H 3.70293 7.9444 6.49311
H 0.716834 4.713 1.00925
C 2.7781 10.8481 7.05788
C -0.325264 1.67797 1.54343
H 1.71457 10.9493 7.22465
H 5.29842 2.66049 0.629787
C 4.86188 9.86815 7.59174
C 1.77159 2.40433 2.25537
H 5.44735 9.18942 8.17265
H 2.37389 2.80195 3.04544
C 0.667671 7.49601 7.77981
C 4.16164 5.02696 1.88552
H 0.0192544 7.9577 8.50197
H 3.54529 4.68427 2.69639
C 0.122176 6.62788 6.81937
C 3.58415 5.83304 0.885305
H 2.53947 6.10168 0.949751
C 0.800848 6.40487 5.62037
C 4.37448 6.31458 -0.164496
C 5.41706 2.07215 4.42719
C 2.01309 10.4432 10.4656
C 0.221005 5.46574 4.58984
C 3.45219 7.09381 10.2663
Ni 9.59533 8.42017 9.0788
Ni -0.425592 3.70155 3.55942
O 7.73692 4.60308 3.36636
O 11.1091 7.48754 9.28997
O 11.7414 2.679 3.66748
O 8.07244 9.37368 9.21561
O 12.5894 4.91666 4.70771
O 9.18803 7.30207 10.3648
O 6.68057 2.54051 4.49772
O 9.95779 9.6334 10.3287
N 10.3068 9.59064 7.66641
N 6.93515 2.42485 1.91127
N 8.93645 7.15943 7.74297
N 12.5141 4.75834 2.10052
C 10.7083 10.1564 5.33197
C 6.92121 1.63038 -0.375294
H 10.468 10.0035 4.28846
C 11.6666 11.1056 5.70415
C 8.17385 10.797 -0.204021
C 11.8609 1.48312 7.06419
C 8.74478 10.8587 1.08152
H 9.66065 10.3206 1.29421
C 9.165 6.10829 5.57406
C 12.7119 5.58956 -0.167831
H 9.77795 5.94621 4.7064
C 9.7443 6.64471 6.75729
C -0.316204 5.0167 1.00471
H 10.7939 6.86892 6.76592
H 7.35535 5.63625 1.33484
C 9.98026 9.46431 6.32814
C 6.28469 2.25031 0.735788
H 9.14189 8.88662 6.01404
H 12.2649 1.41657 1.81002
C 11.4195 10.3248 7.95433
C 8.15302 1.81058 2.09918
H 12.1555 9.86372 8.57165
H 8.67853 1.9387 3.03444
C 7.58622 6.90788 7.66749
C 11.2166 5.19202 2.12906
H 6.90251 7.51195 8.21943
H 10.579 4.90661 2.94662
C 7.07198 5.99149 6.7281
C 10.6872 5.98003 1.09152
H 12.7907 6.12806 7.01637
H 9.70394 6.41721 1.20925
C 7.78668 5.81811 5.54647
C 11.3991 6.15007 -0.105157
C 12.3843 2.07351 4.68068
C 8.6815 10.0777 10.2055
C 7.0823 5.28453 4.32972
C 10.4522 6.83734 10.2817
C 6.95716 10.2736 6.28857
C 7.82309 1.59656 6.78858
H 7.16926 10.0478 5.22277
H 7.24427 9.36588 6.83188
H 7.2259 2.42262 7.16121
H 8.50759 1.96712 5.99962
H 8.43075 11.1626 7.65291
C 12.5815 11.0247 10.7513
C 11.4015 2.17072 10.8361
H 12.2433 9.97257 10.7458
H -0.475493 1.42523 9.83707
H 11.0219 2.0119 0.142914
H 10.7465 2.08516 9.95975
H 11.7685 3.20273 10.8566
C 2.6384 7.2746 4.06314
C 2.87289 8.74994 3.74529
H 1.98268 6.8878 3.2616
H 3.60921 6.74044 4.01054
H 1.97849 9.35973 4.0002
H 3.08447 8.86889 2.66288
H 3.75509 9.11824 4.30292
C 6.44094 6.18823 10.3608
C 7.55378 5.09528 10.3371
H 5.83137 6.06921 9.47292
H 6.85583 7.21038 10.3933
H 7.14261 4.08651 10.4214
H 8.14807 5.115 9.40887
H 8.5269 5.19407 -0.41047
C 12.0298 2.90573 7.55709
C 10.6939 3.63967 7.56437
H 12.7463 3.48169 6.9465
H 12.4658 2.94675 8.55456
H 9.91938 3.07492 8.11695
H 10.3457 3.79576 6.52474
H 10.8171 4.61476 8.0697
C 5.92761 1.55303 9.91421
C 4.82724 2.6101 9.66657
H 6.64975 1.63614 9.10185
H 5.48572 10.3976 9.93978
H 5.12928 3.62937 9.94501
H 4.5603 2.63079 8.59632
H 3.91368 2.39704 10.2432
C 6.08953 4.90705 7.1602
C 4.62185 5.27433 7.04756
H 6.20001 4.03336 6.51964
H 6.32975 4.48886 8.14006
H 4.29254 5.86885 7.90313
H 4.44623 5.82048 6.11029
H 3.99704 4.3568 7.02579
C -0.347693 5.64078 10.1376
C 0.763711 4.59655 9.97012
H 12.5797 5.52129 9.27186
H 0.100443 6.63613 10.1441
H 0.4079 3.58804 10.2346
H 1.10403 4.58014 8.91474
H 1.63983 4.83622 10.5955
156
Atoms. Timestep: 20000
Ni 2.74361 8.85183 9.19984
Ni 6.23976 3.6514 3.23862
O 0.982544 4.75292 3.73275
O 4.14202 7.76535 9.32158
O 4.75292 2.69042 3.42988
O 1.337 9.90927 9.4194
O 5.81261 4.83255 4.42782
O 2.21797 7.64496 10.3931
O 0.000536398 2.63589 4.90503
O 3.24441 9.88869 10.5432
N 3.53894 10.0586 7.89271
N 0.412987 2.47786 2.34855
N 1.99272 7.82197 7.7501
N 5.51448 4.80206 1.91156
C 3.3721 1.64519 5.92579
C 0.189133 11.1344 0.304801
H 2.76728 2.28401 5.2991
C 4.73894 1.44492 5.62778
C 1.60047 11.0883 0.115016
C 5.48464 10.495 6.50175
C 2.39011 1.74896 1.1643
H 3.45563 1.59526 1.16495
C 2.03816 7.06751 5.43714
C 5.78397 6.09619 -0.0561983
C 2.67376 7.64574 6.56943
C 6.30132 5.5614 1.12708
H 3.70089 7.94444 6.4893
H 0.716767 4.70782 1.00549
C 2.78119 10.8501 7.0568
C -0.318215 1.66894 1.55135
H 1.71881 10.9536 7.22472
H 5.30192 2.66551 0.623333
C 4.86178 9.86426 7.58781
C 1.77429 2.40791 2.25758
H 5.44621 9.18469 8.16898
H 2.3754 2.80623 3.04891
C 0.667026 7.50344 7.77843
C 4.16061 5.02208 1.8829
H 0.0206009 7.96542 8.50302
H 3.54618 4.67989 2.69622
C 0.120211 6.63561 6.81808
C 3.58125 5.82638 0.881765
H 2.53623 6.09046 0.945355
C 0.798912 6.4082 5.61853
C 4.37152 6.3162 -0.165045
C 5.41835 2.07462 4.4258
C 2.01622 10.4449 10.466
C 0.220818 5.46508 4.59109
C 3.44955 7.09566 10.2661
Ni 9.59656 8.41959 9.08005
Ni -0.423459 3.70012 3.56226
O 7.73558 4.60439 3.3648
O 11.1096 7.48846 9.29039
O 11.7453 2.67813 3.66939
O 8.07453 9.37155 9.21618
O 12.5903 4.91571 4.71057
O 9.19021 7.3014 10.3676
O 6.68063 2.5434 4.49809
O 9.95806 9.63251 10.332
N 10.3068 9.58976 7.66699
N 6.93503 2.42885 1.90944
N 8.93864 7.15974 7.74297
N 12.5168 4.75431 2.10071
C 10.7146 10.1539 5.3302
C 6.9238 1.63236 -0.379194
H 10.4777 10.0009 4.28416
C 11.6695 11.1044 5.70627
C 8.17448 10.7978 -0.204237
C 11.8575 1.48369 7.06862
C 8.74235 10.8594 1.08416
H 9.65557 10.3192 1.29998
C 9.16465 6.10808 5.57157
C 12.7125 5.58737 -0.170104
H 9.77541 5.94765 4.70096
C 9.74501 6.64457 6.75543
C -0.314945 5.01311 1.00283
H 10.7936 6.86888 6.7626
H 7.34767 5.66357 1.34925
C 9.98425 9.46217 6.32588
C 6.28682 2.25448 0.731439
H 9.14553 8.88671 6.00966
H 12.2756 1.40041 1.82273
C 11.4168 10.3247 7.95814
C 8.15072 1.81324 2.10074
H 12.1533 9.86202 8.57384
H 8.67453 1.94191 3.03822
C 7.58953 6.90793 7.66956
C 11.2201 5.18741 2.13081
H 6.90684 7.51444 8.21993
H 10.5833 4.89984 2.94918
C 7.07479 5.99168 6.73037
C 10.691 5.97765 1.09434
H 12.7892 6.1371 7.0167
H 9.70928 6.41602 1.21463
C 7.7873 5.81827 5.54633
C 11.401 6.14844 -0.104694
C 12.3871 2.07349 4.68439
C 8.68252 10.0763 10.2067
C 7.0821 5.2856 4.32953
C 10.4537 6.8373 10.2828
C 6.95531 10.2659 6.27999
C 7.82383 1.58673 6.77912
H 7.16437 10.041 5.2116
H 7.24219 9.35761 6.82272
H 7.22935 2.4169 7.14637
H 8.5113 1.95145 5.98915
H 8.42706 11.1542 7.64781
C 12.5847 11.0198 10.7561
C 11.4051 2.16437 10.8474
H 12.2462 9.96803 10.7495
H -0.475165 1.42302 9.83925
H 11.0282 2.00135 0.15663
H 10.7486 2.08237 9.97082
H 11.7713 3.19608 10.8717
C 2.63566 7.27407 4.05708
C 2.86093 8.74977 3.73587
H 1.98307 6.88158 3.25495
H 3.60912 6.74584 4.00552
H 1.96252 9.35393 3.98795
H 3.07401 8.86764 2.65186
H 3.73852 9.12539 4.29573
C 6.4398 6.19819 10.3655
C 7.54942 5.10306 10.347
H 5.83254 6.07883 9.47508
H 6.8572 7.21894 10.3979
H 7.13564 4.09603 10.4333
H 8.1458 5.11884 9.41869
H 8.51964 5.20205 -0.397152
C 12.0189 2.90669 7.56247
C 10.6801 3.63378 7.5717
H 12.731 3.48655 6.95023
H 12.4555 2.94889 8.56118
H 9.90983 3.06523 8.12637
H 10.3298 3.78838 6.53089
H 10.7991 4.60916 8.07795
C 5.93153 1.55241 9.90805
C 4.83219 2.60889 9.65737
H 6.65357 1.63366 9.0946
H 5.48912 10.3976 9.93627
H 5.13118 3.62763 9.94043
H 4.57025 2.63181 8.58424
H 3.91702 2.39356 10.2305
C 6.09223 4.90895 7.16424
C 4.62559 5.2765 7.04753
H 6.20395 4.03435 6.52485
H 6.33105 4.49263 8.14651
H 4.29036 5.8604 7.90951
H 4.45518 5.83273 6.11382
H 4.00191 4.35921 7.01171
C -0.349449 5.63833 10.132
C 0.75983 4.59325 9.96225
H 12.5767 5.52026 9.26591
H 0.100484 6.63244 10.1388
H 0.405473 3.58612 10.2331
H 1.09453 4.57281 8.90344
H 1.6386 4.83514 10.5833
156
Atoms. Timestep: 23668
Ni 2.74365 8.85181 9.19981
Ni 6.23981 3.65144 3.23862
O 0.982555 4.75283 3.73278
O 4.14206 7.76533 9.32155
O 4.75296 2.69047 3.42989
O 1.33704 9.90925 9.41937
O 5.81268 4.83259 4.42782
O 2.21802 7.64494 10.393
O 0.000584734 2.6358 4.90505
O 3.24446 9.88866 10.5432
N 3.53898 10.0586 7.89269
N 0.413047 2.47779 2.34856
N 1.99276 7.82196 7.75005
N 5.51453 4.80211 1.91159
C 3.37215 1.64527 5.92583
C 0.189193 11.1343 0.304833
H 2.76734 2.28411 5.29915
C 4.73899 1.44496 5.62779
C 1.60053 11.0883 0.114996
C 5.48468 10.495 6.50173
C 2.39018 1.74903 1.16423
H 3.45571 1.5954 1.16483
C 2.03814 7.06748 5.4371
C 5.78402 6.09614 -0.0562401
C 2.67375 7.64578 6.56934
C 6.30139 5.56136 1.12704
H 3.70083 7.94462 6.48913
H 0.716818 4.70784 1.00556
C 2.78124 10.8502 7.05682
C -0.318132 1.66881 1.5514
H 1.71886 10.9537 7.22474
H 5.30199 2.66562 0.623292
C 4.86182 9.86426 7.5878
C 1.77436 2.40795 2.25752
H 5.44625 9.18468 8.16896
H 2.37548 2.80637 3.0488
C 0.66708 7.50336 7.77844
C 4.16068 5.02225 1.88301
H 0.0206601 7.96533 8.50304
H 3.54629 4.68019 2.69642
C 0.120262 6.63551 6.81811
C 3.58132 5.82647 0.881815
H 2.53629 6.09056 0.945396
C 0.79892 6.40814 5.61853
C 4.37157 6.3162 -0.165052
C 5.41839 2.07467 4.42581
C 2.01627 10.4448 10.466
C 0.220827 5.465 4.59112
C 3.4496 7.09564 10.2661
Ni 9.59659 8.41956 9.08009
Ni -0.423425 3.70003 3.56228
O 7.73565 4.60441 3.3648
O 11.1097 7.48844 9.29045
O 11.7454 2.67803 3.6694
O 8.07456 9.37153 9.21621
O 12.5903 4.91561 4.71061
O 9.19024 7.30137 10.3677
O 6.68068 2.54343 4.49809
O 9.95809 9.63249 10.332
N 10.3068 9.58972 7.66704
N 6.93506 2.42888 1.90943
N 8.93869 7.15971 7.74301
N 12.5168 4.75423 2.10074
C 10.7146 10.1538 5.33024
C 6.92384 1.63238 -0.379197
H 10.4777 10.0008 4.28421
C 11.6695 11.1043 5.7063
C 8.1745 10.7978 -0.204223
C 11.8576 1.48362 7.06865
C 8.74236 10.8594 1.08418
H 9.65556 10.3192 1.30001
C 9.16473 6.10804 5.57162
C 12.7125 5.58734 -0.170049
H 9.77551 5.94759 4.70102
C 9.74508 6.64452 6.75549
C -0.314911 5.01308 1.00288
H 10.7937 6.86882 6.76268
H 7.34775 5.66348 1.34916
C 9.98428 9.46212 6.32593
C 6.28687 2.25454 0.731421
H 9.14557 8.88666 6.00971
H 12.2757 1.40024 1.8228
C 11.4169 10.3247 7.95818
C 8.15073 1.81324 2.10075
H 12.1534 9.86195 8.57388
H 8.67454 1.9419 3.03824
C 7.58958 6.90793 7.66956
C 11.2201 5.18729 2.13083
H 6.90688 7.51445 8.21992
H 10.5833 4.89971 2.9492
C 7.07485 5.99168 6.73037
C 10.691 5.97754 1.09437
H 12.7893 6.13698 7.01676
H 9.70927 6.41589 1.21466
C 7.78737 5.81825 5.54635
C 11.401 6.14839 -0.104648
C 12.3872 2.07339 4.68441
C 8.68255 10.0763 10.2068
C 7.08217 5.28562 4.32953
C 10.4537 6.83728 10.2829
C 6.95535 10.2659 6.27997
C 7.82387 1.58672 6.77911
H 7.16441 10.041 5.21158
H 7.24222 9.35761 6.8227
H 7.22941 2.41691 7.14633
H 8.51137 1.95142 5.98915
H 8.42709 11.1542 7.64781
C 12.5848 11.0197 10.7562
C 11.4052 2.16432 10.8475
H 12.2462 9.96796 10.7495
H -0.475141 1.42295 9.8393
H 11.0283 2.00129 0.156718
H 10.7486 2.08234 9.9709
H 11.7714 3.19602 10.8718
C 2.63542 7.27436 4.05698
C 2.85916 8.75024 3.73556
H 1.98329 6.88107 3.2549
H 3.60942 6.7471 4.00548
H 1.96013 9.35352 3.98757
H 3.07213 8.86817 2.65154
H 3.73635 9.12683 4.29537
C 6.43984 6.19816 10.3655
C 7.54946 5.10303 10.3469
H 5.83257 6.07883 9.47504
H 6.85724 7.2189 10.3978
H 7.13568 4.09599 10.4332
H 8.14585 5.11882 9.41862
H 8.51969 5.20198 -0.397229
C 12.0189 2.90662 7.56249
C 10.6802 3.63371 7.57173
H 12.7311 3.48647 6.95025
H 12.4556 2.94881 8.56121
H 9.90991 3.06517 8.1264
H 10.3299 3.78832 6.53092
H 10.7992 4.6091 8.07798
C 5.93157 1.55243 9.90804
C 4.83222 2.6089 9.65735
H 6.65362 1.63369 9.0946
H 5.48917 10.3976 9.93624
H 5.13119 3.62764 9.94044
H 4.57032 2.63184 8.58421
H 3.91705 2.39353 10.2304
C 6.09224 4.90898 7.16421
C 4.62561 5.27658 7.04744
H 6.20396 4.03437 6.52485
H 6.33101 4.49265 8.14649
H 4.29036 5.86042 7.90946
H 4.45528 5.8329 6.11377
H 4.00192 4.35931 7.01151
C -0.349408 5.63831 10.1321
C 0.759877 4.59323 9.96232
H 12.5767 5.52024 9.26597
H 0.100519 6.63242 10.1389
H 0.405512 3.5861 10.2331
H 1.0946 4.57281 8.90352
H 1.63863 4.83512 10.5834
156
Atoms. Timestep: 23672
Ni 2.7402 8.85399 9.19324
Ni 6.24007 3.64913 3.24167
O 0.976569 4.75118 3.73493
O 4.13999 7.76702 9.31458
O 4.75185 2.68791 3.43232
O 1.33238 9.91185 9.4122
O 5.81308 4.83126 4.42952
O 2.21468 7.64616 10.3853
O -0.00666277 2.63275 4.90617
O 3.24118 9.89166 10.5352
N 3.53622 10.0611 7.88816
N 0.40652 2.475 2.35281
N 1.98849 7.82376 7.74598
N 5.51398 4.80053 1.91639
C 3.36939 1.64144 5.92441
C 0.182379 11.1382 0.312564
H 2.76395 2.28079 5.29876
C 4.73808 1.44099 5.62693
C 1.59565 11.0922 0.122908
C 5.48396 10.4987 6.49966
C 2.38547 1.74521 1.17067
H 3.45244 1.59149 1.17121
C 2.03403 7.06799 5.43625
C 5.78361 6.0962 -0.0479323
C 2.66967 7.64655 6.56695
C 6.3009 5.56082 1.13369
H 3.69817 7.94597 6.48698
H 0.710442 4.70659 1.01228
C 2.77824 10.854 7.05364
C -0.324771 1.66491 1.55736
H 1.71447 10.9576 7.22142
H 5.30121 2.66248 0.630643
C 4.86053 9.86726 7.58384
C 1.76934 2.4048 2.26237
H 5.44568 9.18706 8.16422
H 2.37122 2.80361 3.0524
C 0.661345 7.50462 7.77455
C 4.1586 5.02105 1.88844
H 0.0142665 7.96696 8.49778
H 3.54352 4.67864 2.70061
C 0.114146 6.636 6.81552
C 3.57887 5.82601 0.888718
H 2.53242 6.09033 0.952158
C 0.792929 6.40822 5.61776
C 4.3692 6.31636 -0.156619
C 5.41786 2.07133 4.4268
C 2.0122 10.4482 10.4572
C 0.21446 5.46416 4.59168
C 3.44714 7.09657 10.2576
Ni 9.60096 8.42147 9.07379
Ni -0.430757 3.69792 3.56481
O 7.73722 4.60254 3.36739
O 11.1154 7.48992 9.2835