ITEM: TIMESTEP
0
ITEM: NUMBER OF ATOMS
156
ITEM: BOX BOUNDS xy xz yz pp pp pp
-2.2902172466846452e-01 1.5712724693616000e+01 0.0000000000000000e+00
0.0000000000000000e+00 1.0313681530084200e+01 -2.2902172466846452e-01
0.0000000000000000e+00 1.0338730793891701e+01 0.0000000000000000e+00
ITEM: ATOMS id type x y z
1 1 2.21547 9.06359 9.04159
2 1 6.00962 3.5615 3.57906
3 2 15.5213 4.79954 3.90938
4 2 3.71797 8.19036 9.23476
5 2 4.67308 2.42668 3.58845
6 2 0.716859 9.95534 9.06638
7 2 5.32334 4.73952 4.78448
8 2 2.1396 8.08739 0.113054
9 2 14.4441 2.57433 5.00233
10 2 2.58542 0.116476 10.1494
11 3 2.89402 10.1145 7.571
12 3 14.7877 2.67884 2.39377
13 3 1.51856 7.63356 7.91033
14 3 5.24727 4.58631 2.17553
15 4 3.16554 0.596296 5.30175
16 4 15.0395 1.55709 0.26108
17 5 2.77174 0.743197 4.30469
18 5 6.6377 1.14767 9.60422
19 4 4.45018 1.10054 5.62307
20 4 0.704424 1.35244 0.491554
21 4 4.87638 1.03082 6.9248
22 4 1.24231 1.82728 1.67101
23 5 13.6692 1.31135 7.35141
24 5 2.2912 1.6744 1.89453
25 4 1.39487 6.53817 5.75079
26 4 5.01313 5.7009 0.0630807
27 5 1.8762 6.27591 4.81706
28 5 12.6116 5.40785 9.42153
29 4 2.11712 7.27888 6.72838
30 4 5.82323 4.98566 0.982456
31 5 3.13064 7.59384 6.51981
32 5 14.3855 4.53792 0.814721
33 4 2.35748 10.2924 6.30841
34 4 14.1989 2.0544 1.30117
35 5 5.4264 2.13732 1.01275
36 4 4.09275 0.406474 7.878
37 4 0.420945 2.45196 2.61423
38 5 4.48748 0.339537 8.87333
39 5 0.861976 2.72302 3.56191
40 4 0.317811 7.00113 8.25368
41 4 3.93212 4.90642 2.42021
42 5 3.42426 4.49081 3.27832
43 4 15.1987 6.50777 7.21472
44 4 3.29734 5.90235 1.70989
45 5 5.97648 5.90279 7.26395
46 5 2.39749 6.35031 2.10444
47 4 0.0398002 6.195 5.97348
48 4 3.86072 6.35312 0.536956
49 4 5.26097 1.85112 4.62482
50 4 1.29677 0.49571 9.90532
51 4 14.9505 5.42495 4.93605
52 4 3.15427 7.62422 10.2876
53 1 9.78182 8.80429 8.68883
54 1 14.0231 3.83795 3.77463
55 2 7.28129 4.71279 3.76616
56 2 10.9991 7.54797 8.76966
57 2 12.5657 2.9144 3.87599
58 2 8.58248 10.0266 8.80174
59 2 13.6996 4.9359 5.13366
60 2 9.18552 7.66285 9.98349
61 2 6.4277 2.49266 4.92541
62 2 10.3924 9.86138 10.0265
63 3 10.7684 9.89136 7.3669
64 3 7.02885 2.41851 2.37879
65 3 8.76769 7.81364 7.35902
66 3 13.2124 5.13207 2.4685
67 4 11.0966 0.698907 5.25907
68 4 7.2696 1.30805 0.254993
69 5 10.8158 0.724435 4.22444
70 5 14.3685 1.22631 9.6707
71 4 12.3333 1.25015 5.68704
72 4 8.59102 0.904669 0.559165
73 4 12.7183 0.949876 6.97874
74 4 9.04159 1.12646 1.84674
75 5 5.82564 1.46468 7.21633
76 5 10.006 0.73985 2.13878
77 4 8.26177 7.1267 5.10407
78 4 12.5767 5.51449 0.127309
79 5 8.52581 7.14506 4.05372
80 5 5.12558 5.8747 9.39272
81 4 9.15372 7.67963 6.06057
82 4 13.464 4.98526 1.12912
83 5 10.132 7.98395 5.76036
84 4 10.2309 0.0872424 6.21849
85 4 6.46583 1.93431 1.23144
86 5 9.18998 10.2369 5.98551
87 4 12.1241 10.1244 7.56325
88 4 8.36642 2.07523 2.66669
89 4 7.46192 7.43551 7.67078
90 4 12.061 5.87851 2.80913
91 4 6.84948 6.42268 6.89253
92 4 11.0772 6.23172 1.82669
93 5 14.2043 6.14959 7.45179
94 5 10.1543 6.70755 2.13797
95 4 7.14489 6.38165 5.53973
96 4 11.3702 6.15967 0.477303
97 4 13.154 2.15255 4.7834
98 4 9.20907 0.230455 9.8251
99 4 6.52729 5.3705 4.62066
100 4 10.3493 6.96482 9.76059
101 6 0.865978 10.1696 6.07349
102 6 0.497119 9.63015 4.68664
103 5 0.399284 0.852491 6.21755
104 5 0.40855 9.49676 6.80145
105 5 1.22278 8.86747 4.33734
106 5 0.472364 0.137668 3.94915
107 5 15.1976 9.17273 4.71592
108 6 12.7657 1.58065 1.30918
109 6 11.8529 2.53729 0.56122
110 5 12.7234 0.610828 0.774961
111 5 12.3824 1.3078 2.30031
112 5 12.1361 2.95546 10.0096
113 5 10.9872 2.0263 0.154643
114 5 11.4564 3.3064 1.24931
115 6 0.154211 6.30884 9.6208
116 6 15.5538 7.125 0.50683
117 5 1.11251 5.82374 9.88671
118 5 15.2017 5.43549 9.4867
119 5 0.288377 6.7392 1.44332
120 5 14.485 7.08793 0.668875
121 5 15.6967 8.21512 0.459798
122 6 7.33005 4.99837 0.781106
123 6 7.54739 4.42678 9.76871
124 5 7.87223 4.46204 1.54743
125 5 7.70603 6.03281 0.893046
126 5 8.41472 3.74678 9.9084
127 5 7.89168 5.24208 9.11165
128 5 6.73688 3.86566 9.25615
129 6 13.0255 8.95803 7.65944
130 6 13.3709 8.70767 9.09248
131 5 13.9639 9.11914 7.0927
132 5 12.5782 8.07564 7.15416
133 5 12.6032 9.00425 9.82431
134 5 14.2685 9.26341 9.352
135 5 13.4976 7.62546 9.15494
136 6 9.26872 2.97281 3.52134
137 6 9.08939 2.90255 5.04914
138 5 10.3067 2.67636 3.3281
139 5 9.32602 4.00633 3.14183
140 5 8.63512 1.94817 5.34819
141 5 10.0577 2.99244 5.56714
142 5 8.50382 3.73156 5.47529
143 6 6.50776 8.45837 8.25008
144 6 6.43133 8.52733 9.79015
145 5 6.67324 9.44682 7.78931
146 5 5.50392 8.23426 7.85517
147 5 5.62693 9.1995 10.1313
148 5 6.29463 7.55137 10.2161
149 5 7.30234 8.89313 10.3169
150 6 11.896 6.53005 4.15291
151 6 11.1331 5.61252 5.11743
152 5 11.3018 7.45698 4.0191
153 5 12.8375 6.94924 4.55268
154 5 11.4883 4.5817 5.13098
155 5 10.096 5.506 4.78356
156 5 11.204 5.98811 6.15844
