156
Atoms. Timestep: 0
Ni 2.89857 9.41116 8.59265
Ni 6.17525 3.10579 3.48481
O 1.44827 4.35425 3.93374
O 4.4416 8.15245 9.05464
O 4.63665 1.84729 3.87523
O 1.36499 10.6744 9.00295
O 5.80609 4.46033 4.96242
O 2.54244 8.0327 10.0675
O 0.25117 1.69264 4.94273
O 3.23722 10.8047 10.0626
N 3.69677 10.6606 7.2416
N 0.71256 1.8642 2.11704
N 2.17217 8.14409 7.25198
N 5.44023 4.39481 2.13747
C 3.48546 12.1483 5.36301
C 0.47488 0.38955 0.2292
H 2.86453 12.5181 4.55267
H 5.86971 0.03371 9.69377
C 4.76073 0.1474 5.61481
C 1.74333 12.3699 0.47412
C 5.50345 12.1502 6.68209
C 2.49852 0.35508 1.54004
H 0.24768 12.5084 6.91993
H 3.49155 12.5067 1.77336
C 2.48363 6.6337 5.40822
C 5.72803 5.90364 0.28669
H 3.13294 6.27291 4.61605
H -0.10828 6.26667 9.7662
C 2.92756 7.68099 6.23068
C 6.1883 4.86756 1.11596
H 3.89994 8.14655 6.0889
H 0.91589 4.41889 0.97634
C 2.98256 11.1359 6.19748
C -0.01036 1.40553 1.07106
H 5.26093 1.85011 0.92351
C 4.93641 11.1381 7.47507
C 1.94823 1.3719 2.3406
H 5.48559 10.7097 8.30944
H 2.50886 1.79214 3.17267
C 0.94573 7.62654 7.47302
C 4.21083 4.90458 2.35686
H 3.63605 4.47744 3.17528
C 0.43859 6.57577 6.69176
C 3.68763 5.945 1.56944
H 5.70774 6.17693 6.91975
H 2.69824 6.32683 1.80071
C 1.22745 6.06471 5.65205
C 4.46338 6.45777 0.52027
C 5.3126 1.24381 4.79419
C 2.0502 11.2675 9.92158
C 0.73548 4.94016 4.83586
C 3.73174 7.56629 9.95688
Ni 9.15137 9.41116 8.59265
Ni 12.4281 3.10579 3.48481
O 7.70109 4.35425 3.93374
O 10.6944 8.15245 9.05464
O 10.8895 1.84729 3.87523
O 7.61779 10.6744 9.00295
O 12.0589 4.46033 4.96242
O 8.79524 8.0327 10.0675
O 6.50397 1.69264 4.94273
O 9.49002 10.8047 10.0626
N 9.94957 10.6606 7.2416
N 6.96536 1.8642 2.11704
N 8.42499 8.14409 7.25198
N 11.693 4.39481 2.13747
C 9.73826 12.1483 5.36301
C 6.72768 0.38955 0.2292
H 9.11733 12.5181 4.55267
H 12.1225 0.03371 9.69377
C 11.0135 0.1474 5.61481
C 7.99613 12.3699 0.47412
C 11.7562 12.1502 6.68209
C 8.75132 0.35508 1.54004
H 6.50047 12.5084 6.91993
H 9.74435 12.5067 1.77336
C 8.73644 6.6337 5.40822
C 11.9808 5.90364 0.28669
H 9.38574 6.27291 4.61605
H 6.14452 6.26667 9.7662
C 9.18036 7.68099 6.23068
C 12.4411 4.86756 1.11596
H 10.1527 8.14655 6.0889
C 9.23536 11.1359 6.19748
C 6.24244 1.40553 1.07106
H 8.24672 10.709 6.04703
C 11.1892 11.1381 7.47507
C 8.20102 1.3719 2.3406
C 7.19853 7.62654 7.47302
C 10.4636 4.90458 2.35686
C 6.69139 6.57577 6.69176
C 9.94043 5.945 1.56944
H 11.9605 6.17693 6.91975
H 8.95104 6.32683 1.80071
C 7.48025 6.06471 5.65205
C 10.7162 6.45777 0.52027
C 11.5654 1.24381 4.79419
C 8.303 11.2675 9.92158
C 6.98827 4.94016 4.83586
C 9.98454 7.56629 9.95688
C 1.56006 10.5525 5.90066
C 1.07237 9.45279 6.84723
H 1.55841 10.1204 4.87691
H 0.81773 11.3776 5.95587
H 1.75 8.57357 6.80588
H 0.05864 9.12204 6.5367
H 1.00696 9.83471 7.88827
C 11.0814 2.01276 0.77975
C 10.6125 3.11466 1.73331
H 10.8573 2.45063 10.0327
H 10.3263 1.19917 0.83156
H 11.3037 3.98337 1.69576
H 9.60357 3.46301 1.42634
H 10.5427 2.72793 2.7723
C 0.05623 8.20355 8.62658
C 0.66759 9.34714 9.44006
H -0.17355 7.38573 9.34291
H 11.6162 8.58936 8.18883
H 1.59887 9.01259 9.94474
H -0.05224 9.66894 10.2222
H 0.8807 10.2201 8.787
C 7.60231 4.25389 0.84093
C 8.04276 3.12901 1.78112
H 8.36294 5.05967 0.92426
H 7.3881 3.83669 10.0854
H 8.09482 3.49417 2.82891
H 9.05471 2.77813 1.48731
H 7.3452 2.26729 1.71222
C 12.0326 10.5556 8.66252
C 11.3606 9.45619 9.48892
H 12.2784 11.3813 9.36435
H 0.46619 10.1236 8.25498
H 10.4323 9.83803 9.96487
H 12.2783 9.12642 0.01986
H 11.1279 8.57635 8.85198
C 9.05941 1.94061 3.52368
C 8.40582 3.04509 4.3581
H 9.30057 1.10994 4.22124
H 10.0007 2.36303 3.11094
H 7.4766 2.67243 4.83934
H 9.10529 3.36437 5.15951
H 8.17891 3.92953 3.72551
C 6.30904 8.20357 8.62658
C 6.92037 9.3472 9.44001
H 5.36335 8.58934 8.18883
H 6.07929 7.38574 9.34294
H 7.13344 10.2201 8.78689
H 6.20054 9.66902 10.2221
H 7.85167 9.0127 9.94469
C 9.5826 4.32945 3.51996
C 10.2076 3.19855 4.3408
H 8.63875 3.9313 3.08939
H 9.34822 5.15136 4.23012
H 10.426 2.32196 3.69445
H 9.49379 2.87704 5.1286
H 11.1378 3.5459 4.83881
156
Atoms. Timestep: 711
Ni 2.19016 9.03593 9.01127
Ni 6.03563 3.56082 3.60569
O -0.227273 4.80089 3.87784
O 3.70535 8.14599 9.15519
O 4.67618 2.44447 3.57976
O 0.691682 9.92482 9.08721
O 5.3626 4.70983 4.84393
O 2.13264 8.01874 0.0360797
O -1.26178 2.55682 4.97641
O 2.57391 10.3625 10.1652
N 2.84533 10.1449 7.55895
N -0.924246 2.67743 2.37274
N 1.46369 7.65078 7.84718
N 5.30277 4.65057 2.22866
C 3.21541 10.7853 5.25336
C -0.654303 1.56478 0.248963
H 2.8944 10.799 4.22053
H 6.70878 1.31683 9.54773
C 4.44067 11.3938 5.60643
C 0.709695 1.31705 0.509127
C 4.78474 1.1473 6.93641
C 1.23379 1.76127 1.70516
H 13.5758 1.4782 7.42958
H 2.26955 1.56749 1.95545
C 1.34183 6.53902 5.70165
C 5.05407 5.68336 0.0762228
H 1.82462 6.25736 4.77544
H 12.5962 5.41748 9.41352
C 2.065 7.28503 6.67249
C 5.87563 5.02021 1.02356
H 3.08736 7.57554 6.47573
H -1.36087 4.54235 0.783669
C 2.35934 10.2476 6.26737
C -1.5043 2.05983 1.2779
H 5.47857 2.29728 0.937148
C 3.99797 10.8261 7.88691
C 0.416976 2.43624 2.61619
H 4.36111 10.8234 8.89428
H 0.852056 2.72645 3.56013
C 0.256143 7.02833 8.18391
C 3.99988 5.0046 2.48422
H 3.48747 4.60181 3.34422
C -0.582497 6.57029 7.14109
C 3.36606 5.97719 1.74039
H 5.98684 5.92794 7.32471
H 2.48056 6.45597 2.13254
C -0.0188655 6.21889 5.9173
C 3.90014 6.3501 0.525
C 5.25816 1.82996 4.60402
C 1.28483 10.75 9.9419
C -0.807377 5.41588 4.90286
C 3.13814 7.55573 10.1992
Ni 9.78093 8.8321 8.70308
Ni -1.70642 3.81639 3.74978
O 7.32934 4.67626 3.8352
O 10.9896 7.56864 8.77486
O 12.5951 2.85883 3.84918
O 8.59334 10.0578 8.8145
O 13.6946 4.90137 5.11053
O 9.18097 7.69602 10.0002
O 6.4313 2.4443 4.91353
O 10.3975 9.88927 10.0409
N 10.7722 9.91358 7.37816
N 7.03901 2.44168 2.37181
N 8.75971 7.84933 7.38845
N 13.1985 5.1042 2.44538
C 11.2058 10.8736 5.20233
C 7.31281 1.42722 0.205063
H 10.9803 10.8507 4.15359
H -1.31151 1.24447 9.66451
C 12.3885 1.2024 5.66866
C 8.59671 11.2486 0.543536
C 12.6827 11.3342 7.00967
C 8.98669 11.3611 1.8641
H 5.67081 1.68396 7.25178
H 9.90035 10.8853 2.18835
C 8.3173 7.06355 5.16943
C 12.5649 5.51721 0.108184
H 8.58956 7.07981 4.12234
H 5.15989 5.81304 9.41255
C 9.20865 7.58347 6.13775
C 13.4534 4.98006 1.10536
H 10.2122 7.82112 5.87524
C 10.3059 10.2779 6.14204
C 6.49806 2.0422 1.18112
H 9.28937 10.0659 5.85222
C 12.1072 10.203 7.6305
C 8.34302 2.01962 2.68841
C 7.43524 7.51489 7.67479
C 12.0438 5.84974 2.79563
C 6.83431 6.46962 6.9332
C 11.081 6.2495 1.81271
H -1.58886 6.24551 7.37052
H 10.1825 6.76948 2.12513
C 7.17456 6.35803 5.59554
C 11.3651 6.17319 0.465505
C 13.1966 2.1121 4.76152
C 9.21896 10.5751 9.83426
C 6.57822 5.31685 4.70525
C 10.3415 6.98933 9.76829
C 0.870987 10.2477 6.01098
C 0.457008 9.58013 4.68975
H 0.520985 11.3026 6.01772
H 0.346818 9.73289 6.8177
H 1.27621 8.97596 4.24626
H 0.145493 10.3436 3.94994
H -0.414117 8.91156 4.86181
C 12.8208 1.54185 1.30183
C 11.8401 2.53135 0.70597
H 12.7718 10.9401 0.668959
H 12.504 1.1665 2.28783
H 12.005 2.9512 10.1103
H 10.9263 2.03321 0.423227
H 11.5458 3.28964 1.45112
C 0.106784 6.2817 9.5217
C -0.147626 7.07545 0.422203
H 1.06234 5.76969 9.74524
H -0.585473 5.42774 9.37613
H 0.380272 6.71241 1.32442
H -1.20152 7.02462 0.647319
H -0.0189597 8.16315 0.36044
C 7.38306 5.11432 0.850843
C 7.66057 4.56577 9.86117
H 7.93749 4.59705 1.6317
H 7.67666 6.18054 0.941888
H 8.55915 3.93045 10.0212
H 7.97625 5.39383 9.20242
H 6.89455 3.96696 9.32912
C 13.0436 9.05562 7.74861
C 13.3209 8.73161 9.17951
H -1.72719 9.26709 7.25827
H 12.6506 8.18531 7.17944
H 12.5206 8.96875 9.88929
H -1.55357 9.29897 9.51591
H 13.4643 7.64516 9.19323
C 9.26746 2.85762 3.57358
C 9.07627 2.73834 5.09223
H 10.2974 2.52636 3.3816
H 9.35639 3.90117 3.22979
H 8.62639 1.77036 5.35328
H 10.0425 2.83136 5.6135
H 8.46985 3.54042 5.54158
C 6.48519 8.58318 8.16693
C 6.34687 8.66944 9.69816
H 6.71121 9.55976 7.69941
H 5.49127 8.3915 7.72403
H 5.60834 9.43356 9.99368
H 6.04092 7.72393 10.1092
H 7.24329 8.90882 10.262
C 11.8596 6.45582 4.15719
C 11.1309 5.49292 5.10599
H 11.2415 7.36925 4.04957
H 12.7913 6.89446 4.5601
H 11.4636 4.45955 5.03299
H 10.0749 5.41257 4.83932
H 11.2689 5.80596 6.16291
156
Atoms. Timestep: 4259
Ni 2.20696 9.05791 9.04314
Ni 6.01159 3.56419 3.58028
O -0.208063 4.80142 3.90537
O 3.71167 8.18456 9.23413
O 4.6731 2.43097 3.5894
O 0.707237 9.94883 9.07049
O 5.32692 4.74315 4.78611
O 2.13312 8.07865 0.0998901
O -1.28544 2.57469 4.99655
O 2.57571 10.4235 10.1538
N 2.88502 10.1123 7.57398
N -0.939294 2.68135 2.38717
N 1.50882 7.62924 7.90934
N 5.25042 4.59113 2.17622
C 3.15843 10.9091 5.30483
C -0.685956 1.55833 0.254698
H 2.76488 11.0572 4.30782
H 6.63996 1.15356 9.61517
C 4.44428 11.4112 5.62634
C 0.692022 1.35327 0.485695
C 4.86947 1.03657 6.92861
C 1.22898 1.82879 1.66538
H 13.6762 1.32139 7.35134
H 2.27768 1.67581 1.88976
C 1.38074 6.53792 5.74744
C 5.01659 5.70085 0.0602651
H 1.86075 6.27696 4.81265
H 12.6221 5.41185 9.42995
C 2.10497 7.27703 6.7254
C 5.82682 4.98877 0.982764
H 3.11828 7.59197 6.51577
H -1.34294 4.5431 0.809545
C 2.34913 10.2915 6.31131
C -1.52745 2.05618 1.2947
H 5.42881 2.1402 1.01241
C 4.08452 10.7166 7.88159
C 0.407104 2.45554 2.60755
H 4.4796 10.6475 8.87695
H 0.847912 2.72745 3.55508
C 0.307241 6.99759 8.25241
C 3.9351 4.91175 2.42016
H 3.42762 4.49867 3.2797
C -0.526413 6.50643 7.21347
C 3.29719 5.90169 1.70347
H 5.97666 5.90967 7.2653
H 2.3926 6.34517 2.09253
C 0.0255146 6.19485 5.97108
C 3.86066 6.35023 0.529608
C 5.25868 1.85466 4.62686
C 1.28599 10.8018 9.91121
C -0.778227 5.42605 4.93274
C 3.14792 7.61664 10.2865
Ni 9.78836 8.80537 8.69498
Ni 14.0349 3.83923 3.7693
O 7.28482 4.71368 3.76811
O 11.0063 7.54945 8.77615
O 12.5773 2.91418 3.86953
O 8.58849 10.0277 8.80838
O 13.7112 4.93665 5.12991
O 9.19272 7.66419 9.9906
O 6.42715 2.49383 4.92719
O 10.399 9.86297 10.0324
N 10.7753 9.89236 7.37137
N 7.03078 2.41971 2.37942
N 8.77347 7.81402 7.3651
N 13.2234 5.13457 2.46384
C 11.1053 11.0057 5.25849
C 7.27298 1.31399 0.252509
H 10.8248 11.0285 4.22348
H -1.35667 1.22927 9.67665
C 12.3422 1.25415 5.68523
C 8.59541 11.2161 0.555277
C 12.7258 11.2627 6.97879
C 9.04516 11.4346 1.84393
H 5.8191 1.46921 7.22074
H 10.0101 11.0483 2.13535
C 8.27347 7.12136 5.11057
C 12.5877 5.51864 0.122521
H 8.53991 7.13855 4.0608
H 5.12898 5.87117 9.40248
C 9.16444 7.67288 6.06895
C 13.4758 4.99005 1.12428
H 10.1444 7.97484 5.77117
C 10.239 10.3962 6.21958
C 6.4684 1.93756 1.23072
H 9.19871 10.2296 5.98567
C 12.1315 10.1247 7.56621
C 8.369 2.07661 2.66637
C 7.46567 7.43865 7.67396
C 12.0709 5.87957 2.80489
C 6.85253 6.42611 6.89551
C 11.0874 6.23431 1.82209
H -1.52102 6.14919 7.45109
H 10.1642 6.70941 2.13351
C 7.15239 6.38114 5.54378
C 11.3805 6.16295 0.472487
C 13.165 2.15254 4.77783
C 9.21462 10.5449 9.83233
C 6.53213 5.37225 4.62306
C 10.3574 6.96679 9.76817
C 0.857261 10.1701 6.07613
C 0.488508 9.63161 4.68892
H 0.391711 11.1673 6.22002
H 0.397786 9.49772 6.80391
H 1.21419 8.86927 4.33898
H 0.46404 10.4534 3.95216
H -0.523753 9.17428 4.71769
C 12.7806 1.58062 1.30407
C 11.8641 2.54046 0.565175
H 12.7372 10.9182 0.764307
H 12.4011 1.30206 2.29546
H 12.1414 2.95906 10.0238
H 10.9941 2.03175 0.164942
H 11.474 3.30888 1.25759
C 0.142518 6.30578 9.61954
C -0.168882 7.12458 0.490615
H 1.10052 5.8199 9.88624
H -0.524629 5.43344 9.48666
H 0.279835 6.74106 1.42756
H -1.23753 7.08776 0.653351
H -0.0247354 8.21438 0.440043
C 7.33384 5.00225 0.783183
C 7.55228 4.43461 9.78292
H 7.87467 4.46277 1.54828
H 7.71006 6.03626 0.899254
H 8.42576 3.76197 9.92034
H 7.88687 5.25302 9.12489
H 6.74519 3.86649 9.27274
C 13.0328 8.95729 7.66012
C 13.3823 8.70634 9.09208
H -1.77021 9.11768 7.09095
H 12.5834 8.07496 7.15648
H 12.6156 9.00272 9.82554
H -1.45958 9.26194 9.34862
H 13.5103 7.6241 9.15388
C 9.27132 2.97289 3.52263
C 9.09076 2.90138 5.05016
H 10.31 2.67646 3.33058
H 9.3291 4.00657 3.14358
H 8.63605 1.94671 5.3478
H 10.0589 2.99172 5.56881
H 8.50488 3.7299 5.47666
C 6.51183 8.46176 8.25399
C 6.43387 8.52491 9.79344
H 6.67801 9.45141 7.79604
H 5.50731 8.23888 7.85942
H 5.62374 9.18955 10.1363
H 6.30538 7.54554 10.2143
H 7.30324 8.89472 10.3205
C 11.9037 6.52764 4.15034
C 11.1431 5.60655 5.11334
H 11.3068 7.45329 4.01904
H 12.8443 6.9483 4.5509
H 11.4989 4.57595 5.12357
H 10.1055 5.50049 4.78122
H 11.2154 5.97907 6.15536
156
Atoms. Timestep: 4262
Ni 2.20996 9.05863 9.04106
Ni 6.01175 3.56349 3.58111
O -0.203194 4.80104 3.90602
O 3.71356 8.18506 9.23195
O 4.67425 2.42999 3.59021
O 0.71134 9.94977 9.0684
O 5.32757 4.74275 4.78632
O 2.13621 8.07913 0.10258
O -1.27977 2.57374 4.99664
O 2.57845 10.4246 10.1512
N 2.88752 10.1132 7.57268
N -0.933899 2.68044 2.38863
N 1.51235 7.6296 7.90786
N 5.25117 4.59069 2.17779
C 3.16073 10.9103 5.30473
C -0.680738 1.55712 0.257284
H 2.76748 11.0584 4.30826
H 6.63961 1.15224 9.61278
C 4.44561 11.4126 5.62608
C 0.696203 1.35201 0.488162
C 4.87048 11.3421 6.92766
C 1.23277 1.82765 1.66723
H 13.6706 1.32012 7.35017
H 2.28068 1.67462 1.89148
C 1.38439 6.53799 5.74711
C 5.01751 5.7007 0.0629522
H 1.86404 6.27697 4.81282
H 12.6172 5.41163 9.42766
C 2.10807 7.2773 6.72455
C 5.82714 4.98843 0.984962
H 3.12062 7.59232 6.51503
H -1.33723 4.54266 0.811842
C 2.35203 10.2925 6.31068
C -1.52161 2.05509 1.29673
H 5.42942 2.13914 1.0146
C 4.08612 10.7178 7.88014
C 0.411502 2.45456 2.60891
H 4.48089 10.6486 8.87497
H 0.851966 2.72654 3.55593
C 0.311662 6.99778 8.25076
C 3.93682 4.9114 2.42161
H 3.42972 4.49821 3.2807
C -0.521361 6.50649 7.21237
C 3.2994 5.9016 1.7053
H 5.97683 5.90958 7.26417
H 2.39548 6.34519 2.09415
C 0.0301703 6.19483 5.97063
C 3.86246 6.35025 0.532052
C 5.25941 1.85352 4.62713
C 1.28968 10.803 9.90867
C -0.772959 5.42584 4.93284
C 3.15022 7.61699 10.2838
Ni 9.78566 8.80603 8.69308
Ni 14.029 3.8386 3.77002
O 7.28405 4.71328 3.76883
O 11.0027 7.54978 8.77421
O 12.5725 2.91332 3.87019
O 8.58667 10.0286 8.80642
O 13.7055 4.9363 5.12994
O 9.19044 7.66456 9.98804
O 6.42702 2.49287 4.92732
O 10.3958 9.86389 10.0298
N 10.7718 9.89329 7.37018
N 7.03018 2.41872 2.38088
N 8.77154 7.81443 7.36392
N 13.2181 5.13427 2.46526
C 11.1016 11.0069 5.25842
C 7.27221 1.31271 0.255097
H 10.8213 11.0297 4.22395
H -1.351 1.22797 9.67423
C 12.3376 1.25286 5.68494
C 8.59364 11.2174 0.557709
C 12.7209 11.264 6.97782
C 9.04306 1.12904 1.84568
H 5.8194 1.46798 7.21963
H 10.0072 11.0495 2.13695
C 8.27192 7.12159 5.11057
C 12.5829 5.51845 0.125176
H 8.53818 7.13878 4.06136
H 5.12978 5.87107 9.40021
C 9.16223 7.67324 6.06845
C 13.4704 4.98971 1.1264
H 10.1415 7.97528 5.77083
C 10.2359 10.3972 6.219
C 6.46822 1.93645 1.23279
H 9.19646 10.2306 5.98522
C 12.1271 10.1257 7.56493
C 8.36741 2.07553 2.66769
C 7.46471 7.43895 7.67263
C 12.0665 5.87948 2.80613
C 6.85204 6.42614 6.89458
C 11.0838 6.23431 1.82385
H -1.51522 6.14916 7.44987
H 10.1613 6.70953 2.1351
C 7.15168 6.38117 5.54356
C 11.3766 6.16293 0.474962
C 13.1597 2.15147 4.77802
C 9.21235 10.546 9.82984
C 6.5319 5.37203 4.62333
C 10.3543 6.96696 9.7657
C 0.861281 10.1711 6.07564
C 0.492822 9.63248 4.68915
H 0.396087 11.1685 6.21945
H 0.402155 9.49855 6.80302
H 1.21797 8.86994 4.3394
H 0.468375 10.4544 3.95278
H -0.518687 9.17503 4.71792
C 12.7756 1.57941 1.30611
C 11.8598 2.5395 0.567604
H 12.7323 10.9194 0.766628
H 12.3965 1.30078 2.29698
H 12.1369 2.95821 10.0212
H 10.9905 2.03066 0.167579
H 11.4701 3.30812 1.25966
C 0.147066 6.30579 9.61716
C -0.164053 7.1248 0.493086
H 1.10436 5.81979 9.88372
H -0.51958 5.43322 9.48435
H 0.284324 6.74118 1.42954
H -1.23191 7.08797 0.655736
H -0.0200185 8.21489 0.44254
C 7.33303 5.00193 0.785498
C 7.55125 4.43414 9.78044
H 7.87345 4.46231 1.55018
H 7.70896 6.0362 0.901506
H 8.42409 3.76132 9.9178
H 7.88559 5.25277 9.12277
H 6.74477 3.86587 9.27054
C 13.0277 8.95799 7.65878
C 13.3769 8.70697 9.08998
H -1.7642 9.11841 7.08991
H 12.5786 8.07542 7.15541
H 12.6108 9.00343 9.82306
H -1.45382 9.26272 9.34639
H 13.5048 7.62445 9.15175
C 9.26904 2.97204 3.52348
C 9.0886 2.90051 5.05021
H 10.3069 2.67553 3.33154
H 9.32677 4.00599 3.14464
H 8.63423 1.9456 5.34769
H 10.056 2.99088 5.56859
H 8.50316 3.72925 5.47648
C 6.51159 8.46233 8.25233
C 6.43368 8.52549 9.79097
H 6.67765 9.45224 7.79462
H 5.50782 8.23939 7.85797
H 5.62416 9.19031 10.1336
H 6.30529 7.54587 10.2116
H 7.5316 8.8954 -0.0286876
C 11.8995 6.52771 4.15086
C 11.1394 5.60638 5.11335
H 11.303 7.4536 4.01963
H 12.8393 6.94848 4.55122
H 11.495 4.57552 5.12358
H 10.1026 5.50029 4.78141
H 11.2116 5.979 6.15483
156
Atoms. Timestep: 6286
Ni 2.21067 9.06009 9.0427
Ni 6.01066 3.56317 3.57962
O -0.200932 4.80108 3.90714
O 3.71444 8.18681 9.23458
O 4.67315 2.42913 3.58882
O 0.711451 9.95132 9.06897
O 5.32513 4.74167 4.78521
O 2.13598 8.08217 0.105541
O -1.27828 2.57509 4.99912
O 2.57997 10.4261 10.1521
N 2.88882 10.1129 7.57293
N -0.933115 2.68076 2.39018
N 1.51307 7.63088 7.91002
N 5.24896 4.58903 2.17576
C 3.16162 10.9083 5.3035
C -0.680357 1.55859 0.25754
H 2.76808 11.0555 4.30637
H 6.63925 1.1519 9.61045
C 4.44689 11.4115 5.62491
C 0.697491 1.35386 0.488281
C 4.87232 11.342 6.92704
C 1.23482 1.82889 1.66796
H 13.6732 1.31789 7.35146
H 2.28361 1.67596 1.89197
C 1.38694 6.53789 5.74915
C 5.01491 5.70049 0.0611951
H 1.86754 6.27637 4.81482
H 12.6177 5.40996 9.4265
C 2.11035 7.2775 6.72703
C 5.82515 4.98731 0.982437
H 3.12382 7.5923 6.51796
H -1.33603 4.54124 0.811856
C 2.35274 10.2912 6.31022
C -1.5215 2.05593 1.29764
H 5.42782 2.13908 1.01255
C 4.08787 10.7181 7.88024
C 0.413104 2.45453 2.61065
H 4.48275 10.6502 8.87563
H 0.853951 2.72597 3.5583
C 0.311787 6.99902 8.25315
C 3.93365 4.9092 2.41992
H 3.42604 4.49505 3.27888
C -0.521028 6.50694 7.21417
C 3.29696 5.90149 1.70583
H 5.97626 5.90666 7.26458
H 2.39432 6.3468 2.09716
C 0.0317062 6.19502 5.97226
C 3.86048 6.35105 0.532442
C 5.25974 1.85326 4.62584
C 1.29073 10.8048 9.9089
C -0.771367 5.42606 4.93417
C 3.15069 7.61965 10.2871
Ni 9.78554 8.80442 8.6923
Ni 14.03 3.83918 3.77163
O 7.28307 4.71354 3.7671
O 11.0031 7.54828 8.77325
O 12.5725 2.9148 3.87226
O 8.58601 10.0268 8.80556
O 13.7063 4.93685 5.1315
O 9.18959 7.66317 9.9875
O 6.42739 2.49358 4.92629
O 10.3963 9.86168 10.0298
N 10.7723 9.89141 7.36945
N 7.02997 2.41946 2.37911
N 8.77084 7.8135 7.36247
N 13.2189 5.13393 2.46583
C 11.1016 11.0081 5.25875
C 7.2717 1.31206 0.253452
H 10.821 11.0319 4.22387
H -1.35117 1.22884 9.67435
C 12.3384 1.25318 5.68604
C 8.59369 11.2163 0.556832
C 12.7226 11.2625 6.97882
C 9.04375 1.12919 1.84507
H 5.82171 1.4685 7.21887
H 10.0085 11.0497 2.13675
C 8.26815 7.12367 5.10769
C 12.5831 5.51689 0.124543
H 8.53355 7.14144 4.05767
H 5.12738 5.87234 9.39822
C 9.15963 7.67553 6.0653
C 13.471 4.98831 1.12637
H 10.1389 7.97847 5.76647
C 10.2355 10.3977 6.21914
C 6.46738 1.93643 1.23099
H 9.19494 10.2323 5.98563
C 12.1283 10.124 7.56493
C 8.36795 2.07641 2.66649
C 7.46386 7.43709 7.67255
C 12.0669 5.87952 2.80662
C 6.85093 6.42455 6.89412
C 11.0832 6.23339 1.82395
H -1.51553 6.14924 7.45151
H 10.1601 6.70882 2.13525
C 7.14881 6.38144 5.5419
C 11.3762 6.16144 0.474442
C 13.1604 2.15311 4.78023
C 9.21239 10.544 9.82926
C 6.52974 5.37169 4.62182
C 10.3539 6.96548 9.76487
C 0.860985 10.1694 6.0752
C 0.492014 9.6305 4.6882
H 0.395156 11.1665 6.21908
H 0.402253 9.49706 6.80314
H 1.21761 8.86797 4.33848
H 0.467407 10.452 3.9511
H -0.520248 9.17319 4.71731
C 12.7745 1.58094 1.30646
C 11.8595 2.5394 0.5638
H 12.7317 10.9199 0.76898
H 12.3935 1.30471 2.29775
H 12.1392 2.95768 10.018
H 10.9913 2.02977 0.161049
H 11.4669 3.30816 1.2544
C 0.147344 6.30716 9.62033
C -0.164748 7.12503 0.497543
H 1.10538 5.82149 9.88679
H -0.519049 5.43447 9.48689
H 0.28326 6.74056 1.43435
H -1.2335 7.08829 0.659962
H -0.0209239 8.21495 0.448408
C 7.3321 5.0008 0.782184
C 7.55027 4.43152 9.77693
H 7.87359 4.4628 1.54784
H 7.70796 6.03509 0.896463
H 8.42119 3.75582 9.9154
H 7.88899 5.24864 9.11936
H 6.74182 3.86632 9.26563
C 13.0296 8.95699 7.65961
C 13.3775 8.70634 9.09197
H -1.76134 9.11766 7.09134
H 12.581 8.07465 7.15534
H 12.6105 9.00279 9.82483
H -1.45299 9.26204 9.3496
H 13.5049 7.62412 9.15408
C 9.27019 2.97337 3.52203
C 9.09012 2.90254 5.04968
H 10.3086 2.677 3.32952
H 9.32769 4.00697 3.14271
H 8.63559 1.94804 5.348
H 10.0583 2.99274 5.56809
H 8.50436 3.7313 5.47595
C 6.50998 8.46023 8.25218
C 6.43259 8.52591 9.79188
H 6.67603 9.44934 7.79301
H 5.50572 8.23698 7.85741
H 5.62521 9.19421 10.1339
H 6.29989 7.5481 10.2149
H 7.53205 8.89342 -0.0275655
C 11.9006 6.52912 4.15131
C 11.139 5.6095 5.11493
H 11.3047 7.45528 4.0189
H 12.8415 6.94919 4.55155
H 11.4945 4.5788 5.12648
H 10.1016 5.50329 4.78209
H 11.2107 5.98322 6.15656
156
Atoms. Timestep: 6292
Ni 2.21477 9.06188 9.03963
Ni 6.01088 3.56136 3.58053
O -0.193166 4.79974 3.9078
O 3.71791 8.18834 9.23123
O 4.67354 2.42699 3.58966
O 0.716004 9.95356 9.06605
O 5.32514 4.74024 4.78632
O 2.13966 8.084 0.110051
O -1.26958 2.57314 5.00001
O 2.58463 10.4283 10.1492
N 2.89237 10.1148 7.57098
N -0.925914 2.67906 2.39195
N 1.51762 7.63242 7.90782
N 5.24997 4.58728 2.17776
C 3.16469 10.9114 5.30302
C -0.673296 1.55554 0.260867
H 2.77143 11.0587 4.30665
H 6.63857 1.14851 9.60678
C 4.44879 11.415 5.62443
C 0.703153 1.35053 0.491608
C 4.874 11.3455 6.92583
C 1.24051 1.8259 1.67063
H 13.6659 1.31472 7.35001
H 2.28815 1.67288 1.89453
C 1.39214 6.53805 5.74843
C 5.0161 5.70026 0.0645625
H 1.87225 6.27634 4.81477
H 12.6112 5.40936 9.42291
C 2.1152 7.27836 6.72553
C 5.82592 4.98635 0.985175
H 3.12741 7.59328 6.51676
H -1.32798 4.5399 0.815018
C 2.35642 10.2936 6.30895
C -1.51414 2.05317 1.30027
H 5.42817 2.13643 1.01548
C 4.09037 10.7211 7.87864
C 0.419569 2.45208 2.61284
H 4.48477 10.6531 8.87311
H 0.859696 2.72371 3.55976
C 0.317299 6.99942 8.2512
C 3.93533 4.90835 2.42213
H 3.42858 4.49385 3.28046
C -0.514698 6.5071 7.21249
C 3.29951 5.9014 1.70866
H 5.97624 5.90632 7.26317
H 2.39796 6.34692 2.0997
C 0.0380387 6.19493 5.97154
C 3.86293 6.35119 0.535789
C 5.26088 1.8503 4.62604
C 1.29568 10.8077 9.90509
C -0.764198 5.42558 4.93419
C 3.15421 7.62031 10.2836
Ni 9.78184 8.80613 8.68941
Ni 14.0219 3.83761 3.77251
O 7.28308 4.71237 3.76809
O 10.9992 7.54934 8.7703
O 12.5649 2.91291 3.87313
O 8.58262 10.029 8.80249
O 13.698 4.9354 5.13232
O 9.18587 7.66448 9.98468
O 6.42772 2.4916 4.92728
O 10.3927 9.86359 10.027
N 10.7676 9.89341 7.36765
N 7.02926 2.41744 2.38085
N 8.76845 7.8149 7.36077
N 13.2119 5.13254 2.468
C 11.0965 11.0112 5.25827
C 7.2705 1.30877 0.256831
H 10.8162 11.035 4.22422
H -1.34369 1.22544 9.67068
C 12.3321 1.24996 5.68553
C 8.59129 11.2195 0.56022
C 12.7163 11.2656 6.97784
C 9.04123 1.12577 1.84788
H 5.82245 1.46548 7.21748
H 10.005 11.0527 2.13917
C 8.26595 7.1242 5.10725
C 12.5767 5.5163 0.127866
H 8.53131 7.14205 4.05811
H 5.12863 5.87209 9.3947
C 9.15708 7.67668 6.06428
C 13.4639 4.98732 1.12906
H 10.1352 7.97978 5.76589
C 10.2307 10.4003 6.21815
C 6.46644 1.93369 1.23373
H 9.19141 10.2348 5.98484
C 12.1228 10.1263 7.56344
C 8.36617 2.07383 2.66876
C 7.46216 7.43805 7.6712
C 12.0607 5.87946 2.80864
C 6.85009 6.42473 6.89314
C 11.0778 6.23343 1.82645
H -1.50806 6.14905 7.4499
H 10.1558 6.70927 2.13759
C 7.14773 6.38134 5.54144
C 11.3708 6.16145 0.477806
C 13.1532 2.15039 4.78034
C 9.20959 10.5469 9.8256
C 6.52942 5.37115 4.62203
C 10.3494 6.96589 9.76117
C 0.865951 10.1721 6.07467
C 0.497933 9.63281 4.68823
H 0.401044 11.1696 6.21827
H 0.408124 9.49916 6.80198
H 1.22287 8.86965 4.33902
H 0.473257 10.4547 3.95188
H -0.51373 9.17503 4.71762
C 12.7676 1.57772 1.30927
C 11.8537 2.53697 0.567338
H 12.725 10.923 0.772237
H 12.3871 1.3014 2.30016
H 12.1333 2.95558 10.0141
H 10.9862 2.02697 0.164627
H 11.4615 3.3062 1.2574
C 0.153476 6.30717 9.61702
C -0.158121 7.1258 0.501095
H 1.1109 5.82112 9.88329
H -0.51227 5.43396 9.48364
H 0.289425 6.74083 1.4374
H -1.22629 7.08879 0.663475
H -0.0147005 8.21601 0.451994
C 7.33145 5.00019 0.785598
C 7.54904 4.43042 9.77323
H 7.87206 4.46155 1.55064
H 7.70651 6.03477 0.899648
H 8.41915 3.7541 9.91185
H 7.88733 5.24791 9.11627
H 6.74103 3.86466 9.2624
C 13.0227 8.95902 7.65745
C 13.3704 8.70761 9.08914
H -1.75285 9.11957 7.08966
H 12.5745 8.07595 7.15369
H 12.6037 9.00465 9.82159
H -1.44501 9.26411 9.34654
H 13.4974 7.62529 9.15101
C 9.26728 2.97135 3.52292
C 9.08693 2.90021 5.05
H 10.3048 2.67458 3.33081
H 9.32466 4.00524 3.14417
H 8.63318 1.94527 5.34791
H 10.0548 2.99059 5.56797
H 8.502 3.7296 5.4758
C 6.50958 8.46168 8.24952
C 6.43217 8.5271 9.78869
H 6.67547 9.45124 7.79092
H 5.5061 8.23826 7.85516
H 5.62564 9.19624 10.1302
H 6.29979 7.54913 10.2112
H 7.53096 8.89525 -0.0234725
C 11.8947 6.52935 4.15209
C 11.1341 5.60891 5.11508
H 11.2995 7.456 4.01972
H 12.8351 6.9497 4.55212
H 11.489 4.57785 5.1265
H 10.0972 5.50274 4.78224
H 11.2056 5.98306 6.15608
156
Atoms. Timestep: 8340
Ni 2.21547 9.06359 9.04159
Ni 6.00962 3.5615 3.57906
O -0.191441 4.79954 3.90938
O 3.71797 8.19036 9.23476
O 4.67308 2.42668 3.58845
O 0.716859 9.95534 9.06638
O 5.32334 4.73952 4.78448
O 2.1396 8.08739 0.113054
O -1.26866 2.57433 5.00233
O 2.58542 10.4302 10.1494
N 2.89402 10.1145 7.571
N -0.925046 2.67884 2.39377
N 1.51856 7.63356 7.91033
N 5.24727 4.58631 2.17553
C 3.16554 10.91 5.30175
C -0.67321 1.55709 0.26108
H 2.77174 11.0569 4.30469
H 6.6377 1.14767 9.60422
C 4.45018 11.4142 5.62307
C 0.704424 1.35244 0.491554
C 4.87638 11.3445 6.9248
C 1.24231 1.82728 1.67101
H 13.6692 1.31135 7.35141
H 2.2912 1.6744 1.89453
C 1.39487 6.53817 5.75079
C 5.01313 5.7009 0.0630807
H 1.8762 6.27591 4.81706
H 12.6116 5.40785 9.42153
C 2.11712 7.27888 6.72837
C 5.82323 4.98566 0.982456
H 3.13064 7.59384 6.51981
H -1.32718 4.53792 0.814721
C 2.35748 10.2924 6.30841
C -1.51385 2.0544 1.30117
H 5.4264 2.13732 1.01275
C 4.09275 10.7202 7.878
C 0.420945 2.45196 2.61423
H 4.48748 10.6532 8.87333
H 0.861976 2.72302 3.56191
C 0.317811 7.00113 8.25368
C 3.93212 4.90642 2.42021
H 3.42426 4.49081 3.27832
C -0.513997 6.50777 7.21472
C 3.29734 5.90235 1.70989
H 5.97648 5.90279 7.26395
H 2.39749 6.35031 2.10444
C 0.0398001 6.195 5.97348
C 3.86072 6.35312 0.536956
C 5.26097 1.85112 4.62482
C 1.29677 10.8094 9.90532
C -0.762218 5.42495 4.93605
C 3.15427 7.62422 10.2876
Ni 9.78182 8.80429 8.68883
Ni 14.0231 3.83795 3.77463
O 7.28129 4.71279 3.76616
O 10.9991 7.54797 8.76966
O 12.5657 2.9144 3.87599
O 8.58248 10.0266 8.80174
O 13.6996 4.9359 5.13366
O 9.18552 7.66285 9.98349
O 6.4277 2.49266 4.92541
O 10.3924 9.86138 10.0265
N 10.7684 9.89136 7.3669
N 7.02885 2.41851 2.37879
N 8.76769 7.81364 7.35902
N 13.2124 5.13207 2.4685
C 11.0966 11.0126 5.25907
C 7.2696 1.30805 0.254993
H 10.8158 11.0381 4.22444
H -1.34421 1.22631 9.6707
C 12.3333 1.25015 5.68704
C 8.59102 11.2184 0.559165
C 12.7183 11.2636 6.97874
C 9.04159 1.12646 1.84674
H 5.82564 1.46468 7.21633
H 10.006 11.0535 2.13878
C 8.26177 7.1267 5.10407
C 12.5767 5.51449 0.127309
H 8.52581 7.14506 4.05372
H 5.12558 5.8747 9.39272
C 9.15372 7.67963 6.06057
C 13.464 4.98526 1.12912
H 10.132 7.98395 5.76036
C 10.2309 10.4009 6.21849
C 6.46583 1.93431 1.23144
H 9.18998 10.2369 5.98551
C 12.1241 10.1244 7.56325
C 8.36642 2.07523 2.66669
C 7.46192 7.43551 7.67078
C 12.061 5.87851 2.80913
C 6.84948 6.42268 6.89253
C 11.0772 6.23172 1.82669
H -1.50839 6.14959 7.45179
H 10.1543 6.70755 2.13797
C 7.14489 6.38165 5.53973
C 11.3702 6.15967 0.477303
C 13.154 2.15255 4.7834
C 9.20907 10.5441 9.8251
C 6.52729 5.3705 4.62066
C 10.3493 6.96482 9.76059
C 0.865978 10.1696 6.07349
C 0.497119 9.63015 4.68664
H 0.399284 11.1662 6.21755
H 0.40855 9.49676 6.80145
H 1.22278 8.86747 4.33734
H 0.472364 10.4513 3.94915
H -0.515083 9.17273 4.71592
C 12.7657 1.58065 1.30918
C 11.8529 2.53729 0.561221
H 12.7234 10.9245 0.774961
H 12.3824 1.3078 2.30031
H 12.1361 2.95546 10.0096
H 10.9872 2.0263 0.154644
H 11.4564 3.3064 1.24931
C 0.154211 6.30884 9.6208
C -0.158933 7.125 0.50683
H 1.11251 5.82374 9.88671
H -0.510986 5.43549 9.4867
H 0.288377 6.7392 1.44332
H -1.22776 7.08793 0.668875
H -0.0159847 8.21512 0.459798
C 7.33005 4.99837 0.781106
C 7.54739 4.42678 9.76871
H 7.87223 4.46204 1.54743
H 7.70603 6.03281 0.893046
H 8.41472 3.74678 9.9084
H 7.89168 5.24208 9.11165
H 6.73688 3.86566 9.25615
C 13.0255 8.95803 7.65944
C 13.3709 8.70767 9.09248
H -1.74887 9.11914 7.0927
H 12.5782 8.07564 7.15416
H 12.6032 9.00425 9.82431
H -1.44425 9.26341 9.352
H 13.4976 7.62546 9.15494
C 9.26872 2.97281 3.52134
C 9.08939 2.90254 5.04914
H 10.3067 2.67636 3.3281
H 9.32602 4.00633 3.14183
H 8.63512 1.94817 5.3482
H 10.0577 2.99244 5.56714
H 8.50382 3.73155 5.47529
C 6.50776 8.45837 8.25008
C 6.43133 8.52733 9.79015
H 6.67324 9.44682 7.78931
H 5.50392 8.23426 7.85517
H 5.62693 9.1995 10.1313
H 6.29463 7.55137 10.2161
H 7.53137 8.89313 -0.0218251
C 11.896 6.53005 4.15291
C 11.1331 5.61252 5.11743
H 11.3018 7.45698 4.0191
H 12.8375 6.94924 4.55268
H 11.4883 4.5817 5.13098
H 10.096 5.506 4.78356
H 11.204 5.98811 6.15844
156
Atoms. Timestep: 8341
Ni 2.21547 9.06359 9.04159
Ni 6.00962 3.5615 3.57906
O -0.191441 4.79954 3.90938
O 3.71797 8.19036 9.23476
O 4.67308 2.42668 3.58845
O 0.716859 9.95534 9.06638
O 5.32334 4.73952 4.78448
O 2.1396 8.08739 0.113054
O -1.26866 2.57433 5.00233
O 2.58542 10.4302 10.1494
N 2.89402 10.1145 7.571
N -0.925046 2.67884 2.39377
N 1.51856 7.63356 7.91033
N 5.24727 4.58631 2.17553
C 3.16554 10.91 5.30175
C -0.67321 1.55709 0.26108
H 2.77174 11.0569 4.30469
H 6.6377 1.14767 9.60422
C 4.45018 11.4142 5.62307
C 0.704424 1.35244 0.491554
C 4.87638 11.3445 6.9248
C 1.24231 1.82728 1.67101
H 13.6692 1.31135 7.35141
H 2.2912 1.6744 1.89453
C 1.39487 6.53817 5.75079
C 5.01313 5.7009 0.0630807
H 1.8762 6.27591 4.81706
H 12.6116 5.40785 9.42153
C 2.11712 7.27888 6.72837
C 5.82323 4.98566 0.982456
H 3.13064 7.59384 6.51981
H -1.32718 4.53792 0.814721
C 2.35748 10.2924 6.30841
C -1.51385 2.0544 1.30117
H 5.4264 2.13732 1.01275
C 4.09275 10.7202 7.878
C 0.420945 2.45196 2.61423
H 4.48748 10.6532 8.87333
H 0.861976 2.72302 3.56191
C 0.317811 7.00113 8.25368
C 3.93212 4.90642 2.42021
H 3.42426 4.49081 3.27832
C -0.513997 6.50777 7.21472
C 3.29734 5.90235 1.70989
H 5.97648 5.90279 7.26395
H 2.39749 6.35031 2.10444
C 0.0398001 6.195 5.97348
C 3.86072 6.35312 0.536956
C 5.26097 1.85112 4.62482
C 1.29677 10.8094 9.90532
C -0.762218 5.42495 4.93605