156
Atoms. Timestep: 0
Ni 2.89857 9.41116 8.59265
Ni 6.17525 3.10579 3.48481
O 1.44827 4.35425 3.93374
O 4.4416 8.15245 9.05464
O 4.63665 1.84729 3.87523
O 1.36499 10.6744 9.00295
O 5.80609 4.46033 4.96242
O 2.54244 8.0327 10.0675
O 0.25117 1.69264 4.94273
O 3.23722 10.8047 10.0626
N 3.69677 10.6606 7.2416
N 0.71256 1.8642 2.11704
N 2.17217 8.14409 7.25198
N 5.44023 4.39481 2.13747
C 3.48546 12.1483 5.36301
C 0.47488 0.38955 0.2292
H 2.86453 12.5181 4.55267
H 5.86971 0.03371 9.69377
C 4.76073 0.1474 5.61481
C 1.74333 12.3699 0.47412
C 5.50345 12.1502 6.68209
C 2.49852 0.35508 1.54004
H 0.24768 12.5084 6.91993
H 3.49155 12.5067 1.77336
C 2.48363 6.6337 5.40822
C 5.72803 5.90364 0.28669
H 3.13294 6.27291 4.61605
H -0.10828 6.26667 9.7662
C 2.92756 7.68099 6.23068
C 6.1883 4.86756 1.11596
H 3.89994 8.14655 6.0889
H 0.91589 4.41889 0.97634
C 2.98256 11.1359 6.19748
C -0.01036 1.40553 1.07106
H 5.26093 1.85011 0.92351
C 4.93641 11.1381 7.47507
C 1.94823 1.3719 2.3406
H 5.48559 10.7097 8.30944
H 2.50886 1.79214 3.17267
C 0.94573 7.62654 7.47302
C 4.21083 4.90458 2.35686
H 3.63605 4.47744 3.17528
C 0.43859 6.57577 6.69176
C 3.68763 5.945 1.56944
H 5.70774 6.17693 6.91975
H 2.69824 6.32683 1.80071
C 1.22745 6.06471 5.65205
C 4.46338 6.45777 0.52027
C 5.3126 1.24381 4.79419
C 2.0502 11.2675 9.92158
C 0.73548 4.94016 4.83586
C 3.73174 7.56629 9.95688
Ni 9.15137 9.41116 8.59265
Ni 12.4281 3.10579 3.48481
O 7.70109 4.35425 3.93374
O 10.6944 8.15245 9.05464
O 10.8895 1.84729 3.87523
O 7.61779 10.6744 9.00295
O 12.0589 4.46033 4.96242
O 8.79524 8.0327 10.0675
O 6.50397 1.69264 4.94273
O 9.49002 10.8047 10.0626
N 9.94957 10.6606 7.2416
N 6.96536 1.8642 2.11704
N 8.42499 8.14409 7.25198
N 11.693 4.39481 2.13747
C 9.73826 12.1483 5.36301
C 6.72768 0.38955 0.2292
H 9.11733 12.5181 4.55267
H 12.1225 0.03371 9.69377
C 11.0135 0.1474 5.61481
C 7.99613 12.3699 0.47412
C 11.7562 12.1502 6.68209
C 8.75132 0.35508 1.54004
H 6.50047 12.5084 6.91993
H 9.74435 12.5067 1.77336
C 8.73644 6.6337 5.40822
C 11.9808 5.90364 0.28669
H 9.38574 6.27291 4.61605
H 6.14452 6.26667 9.7662
C 9.18036 7.68099 6.23068
C 12.4411 4.86756 1.11596
H 10.1527 8.14655 6.0889
C 9.23536 11.1359 6.19748
C 6.24244 1.40553 1.07106
H 8.24672 10.709 6.04703
C 11.1892 11.1381 7.47507
C 8.20102 1.3719 2.3406
C 7.19853 7.62654 7.47302
C 10.4636 4.90458 2.35686
C 6.69139 6.57577 6.69176
C 9.94043 5.945 1.56944
H 11.9605 6.17693 6.91975
H 8.95104 6.32683 1.80071
C 7.48025 6.06471 5.65205
C 10.7162 6.45777 0.52027
C 11.5654 1.24381 4.79419
C 8.303 11.2675 9.92158
C 6.98827 4.94016 4.83586
C 9.98454 7.56629 9.95688
C 1.56006 10.5525 5.90066
C 1.07237 9.45279 6.84723
H 1.55841 10.1204 4.87691
H 0.81773 11.3776 5.95587
H 1.75 8.57357 6.80588
H 0.05864 9.12204 6.5367
H 1.00696 9.83471 7.88827
C 11.0814 2.01276 0.77975
C 10.6125 3.11466 1.73331
H 10.8573 2.45063 10.0327
H 10.3263 1.19917 0.83156
H 11.3037 3.98337 1.69576
H 9.60357 3.46301 1.42634
H 10.5427 2.72793 2.7723
C 0.05623 8.20355 8.62658
C 0.66759 9.34714 9.44006
H -0.17355 7.38573 9.34291
H 11.6162 8.58936 8.18883
H 1.59887 9.01259 9.94474
H -0.05224 9.66894 10.2222
H 0.8807 10.2201 8.787
C 7.60231 4.25389 0.84093
C 8.04276 3.12901 1.78112
H 8.36294 5.05967 0.92426
H 7.3881 3.83669 10.0854
H 8.09482 3.49417 2.82891
H 9.05471 2.77813 1.48731
H 7.3452 2.26729 1.71222
C 12.0326 10.5556 8.66252
C 11.3606 9.45619 9.48892
H 12.2784 11.3813 9.36435
H 0.46619 10.1236 8.25498
H 10.4323 9.83803 9.96487
H 12.2783 9.12642 0.01986
H 11.1279 8.57635 8.85198
C 9.05941 1.94061 3.52368
C 8.40582 3.04509 4.3581
H 9.30057 1.10994 4.22124
H 10.0007 2.36303 3.11094
H 7.4766 2.67243 4.83934
H 9.10529 3.36437 5.15951
H 8.17891 3.92953 3.72551
C 6.30904 8.20357 8.62658
C 6.92037 9.3472 9.44001
H 5.36335 8.58934 8.18883
H 6.07929 7.38574 9.34294
H 7.13344 10.2201 8.78689
H 6.20054 9.66902 10.2221
H 7.85167 9.0127 9.94469
C 9.5826 4.32945 3.51996
C 10.2076 3.19855 4.3408
H 8.63875 3.9313 3.08939
H 9.34822 5.15136 4.23012
H 10.426 2.32196 3.69445
H 9.49379 2.87704 5.1286
H 11.1378 3.5459 4.83881
156
Atoms. Timestep: 308
Ni 3.37573 9.7337 8.54175
Ni 5.80638 3.37511 3.49095
O 1.92354 3.99038 4.08636
O 4.92149 8.79715 8.71407
O 4.27405 2.42355 3.64939
O 1.87741 10.7098 8.72117
O 5.39516 4.59572 4.76597
O 3.13673 8.8366 9.99595
O 0.77787 1.66317 5.12217
O 3.85307 11.1476 9.56252
N 3.82072 10.7246 6.91545
N 0.975746 1.859 2.35579
N 2.6634 8.20911 7.4384
N 5.19474 4.72913 2.02946
C 3.2453 0.270105 5.89676
C 1.26326 1.151 -0.00376433
H 2.71669 1.11769 6.30062
H 5.55436 0.0976845 9.83125
C 4.50343 0.445286 5.31408
C 2.15944 0.0783769 0.322093
C 5.46931 11.98 5.63454
C 2.44721 12.4822 1.68734
H 12.3525 0.565649 7.71824
H 3.11587 11.7004 2.02306
C 2.71112 6.82034 5.40353
C 4.37418 5.80102 10.1521
H 2.80384 6.86361 4.33155
H 11.8923 5.55684 9.75519
C 3.22122 7.90123 6.20647
C 4.99926 4.63654 0.622882
H 4.00874 8.51503 5.80169
H 1.07851 4.47566 1.20467
C 2.86636 11.4782 6.25386
C 0.502423 1.85947 1.03655
H 4.64152 1.2838 1.54145
C 5.12983 10.9201 6.53852
C 1.9682 0.931026 2.63947
H 5.89969 10.2586 6.901
H 2.38898 0.912218 3.61004
C 1.75615 7.29585 7.95628
C 5.01216 6.02421 2.51612
H 4.65431 6.19937 3.50064
C 1.60796 5.99148 7.34679
C 5.16844 7.16505 1.70506
H 8.17097 4.6597 6.88155
H 5.20468 8.14199 2.17328
C 1.95904 5.78879 5.99612
C 4.92758 7.06906 0.346529
C 4.91834 1.76923 4.66684
C 2.57664 11.5969 9.50393
C 1.35607 4.59368 5.16975
C 4.32368 8.31018 9.84941
Ni 8.92014 9.30933 9.03804
Ni 0.37239 3.04274 3.93558
O 7.30389 4.34927 3.6713
O 10.4389 8.3628 9.30847
O 11.4005 2.07811 4.12332
O 7.33175 10.2643 9.10896
O 0.117546 4.09588 5.36333
O 8.7415 8.02942 0.024549
O 6.14261 2.24315 4.79125
O 9.33591 10.4362 0.106071
N 9.77466 10.7498 7.7764
N 6.53887 1.97781 2.19737
N 8.37918 7.99773 7.50963
N 12.0774 4.52912 2.71467
C 10.0528 11.9219 5.58983
C 6.22357 0.176831 0.53072
H 9.72919 11.9622 4.56047
H 0.950275 1.46242 9.24791
C 11.1784 0.180564 5.9972
C 7.47886 12.1119 0.760217
C 11.501 0.0253968 7.36179
C 8.18025 0.138692 1.84297
H 6.46795 12.0457 5.23123
H 9.03981 12.1337 2.23057
C 7.35829 7.50952 5.30912
C 11.8595 5.64872 0.51631
H 7.00332 7.89017 4.35948
H 3.95099 5.69568 9.15879
C 8.11235 8.38081 6.19604
C 0.121957 4.88437 1.49488
H 8.79619 9.02621 5.69922
C 9.24823 11.1699 6.56359
C 5.69235 1.13651 1.48715
H 8.20974 10.9887 6.3465
C 10.8435 11.5426 8.24586
C 7.79921 1.42222 2.42644
C 8.11155 6.63544 7.76895
C 10.9228 5.25242 3.08457
C 8.03963 5.71697 6.6879
C 10.2736 6.20827 2.19164
H 1.01824 5.23695 7.85135
H 9.41826 6.77277 2.54798
C 7.33029 6.11472 5.56248
C 10.7359 6.45496 0.900664
C 11.9876 1.22995 4.99866
C 7.88403 10.9313 10.1678
C 6.65759 5.07267 4.61879
C 9.80649 7.5852 10.22
C 1.96871 10.7783 5.23277
C 0.716721 10.0952 5.76906
H 2.56794 10.0593 4.63688
H 1.60196 11.5142 4.49269
H 0.829576 8.99804 5.77674
H -0.143311 10.2935 5.09626
H 0.461251 10.4621 6.76949
C 11.5569 2.22268 0.731348
C 11.0927 2.77113 9.59628
H 10.9159 1.35767 0.838381
H 11.0906 2.87426 1.46716
H 11.9865 3.28187 9.18386
H 10.7906 1.95533 8.91895
H 10.2515 3.48252 9.61
C 0.573412 7.81791 8.68244
C 0.734217 8.04484 10.203
H 12.2252 7.15699 8.47039
H 0.303983 8.72723 8.14808
H 0.0274732 8.05843 0.475569
H 1.626 7.28286 0.393469
H 1.24557 9.08187 0.172609
C 5.00125 3.42944 10.0608
C 3.68591 2.71075 9.81045
H 5.91491 2.89361 10.2965
H 5.30272 3.75854 9.0408
H 3.87995 1.70054 9.40224
H 3.07192 3.26883 9.06944
H 3.32808 2.66432 0.47582
C 11.6531 11.0968 9.45899
C 11.6268 11.2223 0.703181
H 0.0264399 11.6612 9.35711
H 11.9323 10.094 9.28891
H 10.8177 11.8998 0.95016
H 0.00448686 11.5503 1.26964
H 11.4179 10.2232 1.14363
C 8.83682 2.14256 3.22146
C 8.69149 2.05407 4.76986
H 9.73206 1.61118 2.91402
H 9.02687 3.15756 2.83566
H 8.17236 1.12651 5.07337
H 9.5946 2.10663 5.36887
H 8.23088 2.94159 5.21476
C 7.18532 6.24236 8.86487
C 7.79977 5.15639 9.75001
H 6.79299 7.10842 9.38593
H 6.26826 5.81981 8.40375
H 7.55157 4.15308 9.35826
H 8.89355 5.1933 9.7209
H 7.68196 5.25749 0.524392
C 10.4115 5.23786 4.48137
C 10.9821 6.41198 5.28849
H 10.4494 4.26312 4.98436
H 9.34435 5.38822 4.39738
H 12.0394 6.61397 5.02765
H 10.9064 6.2009 6.37485
H 10.4268 7.3421 5.05533
156
Atoms. Timestep: 337
Ni 3.37771 9.72964 8.54609
Ni 5.79878 3.37891 3.48248
O 1.91257 3.99135 4.08995
O 4.92341 8.79411 8.70907
O 4.26494 2.42558 3.64486
O 1.87888 10.7062 8.73071
O 5.3848 4.60687 4.7504
O 3.14161 8.82742 9.99764
O 0.773436 1.66288 5.12626
O 3.85658 11.1411 9.56954
N 3.82112 10.7247 6.92152
N 0.971521 1.85654 2.36011
N 2.66093 8.20557 7.44191
N 5.19067 4.71841 2.01188
C 3.23352 0.265977 5.89626
C 1.04712 1.15319 10.2751
H 2.70384 1.10739 6.31253
H 5.54339 0.102004 9.8321
C 4.4948 0.453131 5.322
C 2.16475 0.0765661 0.330022
C 5.46707 11.9993 5.655
C 2.44824 12.4809 1.69647
H -0.129669 0.544608 7.7127
H 3.12512 11.7056 2.03299
C 2.72001 6.8086 5.4146
C 4.40731 5.78956 10.1246
H 2.81472 6.85276 4.34402
H 11.8744 5.57211 9.76853
C 3.23324 7.88626 6.21989
C 5.02775 4.62589 0.599877
H 4.03553 8.48834 5.82584
H 1.05802 4.47233 1.20837
C 2.86525 11.4688 6.25286
C 0.507911 1.85988 1.0373
H 4.63267 1.28257 1.54539
C 5.13147 10.9364 6.55676
C 1.96185 0.927398 2.64742
H 5.90585 10.2874 6.93039
H 2.38082 0.910049 3.61844
C 1.74644 7.29695 7.95643
C 4.99605 6.01115 2.49383
H 4.61738 6.18349 3.46865
C 1.59509 5.99201 7.34997
C 5.17649 7.14954 1.68923
H 8.15483 4.66323 6.86799
H 5.23613 8.12434 2.1592
C 1.95272 5.78511 6.00267
C 4.93943 7.05976 0.332051
C 4.90545 1.77941 4.67017
C 2.58053 11.5914 9.51362
C 1.34627 4.59344 5.17447
C 4.32917 8.3015 9.84218
Ni 8.91445 9.31547 9.04296
Ni 0.36426 3.04136 3.94041
O 7.29522 4.35616 3.66187
O 10.4319 8.36967 9.32055
O 11.3934 2.07407 4.1297
O 7.3257 10.2694 9.10723
O 0.108843 4.09395 5.36931
O 8.7301 8.03708 0.0286392
O 6.13073 2.25479 4.79079
O 9.32703 10.4421 0.108735
N 9.77332 10.7547 7.78461
N 6.53036 1.9775 2.19413
N 8.37777 8.00223 7.50696
N 12.062 4.52805 2.72247
C 10.0413 11.9339 5.6035
C 6.21215 0.174811 0.5319
H 9.71269 11.973 4.57539
H 0.961921 1.46159 9.25088
C 11.1783 0.179689 6.00419
C 7.47254 12.1189 0.752765
C 11.5135 0.0156029 7.3634
C 8.1808 0.153317 1.82536
H 6.46933 12.0774 5.26536
H 9.04132 12.152 2.21286
C 7.34949 7.51965 5.30506
C 11.8433 5.65878 0.529982
H 7.01115 7.89819 4.34923
H 4.01486 5.68388 9.11918
C 8.09751 8.39204 6.19774
C 0.103085 4.88435 1.50332
H 8.75834 9.06134 5.70455
C 9.23824 11.188 6.58241
C 5.68319 1.13237 1.49054
H 8.19566 11.0195 6.37682
C 10.8493 11.5406 8.25121
C 7.79788 1.43379 2.40628
C 8.11653 6.63707 7.76135
C 10.9154 5.26182 3.1018
C 8.03469 5.72256 6.67639
C 10.2699 6.22745 2.21415
H 0.996094 5.24186 7.85177
H 9.42059 6.79696 2.57505
C 7.32068 6.12561 5.55535
C 10.7249 6.46841 0.917422
C 11.9836 1.22683 5.00338
C 7.87538 10.9357 10.1667
C 6.64769 5.08494 4.60512
C 9.79763 7.59654 10.2332
C 1.98225 10.7565 5.23029
C 0.721312 10.0904 5.76699
H 2.58721 10.0225 4.6592
H 1.63359 11.4773 4.46662
H 0.823918 8.99158 5.78251
H 12.3703 10.2984 5.09258
H 0.470033 10.4621 6.76723
C 11.5648 2.21454 0.723433
C 11.1141 2.78632 9.59585
H 10.9338 1.33788 0.797065
H 11.0908 2.85083 1.4698
H 12.0062 3.31954 9.20854
H 10.8408 1.98082 8.8946
H 10.2568 3.47767 9.61107
C 0.563164 7.82251 8.67797
C 0.728843 8.05148 10.1974
H 12.2144 7.16057 8.47016
H 0.2903 8.72677 8.13653
H 0.0242948 8.06909 0.47322
H 1.61696 7.28767 0.388335
H 1.24843 9.086 0.164273
C 5.02757 3.41223 10.0427
C 3.70799 2.70362 9.78116
H 6.16513 2.86881 0.00594695
H 5.3371 3.73555 9.02413
H 3.89163 1.698 9.35751
H 3.09795 3.27367 9.04667
H 3.34782 2.65273 0.444067
C 11.6554 11.0946 9.46591
C 11.626 11.2086 0.709821
H 0.026584 11.6653 9.37105
H 11.9392 10.0952 9.2886
H 10.8166 11.8818 0.966632
H 0.00325556 11.5437 1.27247
H 11.4234 10.206 1.14544
C 8.83156 2.15257 3.20353
C 8.67482 2.04658 4.74641
H 9.73212 1.6296 2.8954
H 9.01821 3.17178 2.82721
H 8.14116 1.1222 5.03343
H 9.57334 2.06927 5.34977
H 8.22761 2.93857 5.19687
C 7.2013 6.23758 8.8614
C 7.82656 5.16135 9.75162
H 6.79924 7.10301 9.37452
H 6.29008 5.80331 8.40105
H 7.57631 4.1535 9.37263
H 8.92012 5.19871 9.7087
H 7.72238 5.27426 0.529728
C 10.4023 5.23621 4.49874
C 10.9628 6.40804 5.3171
H 10.44 4.25747 4.99618
H 9.3358 5.38295 4.41028
H 12.0196 6.61889 5.06303
H 10.8861 6.19057 6.4025
H 10.3987 7.33376 5.08923
156
Atoms. Timestep: 339
Ni 3.37798 9.72963 8.54594
Ni 5.79857 3.37878 3.48244
O 1.91251 3.99137 4.08995
O 4.92342 8.79401 8.70916
O 4.26503 2.42561 3.64479
O 1.87881 10.7062 8.73078
O 5.38485 4.60696 4.75036
O 3.14155 8.82744 9.99766
O 0.773376 1.66279 5.12621
O 3.85658 11.141 9.56959
N 3.82103 10.7246 6.92156
N 0.97149 1.85656 2.36008
N 2.66088 8.20555 7.44188
N 5.19071 4.71843 2.01183
C 3.23346 0.265984 5.89627
C 1.2748 1.15315 0.000971684
H 2.70389 1.10736 6.3125
H 5.54342 0.101969 9.8321
C 4.49469 0.453138 5.32202
C 2.16463 0.076573 0.32994
C 5.46716 11.9993 5.65502
C 2.44819 12.4809 1.69644
H -0.129614 0.544562 7.71265
H 3.12514 11.7056 2.033
C 2.71988 6.80854 5.41478
C 4.40738 5.78957 10.1246
H 2.81478 6.85279 4.34396
H 11.8744 5.57218 9.7686
C 3.23329 7.88623 6.21987
C 5.02775 4.62588 0.599854
H 4.03553 8.4883 5.8258
H 1.05804 4.47239 1.20837
C 2.86529 11.4688 6.25287
C 0.507938 1.8598 1.03727
H 4.63264 1.28246 1.54552
C 5.13135 10.9364 6.55684
C 1.96191 0.927325 2.64745
H 5.90595 10.2874 6.93034
H 2.38079 0.910091 3.61843
C 1.7464 7.29696 7.95643
C 4.99603 6.01116 2.49385
H 4.6173 6.18344 3.46856
C 1.59505 5.99196 7.35004
C 5.17646 7.14954 1.68924
H 8.15484 4.6632 6.868
H 5.2361 8.12434 2.15922
C 1.95277 5.78514 6.00255
C 4.93941 7.05973 0.332055
C 4.90546 1.77942 4.67023
C 2.58058 11.5915 9.51367
C 1.34639 4.59348 5.17447
C 4.32916 8.30164 9.84214
Ni 8.9142 9.31537 9.04287
Ni 0.364014 3.0413 3.94055
O 7.2953 4.3562 3.66175
O 10.432 8.36973 9.3206
O 11.3934 2.07406 4.12962
O 7.32574 10.2694 9.1073
O 0.108864 4.09397 5.36922
O 8.73021 8.03707 0.0286733
O 6.13077 2.25488 4.79078
O 9.32709 10.4421 0.108807
N 9.77348 10.7548 7.78487
N 6.53047 1.97746 2.19411
N 8.37779 8.00217 7.50702
N 12.062 4.52809 2.72251
C 10.0412 11.9339 5.60353
C 6.21221 0.174793 0.531786
H 9.71269 11.973 4.57536
H 0.962001 1.46162 9.25087
C 11.1784 0.179655 6.00424
C 7.47255 12.119 0.752787
C 11.5135 0.0155996 7.3635
C 8.1808 0.153256 1.82527
H 6.46939 12.0774 5.26534
H 9.04129 12.152 2.21288
C 7.34947 7.51975 5.30513
C 11.8433 5.65879 0.529951
H 7.01111 7.89815 4.34922
H 4.01492 5.68387 9.11917
C 8.09746 8.39196 6.19769
C 0.103068 4.88432 1.50326
H 8.75828 9.06138 5.70457
C 9.23819 11.188 6.58231
C 5.68304 1.13239 1.49059
H 8.19565 11.0195 6.3768
C 10.8492 11.5406 8.25103
C 7.79789 1.43389 2.40632
C 8.11649 6.63717 7.76135
C 10.9154 5.2618 3.10184
C 8.03469 5.72258 6.67645
C 10.2699 6.22755 2.21408
H 0.99604 5.24185 7.85182
H 9.4206 6.79697 2.57505
C 7.32067 6.12555 5.5553
C 10.725 6.46837 0.917425
C 11.9837 1.2269 5.00337
C 7.87531 10.9357 10.1667
C 6.64767 5.08495 4.60528
C 9.79743 7.59659 10.2332
C 1.98228 10.7565 5.23027
C 0.721338 10.0904 5.76701
H 2.5872 10.0225 4.65923
H 1.63361 11.4772 4.46661
H 0.823855 8.99154 5.78251
H 12.3703 10.2984 5.09254
H 0.470025 10.4621 6.76722
C 11.5647 2.21452 0.723489
C 11.1141 2.78631 9.59581
H 10.9338 1.33785 0.796997
H 11.0908 2.85077 1.46978
H 12.0063 3.31957 9.20855
H 10.8409 1.98087 8.89461
H 10.2568 3.47766 9.61105
C 0.563108 7.82248 8.67789
C 0.728884 8.05145 10.1975
H 12.2144 7.16057 8.47015
H 0.29035 8.72674 8.13652
H 0.024344 8.06916 0.47323
H 1.61695 7.2877 0.38836
H 1.24836 9.08599 0.164249
C 5.02764 3.41221 10.0427
C 3.70799 2.70361 9.78106
H 6.16511 2.86878 0.00593442
H 5.33706 3.73555 9.02417
H 3.89162 1.69797 9.35748
H 3.09801 3.27369 9.04659
H 3.34785 2.65276 0.444011
C 11.6554 11.0946 9.46595
C 11.626 11.2086 0.709856
H 0.0265652 11.6653 9.3711
H 11.9392 10.0953 9.2886
H 10.8166 11.8818 0.966599
H 0.00325807 11.5436 1.27244
H 11.4234 10.2061 1.14544
C 8.83152 2.15256 3.20357
C 8.67481 2.04663 4.74645
H 9.73216 1.62964 2.89536
H 9.0182 3.17182 2.8272
H 8.14117 1.12228 5.03345
H 9.57329 2.06918 5.34975
H 8.22763 2.93866 5.19685
C 7.20131 6.23753 8.86147
C 7.82661 5.1614 9.75168
H 6.79927 7.103 9.37452
H 6.2901 5.8033 8.401
H 7.57636 4.1535 9.37259
H 8.92008 5.19866 9.7086
H 7.72243 5.27427 0.529727
C 10.4023 5.23622 4.49874
C 10.9628 6.40801 5.31707
H 10.44 4.25741 4.99614
H 9.33578 5.38297 4.41026
H 12.0196 6.61893 5.06309
H 10.8861 6.19055 6.40252
H 10.3987 7.33375 5.08927
156
Atoms. Timestep: 340
Ni 3.37798 9.72963 8.54594
Ni 5.79857 3.37878 3.48244
O 1.91251 3.99137 4.08995
O 4.92342 8.79401 8.70916
O 4.26503 2.42561 3.64479
O 1.87881 10.7062 8.73078
O 5.38485 4.60696 4.75036
O 3.14155 8.82744 9.99766
O 0.773376 1.66279 5.12621
O 3.85658 11.141 9.56959
N 3.82103 10.7246 6.92156
N 0.97149 1.85656 2.36008
N 2.66088 8.20555 7.44188
N 5.19071 4.71843 2.01183
C 3.23346 0.265984 5.89627
C 1.2748 1.15315 0.000971684
H 2.70389 1.10736 6.3125
H 5.54342 0.101969 9.8321
C 4.49469 0.453138 5.32202
C 2.16463 0.076573 0.32994
C 5.46716 11.9993 5.65502
C 2.44819 12.4809 1.69644
H -0.129614 0.544562 7.71265
H 3.12514 11.7056 2.033
C 2.71988 6.80854 5.41478
C 4.40738 5.78957 10.1246
H 2.81478 6.85279 4.34396
H 11.8744 5.57218 9.7686
C 3.23329 7.88623 6.21987
C 5.02775 4.62588 0.599854
H 4.03553 8.4883 5.8258
H 1.05804 4.47239 1.20837
C 2.86529 11.4688 6.25287
C 0.507938 1.8598 1.03727
H 4.63264 1.28246 1.54552
C 5.13135 10.9364 6.55684
C 1.96191 0.927325 2.64745
H 5.90595 10.2874 6.93034
H 2.38079 0.910091 3.61843
C 1.7464 7.29696 7.95643
C 4.99603 6.01116 2.49385
H 4.6173 6.18344 3.46856
C 1.59505 5.99196 7.35004
C 5.17646 7.14954 1.68924
H 8.15484 4.6632 6.868
H 5.2361 8.12434 2.15922
C 1.95277 5.78514 6.00255
C 4.93941 7.05973 0.332055
C 4.90546 1.77942 4.67023
C 2.58058 11.5915 9.51367
C 1.34639 4.59348 5.17447
C 4.32916 8.30164 9.84214
Ni 8.9142 9.31537 9.04287
Ni 0.364014 3.0413 3.94055
O 7.2953 4.3562 3.66175
O 10.432 8.36973 9.3206
O 11.3934 2.07406 4.12962
O 7.32574 10.2694 9.1073
O 0.108864 4.09397 5.36922
O 8.73021 8.03707 0.0286733
O 6.13077 2.25488 4.79078
O 9.32709 10.4421 0.108807
N 9.77348 10.7548 7.78487
N 6.53047 1.97746 2.19411
N 8.37779 8.00217 7.50702
N 12.062 4.52809 2.72251
C 10.0412 11.9339 5.60353
C 6.21221 0.174793 0.531786
H 9.71269 11.973 4.57536
H 0.962001 1.46162 9.25087
C 11.1784 0.179655 6.00424
C 7.47255 12.119 0.752787
C 11.5135 0.0155996 7.3635
C 8.1808 0.153256 1.82527
H 6.46939 12.0774 5.26534
H 9.04129 12.152 2.21288
C 7.34947 7.51975 5.30513
C 11.8433 5.65879 0.529951
H 7.01111 7.89815 4.34922
H 4.01492 5.68387 9.11917
C 8.09746 8.39196 6.19769
C 0.103068 4.88432 1.50326
H 8.75828 9.06138 5.70457
C 9.23819 11.188 6.58231
C 5.68304 1.13239 1.49059
H 8.19565 11.0195 6.3768
C 10.8492 11.5406 8.25103
C 7.79789 1.43389 2.40632
C 8.11649 6.63717 7.76135
C 10.9154 5.2618 3.10184
C 8.03469 5.72258 6.67645
C 10.2699 6.22755 2.21408
H 0.99604 5.24185 7.85182
H 9.4206 6.79697 2.57505
C 7.32067 6.12555 5.5553
C 10.725 6.46837 0.917425
C 11.9837 1.2269 5.00337
C 7.87531 10.9357 10.1667
C 6.64767 5.08495 4.60528
C 9.79743 7.59659 10.2332
C 1.98228 10.7565 5.23027
C 0.721338 10.0904 5.76701
H 2.5872 10.0225 4.65923
H 1.63361 11.4772 4.46661
H 0.823855 8.99154 5.78251
H 12.3703 10.2984 5.09254
H 0.470025 10.4621 6.76722
C 11.5647 2.21452 0.723489
C 11.1141 2.78631 9.59581
H 10.9338 1.33785 0.796997
H 11.0908 2.85077 1.46978
H 12.0063 3.31957 9.20855
H 10.8409 1.98087 8.89461
H 10.2568 3.47766 9.61105
C 0.563108 7.82248 8.67789
C 0.728884 8.05145 10.1975
H 12.2144 7.16057 8.47015
H 0.29035 8.72674 8.13652
H 0.024344 8.06916 0.47323
H 1.61695 7.2877 0.38836
H 1.24836 9.08599 0.164249
C 5.02764 3.41221 10.0427
C 3.70799 2.70361 9.78106
H 6.16511 2.86878 0.00593442
H 5.33706 3.73555 9.02417
H 3.89162 1.69797 9.35748
H 3.09801 3.27369 9.04659
H 3.34785 2.65276 0.444011
C 11.6554 11.0946 9.46595
C 11.626 11.2086 0.709856
H 0.0265652 11.6653 9.3711
H 11.9392 10.0953 9.2886
H 10.8166 11.8818 0.966599
H 0.00325807 11.5436 1.27244
H 11.4234 10.2061 1.14544
C 8.83152 2.15256 3.20357
C 8.67481 2.04663 4.74645
H 9.73216 1.62964 2.89536
H 9.0182 3.17182 2.8272
H 8.14117 1.12228 5.03345
H 9.57329 2.06918 5.34975
H 8.22763 2.93866 5.19685
C 7.20131 6.23753 8.86147
C 7.82661 5.1614 9.75168
H 6.79927 7.103 9.37452
H 6.2901 5.8033 8.401
H 7.57636 4.1535 9.37259
H 8.92008 5.19866 9.7086
H 7.72243 5.27427 0.529727
C 10.4023 5.23622 4.49874
C 10.9628 6.40801 5.31707
H 10.44 4.25741 4.99614
H 9.33578 5.38297 4.41026
H 12.0196 6.61893 5.06309
H 10.8861 6.19055 6.40252
H 10.3987 7.33375 5.08927
