ITEM: TIMESTEP
0
ITEM: NUMBER OF ATOMS
156
ITEM: BOX BOUNDS xy xz yz pp pp pp
-2.5509391142651533e-01 1.3654859150727800e+01 0.0000000000000000e+00
0.0000000000000000e+00 9.8776025079536893e+00 -2.5509391142651533e-01
0.0000000000000000e+00 1.1515707871021700e+01 0.0000000000000000e+00
ITEM: ATOMS id type x y z
1 1 2.73398 8.86079 9.1779
2 1 6.24179 3.64912 3.24826
3 2 0.961533 4.74007 3.74792
4 2 4.12723 7.77138 9.29719
5 2 4.75584 2.68831 3.4362
6 2 1.33153 0.0450734 9.39478
7 2 5.81657 4.82892 4.43931
8 2 2.20461 7.6564 10.3735
9 2 -0.0218607 2.6243 4.92317
10 2 3.23917 0.02107 10.5194
11 3 3.53452 0.183856 7.87075
12 3 0.40156 2.46508 2.36951
13 3 1.97736 7.8325 7.73287
14 3 5.51154 4.80107 1.92547
15 4 3.37604 1.63619 5.92021
16 4 0.182593 1.24927 0.343273
17 5 2.77606 2.28799 5.30229
18 4 4.74094 1.42869 5.6193
19 4 1.59367 1.22791 0.142596
20 4 5.48219 0.615627 6.48061
21 4 2.38248 1.75737 1.18061
22 5 3.45065 1.624 1.17305
23 4 2.02145 7.05826 5.4282
24 4 5.5198 6.13536 11.504
25 4 2.65876 7.64223 6.55547
26 4 6.28745 5.60196 1.17241
27 5 3.68294 7.94806 6.46939
28 5 0.691451 4.69012 1.0119
29 4 2.78124 0.986467 7.04261
30 4 13.3355 1.62943 1.59149
31 5 1.71969 1.09543 7.21185
32 5 5.31294 2.66599 0.626556
33 4 4.85676 9.85964 7.56314
34 4 1.7634 2.41207 2.27352
35 5 5.43946 9.17657 8.14231
36 5 2.36297 2.81456 3.0639
37 4 0.648205 7.52815 7.7613
38 4 4.15436 5.00059 1.89279
39 5 0.00696502 7.99378 8.48866
40 5 3.54485 4.66123 2.71044
41 4 0.0937513 6.66067 6.80602
42 4 3.56717 5.79914 0.892608
43 5 2.51779 6.04518 0.95099
44 4 0.774867 6.41325 5.61288
45 4 4.10311 6.31958 11.3783
46 4 5.42131 2.06964 4.42802
47 4 2.01163 0.58075 10.439
48 4 0.198843 5.45513 4.6005
49 4 3.43548 7.10428 10.2419
50 1 9.61627 8.4278 9.0639
51 1 13.2125 3.68748 3.57757
52 2 7.73735 4.59965 3.37165
53 2 11.1313 7.49974 9.27041
54 2 11.7821 2.66614 3.67954
55 2 8.09325 9.37595 9.19853
56 2 12.6224 4.9053 4.72327
57 2 9.21311 7.30595 10.3503
58 2 6.68285 2.54007 4.50537
59 2 9.97554 9.64166 10.3171
60 3 10.3235 9.60073 7.65545
61 3 6.93864 2.42886 1.92138
62 3 8.95878 7.16902 7.7283
63 3 12.5519 4.73903 2.11597
64 4 10.7484 0.286901 5.32272
65 4 6.68184 1.62219 11.1535
66 5 10.52 0.134574 4.27471
67 4 11.6975 1.24116 5.7081
68 4 7.93114 0.939037 11.3394
69 4 11.8674 1.47152 7.0706
70 4 8.7463 1.00444 1.11389
71 5 9.65435 0.459364 1.33891
72 4 9.17525 6.10988 5.56117
73 4 12.4829 5.57954 11.3638
74 5 9.78001 5.95119 4.68628
75 4 9.76131 6.65181 6.73917
76 4 13.316 4.99967 1.01605
77 5 10.8096 6.87674 6.74062
78 5 7.32665 5.7349 1.41301
79 4 10.0105 9.47149 6.31274
80 4 6.29666 2.25349 0.741084
81 5 9.16887 8.90124 5.9924
82 5 12.3383 1.33992 1.87651
83 4 11.4285 0.461917 7.95421
84 4 8.15185 1.81103 2.12186
85 5 12.1685 9.87166 8.56147
86 5 8.67152 1.94289 3.06116
87 4 7.61026 6.91367 7.66376
88 4 11.2551 5.17137 2.15203
89 5 6.92925 7.5269 8.20831
90 5 10.6206 4.87839 2.97028
91 4 7.09256 5.99376 6.73163
92 4 10.7231 5.96864 1.12374
93 5 12.8108 6.1751 7.005
94 5 9.74355 6.40965 1.25208
95 4 7.79789 5.81793 5.54549
96 4 11.1723 6.14407 11.4387
97 4 12.4197 2.06106 4.69514
98 4 8.699 0.206756 10.1861
99 4 7.08694 5.28149 4.33594
100 4 10.4778 6.84351 10.26
101 6 6.95203 0.378492 6.25135
102 6 7.82885 1.54224 6.7456
103 5 7.15302 0.157587 5.18047
104 5 7.24048 9.34519 6.78908
105 5 7.23928 2.38405 7.09591
106 5 8.5248 1.89183 5.95625
107 5 8.4239 1.26685 7.62072
108 6 12.6268 1.14101 10.7392
109 6 11.4445 2.12789 10.8505
110 5 12.2856 0.0895505 10.7292
111 5 13.1599 1.39912 9.8186
112 5 11.0718 1.94682 0.220063
113 5 10.7825 2.05822 9.97696
114 5 11.8078 3.16064 10.8916
115 6 2.60964 7.27328 4.04551
116 6 2.76988 8.7547 3.71079
117 5 1.9769 6.84406 3.24712
118 5 3.60529 6.78633 3.99834
119 5 1.84068 9.31829 3.94468
120 5 2.99154 8.87084 2.62833
121 5 3.61994 9.17877 4.27843
122 6 6.4402 6.23203 10.3566
123 6 7.54247 5.12903 10.3517
124 5 5.83955 6.11606 9.46148
125 5 6.86763 7.24898 10.3923
126 5 7.11985 4.12554 10.4447
127 5 8.14556 5.1338 9.42745
128 5 8.25096 5.23038 11.1874
129 6 12.0084 2.89684 7.56502
130 6 10.66 3.60732 7.57775
131 5 12.7113 3.48705 6.95164
132 5 12.447 2.94177 8.56312
133 5 9.89978 3.02948 8.13738
134 5 10.3029 3.75617 6.53818
135 5 10.7686 4.58638 8.08051
136 6 5.94604 1.52766 9.86651
137 6 4.85096 2.58571 9.60363
138 5 6.66827 1.59713 9.05314
139 5 5.49849 0.527917 9.90605
140 5 5.14271 3.60286 9.9015
141 5 4.60824 2.6172 8.52608
142 5 3.92615 2.36322 10.1585
143 6 6.10741 4.91597 7.1705
144 6 4.64107 5.28443 7.03896
145 5 6.22632 4.0349 6.54162
146 5 6.33988 4.50811 8.15676
147 5 4.2847 5.83301 7.91663
148 5 4.48782 5.87536 6.12354
149 5 4.02112 4.36744 6.95579
150 6 13.2726 5.63377 10.0875
151 6 0.721084 4.5832 9.90955
152 5 12.5928 5.52353 9.22433
153 5 0.0764909 6.62458 10.0988
154 5 0.369976 3.5792 10.1982
155 5 1.0376 4.55056 8.84547
156 5 1.61121 4.83127 10.5127
