ITEM: TIMESTEP
0
ITEM: NUMBER OF ATOMS
156
ITEM: BOX BOUNDS xy xz yz pp pp pp
-2.2759399999999999e-01 1.2505599999999999e+01 0.0000000000000000e+00
0.0000000000000000e+00 1.2523400000000001e+01 -2.2759399999999999e-01
0.0000000000000000e+00 1.0274279000000000e+01 0.0000000000000000e+00
ITEM: ATOMS id type x y z
1 1 3.14374 9.45265 9.01916
2 1 6.4562 2.81566 3.5298
3 2 1.5719 4.58909 3.62542
4 2 4.62565 8.49401 9.26701
5 2 4.91 1.8817 3.7306
6 2 1.62345 10.4367 9.15792
7 2 6.08926 3.96245 4.76959
8 2 2.90057 8.22366 0.00988642
9 2 0.297207 2.4615 4.62081
10 2 3.70196 10.6751 0.0681662
11 3 3.92916 10.7119 7.62615
12 3 0.854026 2.32336 2.0625
13 3 2.51678 8.20176 7.57749
14 3 5.7991 4.15953 2.17636
15 4 4.24361 11.5434 5.30987
16 4 0.519799 0.546769 0.387034
17 5 4.03934 11.4132 4.2552
18 4 4.90693 0.183534 5.74798
19 4 1.81909 12.4626 0.645765
20 4 5.08106 0.308382 7.15887
21 4 2.5566 0.56473 1.67758
22 5 3.51381 0.152111 1.96897
23 4 2.84501 6.85523 5.5182
24 4 6.14188 6.30921 1.05851
25 4 3.3561 7.6548 6.62513
26 4 6.54175 5.29789 1.96681
27 5 4.39258 7.95511 6.61541
28 5 0.815043 4.28911 0.330385
29 4 3.71019 10.5921 6.25187
30 4 0.113343 1.76603 1.07011
31 5 2.94427 9.93953 5.88292
32 5 6.8302 12.2899 3.23174
33 4 4.79355 11.7067 8.01896
34 4 2.02049 1.6795 2.42331
35 5 5.21333 11.6776 9.01069
36 5 2.52104 1.98699 3.32629
37 4 1.18124 7.9285 7.4731
38 4 4.48976 4.19302 1.73148
39 5 0.530102 8.28479 8.24189
40 5 3.85776 3.3501 1.90279
41 4 0.644636 7.15491 6.38527
42 4 3.93722 5.3638 1.05875
43 5 2.89184 5.37668 0.791209
44 4 1.47797 6.43529 5.51584
45 4 4.76146 6.47169 0.710818
46 4 5.55546 1.19654 4.7312
47 4 2.2109 11.163 10.1564
48 4 0.869062 5.33286 4.52747
49 4 3.95393 7.761 10.2059
50 1 9.24309 9.57225 8.06639
51 1 0.0509964 3.63546 3.33228
52 2 8.02915 3.74121 3.72507
53 2 10.7746 8.61478 8.22389
54 2 10.988 2.66761 3.37198
55 2 7.70878 10.5363 8.26601
56 2 12.0892 4.87019 4.57414
57 2 8.90915 8.41741 9.37985
58 2 6.83704 1.60968 4.80445
59 2 9.64694 10.7731 9.30255
60 3 9.9121 10.8454 6.60636
61 3 7.07973 1.54267 2.0842
62 3 8.53025 8.24478 6.74159
63 3 12.0004 4.91786 1.87976
64 4 9.5983 0.221868 5.01826
65 4 7.41576 11.7559 1.22167
66 5 8.95486 0.714765 4.31471
67 4 10.9589 0.627967 5.09288
68 4 7.96607 12.23 0.00152749
69 4 11.7864 12.3435 5.89805
70 4 7.82621 1.11482 10.1365
71 5 8.21775 1.53292 9.22199
72 4 9.07136 6.3513 5.27038
73 4 11.6981 5.82248 9.86057
74 5 9.88367 5.73357 4.9684
75 4 9.36444 7.6493 5.82459
76 4 0.0228624 4.96827 0.608115
77 5 10.2959 8.13055 5.57324
78 5 7.56557 5.33413 2.28047
79 4 9.07609 11.6418 5.83362
80 4 7.04843 0.165398 2.26617
81 5 8.01475 11.4336 5.81292
82 5 11.6329 2.16608 0.907983
83 4 11.2692 11.1257 6.53767
84 4 7.62001 2.00969 0.906819
85 5 11.9436 10.4857 7.07668
86 5 7.75391 3.06791 0.770605
87 4 7.29485 7.6412 6.96687
88 4 11.0119 5.83276 2.17261
89 5 6.58136 8.14986 7.58973
90 5 10.3608 5.64638 2.98781
91 4 6.9699 6.32674 6.41261
92 4 10.7345 6.954 1.33148
93 5 12.0916 7.10525 6.24469
94 5 10.0916 7.74157 1.70107
95 4 7.80476 5.75732 5.42969
96 4 10.8697 6.93457 10.2497
97 4 11.5503 1.96312 4.39538
98 4 8.38733 11.2543 9.21056
99 4 7.3523 4.42942 4.69789
100 4 10.1637 7.92816 9.22597
101 6 5.31583 1.67193 7.76985
102 6 4.56093 1.87644 9.09311
103 5 4.95368 2.45625 7.0728
104 5 6.4006 1.82954 7.90864
105 5 3.46561 1.7861 8.93312
106 5 4.77315 2.87546 9.50149
107 5 4.87897 1.15862 9.87423
108 6 11.7116 12.3465 9.94296
109 6 11.0175 0.756942 8.93179
110 5 11.2115 12.0554 0.455225
111 5 12.0421 11.4258 9.4411
112 5 10.4302 1.53672 9.43628
113 5 10.3025 0.254758 8.27655
114 5 11.7503 1.23617 8.27349
115 6 3.61593 6.87627 4.22616
116 6 2.98245 7.86063 3.23876
117 5 3.66952 5.86068 3.79641
118 5 4.66878 7.18798 4.4053
119 5 2.22392 7.34203 2.6149
120 5 3.76558 8.2861 2.58549
121 5 2.49531 8.71452 3.75682
122 6 7.25242 6.89056 0.257711
123 6 7.84244 5.75918 9.84477
124 5 6.70232 7.65067 9.82013
125 5 7.91026 7.41823 0.975639
126 5 7.24598 4.86465 9.61003
127 5 8.30092 6.0796 8.89598
128 5 8.86386 5.39086 0.24515
129 6 0.691463 0.311717 6.11824
130 6 1.4536 12.2384 7.20397
131 5 0.648141 1.35939 6.47532
132 5 1.27536 0.219356 5.17473
133 5 1.01825 12.5082 8.1581
134 5 2.44474 0.189733 7.21282
135 5 1.46254 11.1596 7.02229
136 6 7.32528 10.2587 1.46382
137 6 6.35166 9.8244 2.56481
138 5 6.98072 9.77525 0.527719
139 5 8.33768 9.87058 1.7049
140 5 6.75436 10.0714 3.56976
141 5 5.35968 10.3022 2.4205
142 5 6.21906 8.72489 2.53144
143 6 5.78776 5.45786 6.88658
144 6 5.06748 5.65875 8.16803
145 5 5.01459 5.46494 6.10265
146 5 6.18662 4.42917 7.01338
147 5 5.42152 6.57768 8.53735
148 5 3.96611 5.64461 8.04695
149 5 5.27588 4.85987 8.89017
150 6 11.7328 5.366 8.43152
151 6 11.1887 3.96787 8.26837
152 5 11.1111 6.0103 7.78842
153 5 0.284589 5.34408 8.10501
154 5 10.1666 3.88497 8.69585
155 5 11.1608 3.69395 7.19184
156 5 11.8857 3.29004 8.78755
