Created on Tue Aug 25 11:51:04 2020 

         204 atoms
         207 bonds
         401 angles
         466 dihedrals
         168 impropers

           9 atom types
          12 bond types
          24 angle types
           5 dihedral types
           1 improper types
           0.000000  12.505600 xlo xhi
           0.000000  12.523400 ylo yhi
           0.000000  10.274279 zlo zhi
           0.000000  -0.227594   0.000000 xy xz yz

Masses

    1    58.693400000 # Ni4+2
    2    15.999400000 # O_R
    3    14.006700000 # N_R
    4    12.010700000 # C_R
    5     1.007940000 # H_
    6    12.010700000 # C_3
    7    12.010700000 # C_2
    8    12.010700000 # C_1
    9     1.007940000 # H_

Bond Coeffs

    1      321.720028        1.793457  # Ni4+2 O_R
    2      328.673665        1.841585  # Ni4+2 N_R
    3      646.680887        1.311940  # O_R C_R
    4      663.718927        1.345073  # N_R C_R
    5      462.655054        1.379256  # C_R C_R
    6      357.440381        1.081418  # C_R H_
    7      391.669513        1.458000  # C_R C_R
    8      369.943935        1.486000  # C_R C_3
    9      389.261715        1.461000  # C_R C_2
   10      349.795899        1.514000  # C_3 C_3
   11      331.069389        1.109401  # C_3 H_
   12      367.712375        1.489000  # C_2 C_3

Angle Coeffs

    1              cosine/periodic      322.980216               1               4 # O_R Ni4+2 O_R
    2              cosine/periodic      343.030950               1               4 # O_R Ni4+2 N_R
    3              cosine/periodic      364.965660               1               4 # N_R Ni4+2 N_R
    4              cosine/periodic      238.346347              -1               3 # C_R O_R Ni4+2
    5              cosine/periodic      177.809033              -1               3 # Ni4+2 N_R C_R
    6              cosine/periodic      240.001032              -1               3 # C_R N_R C_R
    7              cosine/periodic      114.578032              -1               3 # C_R C_R H_
    8              cosine/periodic      222.595017              -1               3 # C_R C_R C_R
    9              cosine/periodic      204.366560              -1               3 # C_R C_R C_R
   10              cosine/periodic      307.398705              -1               3 # N_R C_R C_R
   11              cosine/periodic      159.573934              -1               3 # N_R C_R H_
   12              cosine/periodic      198.274298              -1               3 # C_R C_R C_3
   13              cosine/periodic      273.097456              -1               3 # N_R C_R C_3
   14              cosine/periodic      263.511421              -1               3 # O_R C_R C_R
   15              cosine/periodic      374.272657              -1               3 # O_R C_R O_R
   16              cosine/periodic      280.743239              -1               3 # N_R C_R C_2
   17              cosine/periodic      203.704287              -1               3 # C_2 C_R C_R
   18                      fourier      220.229931        0.343737        0.374972        0.281246 # C_R C_3 C_3
   19                      fourier      214.211821        0.343737        0.374972        0.281246 # C_3 C_3 C_3
   20                      fourier      117.318683        0.343737        0.374972        0.281246 # C_3 C_3 H_
   21                      fourier       75.498766        0.343737        0.374972        0.281246 # H_ C_3 H_
   22              cosine/periodic      181.979950              -1               3 # C_R C_2 C_3
   23              cosine/periodic      176.915699              -1               3 # C_3 C_2 C_3
   24                      fourier      121.290688        0.343737        0.374972        0.281246 # C_2 C_3 H_

Dihedral Coeffs

    1        2.245703              -1               2 # Ni4+2 O_R C_R C_R
    2        1.497136              -1               2 # Ni4+2 N_R C_R C_R
    3        0.555556              -1               2 # C_R C_R C_R O_R
    4        0.083333               1               3 # C_R C_R C_3 C_3
    5        0.066219               1               3 # C_R C_3 C_3 H_

Improper Coeffs

    1        2.000000        1.000000       -1.000000        0.000000               0 # Ni4+2 N_R C_R C_R

Pair Coeffs

    1        0.015000        2.524807 # Ni4+2 Ni4+2
    2        0.060000        3.118146 # O_R O_R
    3        0.069000        3.260689 # N_R N_R
    4        0.105000        3.430851 # C_R C_R
    5        0.044000        2.571134 # H_ H_
    6        0.105000        3.430851 # C_3 C_3
    7        0.105000        3.430851 # C_2 C_2
    8        0.105000        3.430851 # C_1 C_1
    9        0.044000        2.571134 # H_ H_

Atoms

       1      444        1     0.00000    2.89857    9.41116    8.59265
       2      444        1     0.00000    6.17525    3.10579    3.48481
       3      444        2     0.00000    1.44827    4.35425    3.93374
       4      444        2     0.00000    4.44160    8.15245    9.05464
       5      444        2     0.00000    4.63665    1.84729    3.87523
       6      444        2     0.00000    1.36499   10.67435    9.00295
       7      444        2     0.00000    5.80609    4.46033    4.96242
       8      444        2     0.00000    2.54244    8.03270   10.06753
       9      444        2     0.00000    0.25117    1.69264    4.94273
      10      444        2     0.00000    3.23722   10.80466   10.06262
      11      444        3     0.00000    3.69677   10.66058    7.24160
      12      444        3     0.00000    0.71256    1.86420    2.11704
      13      444        3     0.00000    2.17217    8.14409    7.25198
      14      444        3     0.00000    5.44023    4.39481    2.13747
      15      444        4     0.00000    3.48546   12.14832    5.36301
      16      444        4     0.00000    0.47488    0.38955    0.22920
      17      444        5     0.00000    2.86453   12.51808    4.55267
      18      444        5     0.00000    5.86971    0.03371    9.69377
      19      444        4     0.00000    4.76073    0.14740    5.61481
      20      444        4     0.00000    1.74333   12.36991    0.47412
      21      444        4     0.00000    5.50345   12.15023    6.68209
      22      444        4     0.00000    2.49852    0.35508    1.54004
      23      444        5     0.00000    0.24768   12.50843    6.91993
      24      444        5     0.00000    3.49155   12.50668    1.77336
      25      444        4     0.00000    2.48363    6.63370    5.40822
      26      444        4     0.00000    5.72803    5.90364    0.28669
      27      444        5     0.00000    3.13294    6.27291    4.61605
      28      444        5     0.00000   -0.10828    6.26667    9.76620
      29      444        4     0.00000    2.92756    7.68099    6.23068
      30      444        4     0.00000    6.18830    4.86756    1.11596
      31      444        5     0.00000    3.89994    8.14655    6.08890
      32      444        4     0.00000    2.98256   11.13588    6.19748
      33      444        4     0.00000   -0.01036    1.40553    1.07106
      34      444        5     0.00000    1.99392   10.70905    6.04703
      35      444        4     0.00000    4.93641   11.13810    7.47507
      36      444        4     0.00000    1.94823    1.37190    2.34060
      37      444        4     0.00000    0.94573    7.62654    7.47302
      38      444        4     0.00000    4.21083    4.90458    2.35686
      39      444        4     0.00000    0.43859    6.57577    6.69176
      40      444        4     0.00000    3.68763    5.94500    1.56944
      41      444        5     0.00000    5.70774    6.17693    6.91975
      42      444        5     0.00000    2.69824    6.32683    1.80071
      43      444        4     0.00000    1.22745    6.06471    5.65205
      44      444        4     0.00000    4.46338    6.45777    0.52027
      45      444        4     0.00000    5.31260    1.24381    4.79419
      46      444        4     0.00000    2.05020   11.26755    9.92158
      47      444        4     0.00000    0.73548    4.94016    4.83586
      48      444        4     0.00000    3.73174    7.56629    9.95688
      49      444        1     0.00000    9.15137    9.41116    8.59265
      50      444        1     0.00000   12.42805    3.10579    3.48481
      51      444        2     0.00000    7.70109    4.35425    3.93374
      52      444        2     0.00000   10.69440    8.15245    9.05464
      53      444        2     0.00000   10.88945    1.84729    3.87523
      54      444        2     0.00000    7.61779   10.67435    9.00295
      55      444        2     0.00000   12.05889    4.46033    4.96242
      56      444        2     0.00000    8.79524    8.03270   10.06753
      57      444        2     0.00000    6.50397    1.69264    4.94273
      58      444        2     0.00000    9.49002   10.80466   10.06262
      59      444        3     0.00000    9.94957   10.66058    7.24160
      60      444        3     0.00000    6.96536    1.86420    2.11704
      61      444        3     0.00000    8.42499    8.14409    7.25198
      62      444        3     0.00000   11.69303    4.39481    2.13747
      63      444        4     0.00000    9.73826   12.14832    5.36301
      64      444        4     0.00000    6.72768    0.38955    0.22920
      65      444        5     0.00000    9.11733   12.51808    4.55267
      66      444        5     0.00000   12.12251    0.03371    9.69377
      67      444        4     0.00000   11.01353    0.14740    5.61481
      68      444        4     0.00000    7.99613   12.36991    0.47412
      69      444        4     0.00000   11.75625   12.15023    6.68209
      70      444        4     0.00000    8.75132    0.35508    1.54004
      71      444        5     0.00000    6.50047   12.50843    6.91993
      72      444        5     0.00000    9.74435   12.50668    1.77336
      73      444        4     0.00000    8.73644    6.63370    5.40822
      74      444        4     0.00000   11.98084    5.90364    0.28669
      75      444        5     0.00000    9.38574    6.27291    4.61605
      76      444        5     0.00000    6.14452    6.26667    9.76620
      77      444        4     0.00000    9.18036    7.68099    6.23068
      78      444        4     0.00000   12.44110    4.86756    1.11596
      79      444        5     0.00000   10.15274    8.14655    6.08890
      80      444        5     0.00000    7.16869    4.41889    0.97634
      81      444        4     0.00000    9.23536   11.13588    6.19748
      82      444        4     0.00000    6.24244    1.40553    1.07106
      83      444        5     0.00000    8.24672   10.70905    6.04703
      84      444        5     0.00000   11.51373    1.85011    0.92351
      85      444        4     0.00000   11.18921   11.13810    7.47507
      86      444        4     0.00000    8.20102    1.37190    2.34060
      87      444        5     0.00000    8.76167    1.79214    3.17267
      88      444        4     0.00000    7.19853    7.62654    7.47302
      89      444        4     0.00000   10.46363    4.90458    2.35686
      90      444        5     0.00000    9.88885    4.47744    3.17528
      91      444        4     0.00000    6.69139    6.57577    6.69176
      92      444        4     0.00000    9.94043    5.94500    1.56944
      93      444        5     0.00000   11.96054    6.17693    6.91975
      94      444        5     0.00000    8.95104    6.32683    1.80071
      95      444        4     0.00000    7.48025    6.06471    5.65205
      96      444        4     0.00000   10.71618    6.45777    0.52027
      97      444        4     0.00000   11.56540    1.24381    4.79419
      98      444        4     0.00000    8.30300   11.26755    9.92158
      99      444        4     0.00000    6.98827    4.94016    4.83586
     100      444        4     0.00000    9.98454    7.56629    9.95688
     101      444        6     0.00000    5.73201   10.47081    8.72882
     102      444        6     0.00000    4.90815    9.36840    9.46373
     103      444        5     0.00000    4.66062    8.52277    8.78519
     104      444        5     0.00000    5.71149    8.93710    0.03827
     105      444        5     0.00000    3.96807    9.77898    9.89321
     106      444        6     0.00000    6.00983   11.52952    9.82854
     107      444        5     0.00000    5.04599   11.93073   10.21101
     108      444        5     0.00000    6.78025   11.07167    0.40969
     109      444        5     0.00000    6.58293   12.41167    9.52916
     110      444        6     0.00000    7.00311    9.72779    8.23930
     111      444        5     0.00000    6.71180    8.90906    7.54573
     112      444        5     0.00000    7.73622   10.31969    7.68391
     113      444        5     0.00000    7.54458    9.27243    9.09691
     114      444        6     0.00000    2.76027    2.02576    3.59055
     115      444        6     0.00000    1.95427    3.13525    4.33456
     116      444        5     0.00000    1.71179    3.98578    3.66035
     117      444        5     0.00000    2.54082    3.55725    5.18066
     118      444        5     0.00000    1.01254    2.73415    4.76932
     119      444        6     0.00000    3.03351    0.96048    4.68507
     120      444        5     0.00000    2.06779    0.56918    5.07302
     121      444        5     0.00000    3.58749    1.40937    5.53809
     122      444        5     0.00000    3.59432    0.07276    4.37901
     123      444        6     0.00000    4.03641    2.75566    3.09447
     124      444        5     0.00000    3.74976    3.57985    2.40546
     125      444        5     0.00000    4.75879    2.15712    2.53217
     126      444        5     0.00000    4.58904    3.20210    3.94967
     127      444        6     0.00000    0.09925    8.29166    8.69178
     128      444        6     0.00000    0.86420    9.44192    9.41699
     129      444        5     0.00000    1.09441   10.28027    8.72349
     130      444        5     0.00000    0.25386    9.87056   10.24267
     131      444        5     0.00000    1.80945    9.07802    9.87617
     132      444        6     0.00000   -0.16243    7.24917    9.81079
     133      444        5     0.00000    0.80725    6.89444   10.22326
     134      444        5     0.00000   11.99214    7.70575    0.36884
     135      444        5     0.00000   11.81075    6.33883    9.52086
     136      444        6     0.00000   11.31761    8.97350    8.15749
     137      444        5     0.00000   11.59290    9.78632    7.45055
     138      444        5     0.00000   10.61999    8.34095    7.60123
     139      444        5     0.00000   10.74038    9.42772    8.99209
     140      444        6     0.00000    3.37389    4.24229    3.58574
     141      444        6     0.00000    4.15214    3.10531    4.31771
     142      444        5     0.00000    5.09585    3.48172    4.76993
     143      444        5     0.00000    3.54899    2.67833    5.14952
     144      444        5     0.00000    4.38720    2.26313    3.63053
     145      444        6     0.00000    2.09078    3.54420    3.06257
     146      444        5     0.00000    2.37062    2.72782    2.36154
     147      444        5     0.00000    1.52104    3.09201    3.90338
     148      444        5     0.00000    1.38522    4.16558    2.50372
     149      444        6     0.00000    3.10720    5.29201    4.69675
     150      444        5     0.00000    4.07524    5.65905    5.10222
     151      444        5     0.00000    2.56537    6.19495    4.40115
     152      444        5     0.00000    2.53605    4.83744    5.53533
     153      444        6     0.00000   11.98481   10.47081    8.72882
     154      444        6     0.00000   11.16095    9.36840    9.46373
     155      444        5     0.00000   10.91342    8.52277    8.78519
     156      444        5     0.00000   11.96429    8.93710    0.03827
     157      444        5     0.00000   10.22087    9.77898    9.89321
     158      444        6     0.00000   12.26263   11.52952    9.82854
     159      444        5     0.00000   11.29879   11.93073   10.21101
     160      444        5     0.00000    0.52745   11.07167    0.40969
     161      444        5     0.00000    0.33013   12.41167    9.52916
     162      444        6     0.00000    0.75031    9.72779    8.23930
     163      444        5     0.00000    0.45900    8.90906    7.54573
     164      444        5     0.00000    1.48342   10.31969    7.68391
     165      444        5     0.00000    1.29178    9.27243    9.09691
     166      444        6     0.00000    4.78841    2.09782    0.85059
     167      444        6     0.00000    4.46423    3.19965    1.90655
     168      444        5     0.00000    5.19900    4.03346    1.86579
     169      444        5     0.00000    3.46300    3.64868    1.72245
     170      444        5     0.00000    4.44133    2.78340    2.93755
     171      444        6     0.00000    3.65225    1.05674    1.03143
     172      444        5     0.00000    3.68209    0.64898    2.06539
     173      444        5     0.00000    2.65861    1.53200    0.88029
     174      444        5     0.00000    3.68184    0.17774    0.38125
     175      444        6     0.00000    4.51139    2.84965    9.76851
     176      444        5     0.00000    5.27703    3.65586    9.76165
     177      444        5     0.00000    4.71603    2.25947    8.87070
     178      444        5     0.00000    3.51626    3.32246    9.61947
     179      444        7     0.00000    6.35207    8.29167    8.69178
     180      444        6     0.00000    7.11701    9.44193    9.41698
     181      444        5     0.00000    7.34722   10.28028    8.72348
     182      444        5     0.00000    6.50666    9.87057   10.24266
     183      444        5     0.00000    8.06226    9.07802    9.87617
     184      444        6     0.00000    6.09037    7.24918    9.81079
     185      444        5     0.00000    7.06005    6.89446   10.22326
     186      444        5     0.00000    5.73934    7.70576    0.36884
     187      444        5     0.00000    5.55794    6.33884    9.52086
     188        1        8     0.00000    5.06482    8.97352    8.15748
     189        2        9     0.00000    5.34011    9.78634    7.45054
     190        3        9     0.00000    4.36719    8.34096    7.60122
     191        4        9     0.00000    4.48760    9.42773    8.99208
     192        5        8     0.00000    1.38750    4.16707    0.91081
     193        6        8     0.00000    1.68120    3.04140    1.95042
     194        7        9     0.00000    0.94049    2.21503    1.87810
     195        8        9     0.00000    2.68216    2.58743    1.77723
     196        9        9     0.00000    1.68684    3.43658    2.98992
     197       10        8     0.00000    2.52844    5.19433    1.13539
     198       11        9     0.00000    2.48122    5.58143    2.17662
     199       12        9     0.00000    3.52093    4.71354    0.99446
     200       13        9     0.00000    2.51926    6.08647    0.50274
     201       14        8     0.00000    1.23034    3.44232    9.81499
     202       15        9     0.00000    0.45830    2.64314    9.77650
     203       16        9     0.00000    1.04871    4.05223    8.92546
     204       17        9     0.00000    2.22430    2.96394    9.67624

Bonds

       1        1        1        4
       2        1        1        6
       3        1        1        8
       4        1        1       10
       5        2        1       11
       6        2        1       13
       7        1        2        5
       8        1        2        7
       9        2        2       14
      10        1        2       51
      11        1        2       57
      12        2        2       60
      13        3        3       47
      14        1        3       50
      15        3        4       48
      16        3        5       45
      17        3        6       46
      18        3        7       99
      19        3        8       48
      20        1        9       50
      21        3        9       97
      22        3       10       46
      23        4       11       32
      24        4       11       35
      25        4       12       33
      26        4       12       36
      27        2       12       50
      28        4       13       29
      29        4       13       37
      30        4       14       30
      31        4       14       38
      32        6       15       17
      33        5       15       19
      34        5       15       32
      35        5       16       20
      36        5       16       33
      37        6       16       66
      38        6       18       64
      39        5       19       21
      40        7       19       45
      41        5       20       22
      42        7       20       46
      43        5       21       35
      44        6       21       71
      45        6       22       24
      46        5       22       36
      47        6       23       69
      48        6       25       27
      49        5       25       29
      50        5       25       43
      51        5       26       30
      52        5       26       44
      53        6       26       76
      54        6       28       74
      55        6       29       31
      56        6       30       80
      57        6       32       34
      58        6       33       84
      59        8       35      101
      60        8       36      114
      61        5       37       39
      62        8       37      127
      63        5       38       40
      64        8       38      140
      65        5       39       43
      66        6       39       93
      67        6       40       42
      68        5       40       44
      69        6       41       91
      70        7       43       47
      71        7       44       48
      72        3       45       57
      73        3       47       55
      74        1       49       52
      75        1       49       54
      76        1       49       56
      77        1       49       58
      78        2       49       59
      79        2       49       61
      80        1       50       53
      81        1       50       55
      82        2       50       62
      83        3       51       99
      84        3       52      100
      85        3       53       97
      86        3       54       98
      87        3       56      100
      88        3       58       98
      89        4       59       81
      90        4       59       85
      91        4       60       82
      92        4       60       86
      93        4       61       77
      94        4       61       88
      95        4       62       78
      96        4       62       89
      97        6       63       65
      98        5       63       67
      99        5       63       81
     100        5       64       68
     101        5       64       82
     102        5       67       69
     103        7       67       97
     104        5       68       70
     105        7       68       98
     106        5       69       85
     107        6       70       72
     108        5       70       86
     109        6       73       75
     110        5       73       77
     111        5       73       95
     112        5       74       78
     113        5       74       96
     114        6       77       79
     115        6       81       83
     116        8       82      166
     117        8       85      153
     118        6       86       87
     119        5       88       91
     120        9       88      179
     121        6       89       90
     122        5       89       92
     123        5       91       95
     124        6       92       94
     125        5       92       96
     126        7       95       99
     127        7       96      100
     128       10      101      102
     129       10      101      106
     130       10      101      110
     131       11      102      103
     132       11      102      104
     133       11      102      105
     134       11      106      107
     135       11      106      108
     136       11      106      109
     137       11      110      111
     138       11      110      112
     139       11      110      113
     140       10      114      115
     141       10      114      119
     142       10      114      123
     143       11      115      116
     144       11      115      117
     145       11      115      118
     146       11      119      120
     147       11      119      121
     148       11      119      122
     149       11      123      124
     150       11      123      125
     151       11      123      126
     152       10      127      128
     153       10      127      132
     154       10      127      136
     155       11      128      129
     156       11      128      130
     157       11      128      131
     158       11      132      133
     159       11      132      134
     160       11      132      135
     161       11      136      137
     162       11      136      138
     163       11      136      139
     164       10      140      141
     165       10      140      145
     166       10      140      149
     167       11      141      142
     168       11      141      143
     169       11      141      144
     170       11      145      146
     171       11      145      147
     172       11      145      148
     173       11      149      150
     174       11      149      151
     175       11      149      152
     176       10      153      154
     177       10      153      158
     178       10      153      162
     179       11      154      155
     180       11      154      156
     181       11      154      157
     182       11      158      159
     183       11      158      160
     184       11      158      161
     185       11      162      163
     186       11      162      164
     187       11      162      165
     188       10      166      167
     189       10      166      171
     190       10      166      175
     191       11      167      168
     192       11      167      169
     193       11      167      170
     194       11      171      172
     195       11      171      173
     196       11      171      174
     197       11      175      176
     198       11      175      177
     199       11      175      178
     200       12      179      180
     201       12      179      184
     202       11      180      181
     203       11      180      182
     204       11      180      183
     205       11      184      185
     206       11      184      186
     207       11      184      187

Angles

       1        1        4        1        6
       2        1        4        1        8
       3        1        4        1       10
       4        2        4        1       11
       5        2        4        1       13
       6        1        6        1        8
       7        1        6        1       10
       8        2        6        1       11
       9        2        6        1       13
      10        1        8        1       10
      11        2        8        1       11
      12        2        8        1       13
      13        2       10        1       11
      14        2       10        1       13
      15        3       11        1       13
      16        2       14        2        5
      17        2       14        2        7
      18        2       14        2       51
      19        2       14        2       57
      20        3       14        2       60
      21        1        5        2        7
      22        1        5        2       51
      23        1        5        2       57
      24        2        5        2       60
      25        1        7        2       51
      26        1        7        2       57
      27        2        7        2       60
      28        1       51        2       57
      29        2       51        2       60
      30        2       57        2       60
      31        4       47        3       50
      32        4        1        4       48
      33        4        2        5       45
      34        4        1        6       46
      35        4        2        7       99
      36        4        1        8       48
      37        4       50        9       97
      38        4        1       10       46
      39        5        1       11       32
      40        5        1       11       35
      41        6       32       11       35
      42        6       33       12       36
      43        5       33       12       50
      44        5       36       12       50
      45        5        1       13       29
      46        5        1       13       37
      47        6       29       13       37
      48        5        2       14       30
      49        5        2       14       38
      50        6       30       14       38
      51        7       19       15       17
      52        8       19       15       32
      53        7       17       15       32
      54        8       20       16       33
      55        7       20       16       66
      56        7       33       16       66
      57        8       15       19       21
      58        9       15       19       45
      59        9       21       19       45
      60        8       16       20       22
      61        9       16       20       46
      62        9       22       20       46
      63        8       19       21       35
      64        7       19       21       71
      65        7       35       21       71
      66        8       20       22       36
      67        7       20       22       24
      68        7       36       22       24
      69        8       29       25       43
      70        7       29       25       27