units           real
atom_style      full
boundary        p p p

pair_style      lj/cut 5.000
bond_style      harmonic
angle_style     hybrid fourier cosine/periodic
dihedral_style  harmonic
improper_style  fourier

pair_modify     tail yes mix arithmetic
special_bonds   lj/coul 0.0 0.0 1.0
dielectric      1.0
box tilt        large
read_data       data.NiPyC2_relax_sc211_meta_functionalized_C-3CH3
  triclinic box = (0 0 0) to (12.5056 12.5234 10.2743) with tilt (0 -0.227594 0)
  1 by 1 by 1 MPI processor grid
  reading atoms ...
  204 atoms
  scanning bonds ...
  6 = max bonds/atom
  scanning angles ...
  15 = max angles/atom
  scanning dihedrals ...
  27 = max dihedrals/atom
  scanning impropers ...
  3 = max impropers/atom
  reading bonds ...
  207 bonds
  reading angles ...
  401 angles
  reading dihedrals ...
  466 dihedrals
  reading impropers ...
  168 impropers
  6 = max # of 1-2 neighbors
  11 = max # of 1-3 neighbors
  15 = max # of special neighbors
  special bonds CPU = 0.000296346 secs
  read_data CPU = 0.0375141 secs

#### Atom Groupings ####
group           1        id   188:204
17 atoms in group 1
group           1-1      id   188
1 atoms in group 1-1
group           1-2      id   189
1 atoms in group 1-2
group           1-3      id   190
1 atoms in group 1-3
group           1-4      id   191
1 atoms in group 1-4
group           1-5      id   192
1 atoms in group 1-5
group           1-6      id   193
1 atoms in group 1-6
group           1-7      id   194
1 atoms in group 1-7
group           1-8      id   195
1 atoms in group 1-8
group           1-9      id   196
1 atoms in group 1-9
group           1-10     id   197
1 atoms in group 1-10
group           1-11     id   198
1 atoms in group 1-11
group           1-12     id   199
1 atoms in group 1-12
group           1-13     id   200
1 atoms in group 1-13
group           1-14     id   201
1 atoms in group 1-14
group           1-15     id   202
1 atoms in group 1-15
group           1-16     id   203
1 atoms in group 1-16
group           1-17     id   204
1 atoms in group 1-17
group           fram     id   1:187
187 atoms in group fram
#### END Atom Groupings ####

dump            NiPyC2_relax_sc211_meta_functionalized_C-3CH3_xyzmov all xyz 20000 NiPyC2_relax_sc211_meta_functionalized_C-3CH3_mov.xyz
dump_modify     NiPyC2_relax_sc211_meta_functionalized_C-3CH3_xyzmov element Ni O N C H C C C H
min_style       cg
print           "MinStep,CellMinStep,AtomMinStep,FinalStep,Energy,EDiff" file NiPyC2_relax_sc211_meta_functionalized_C-3CH3.min.csv screen no
variable        min_eval   equal 1.00e-06
variable        prev_E     equal 50000.00
variable        iter       loop 100000
label           loop_min
min_style       cg
fix             1 all box/relax aniso 0.0 vmax 0.01
minimize        1.0e-15 1.0e-15 10000 100000
WARNING: Using 'neigh_modify every 1 delay 0 check yes' setting during minimization (src/min.cpp:190)
Neighbor list info ...
  update every 1 steps, delay 0 steps, check yes
  max neighbors/atom: 2000, page size: 100000
  master list distance cutoff = 7
  ghost atom cutoff = 7
  binsize = 3.5, bins = 4 4 3
  1 neighbor lists, perpetual/occasional/extra = 1 0 0
  (1) pair lj/cut, perpetual
      attributes: half, newton on
      pair build: half/bin/newton/tri
      stencil: half/bin/3d/newton/tri
      bin: standard
WARNING: Inconsistent image flags (src/domain.cpp:785)
WARNING: Bond/angle/dihedral extent > half of periodic box length (src/domain.cpp:906)
Per MPI rank memory allocation (min/avg/max) = 23.09 | 23.09 | 23.09 Mbytes
Step Temp E_pair E_mol TotEng Press Volume 
       0            0 1.4619966e+09    2330.0034 1.4619989e+09 2.4920665e+11    1609.0819 
    1411            0    224.91341    1825.6027    2050.5161   -1182.0933    1792.3692 
WARNING: Bond/angle/dihedral extent > half of periodic box length (src/domain.cpp:906)
Loop time of 0.752047 on 1 procs for 1411 steps with 204 atoms

100.2% CPU use with 1 MPI tasks x 1 OpenMP threads

Minimization stats:
  Stopping criterion = linesearch alpha is zero
  Energy initial, next-to-last, final = 
         1461998915.42      2050.51610955      2050.51610955
  Force two-norm initial, final = 3.44851e+10 69.6448
  Force max component initial, final = 1.78583e+10 40.1879
  Final line search alpha, max atom move = 1.95144e-12 7.84242e-11
  Iterations, force evaluations = 1411 2602

MPI task timing breakdown:
Section |  min time  |  avg time  |  max time  |%varavg| %total
---------------------------------------------------------------
Pair    | 0.43202    | 0.43202    | 0.43202    |   0.0 | 57.45
Bond    | 0.20141    | 0.20141    | 0.20141    |   0.0 | 26.78
Neigh   | 0.035669   | 0.035669   | 0.035669   |   0.0 |  4.74
Comm    | 0.019361   | 0.019361   | 0.019361   |   0.0 |  2.57
Output  | 0          | 0          | 0          |   0.0 |  0.00
Modify  | 0          | 0          | 0          |   0.0 |  0.00
Other   |            | 0.06359    |            |       |  8.46

Nlocal:    204 ave 204 max 204 min
Histogram: 1 0 0 0 0 0 0 0 0 0
Nghost:    1823 ave 1823 max 1823 min
Histogram: 1 0 0 0 0 0 0 0 0 0
Neighs:    15759 ave 15759 max 15759 min
Histogram: 1 0 0 0 0 0 0 0 0 0

Total # of neighbors = 15759
Ave neighs/atom = 77.25
Ave special neighs/atom = 5.80392
Neighbor list builds = 43
Dangerous builds = 0
unfix           1
min_style       fire
variable        tempstp    equal $(step)
variable        tempstp    equal 1411
variable        CellMinStep equal ${tempstp}
variable        CellMinStep equal 1411
minimize        1.0e-15 1.0e-15 10000 100000
WARNING: Using 'neigh_modify every 1 delay 0 check yes' setting during minimization (src/min.cpp:190)
  Parameters for fire: 
    dmax delaystep dtgrow dtshrink alpha0 alphashrink tmax tmin    integrator halfstepback 
     0.1        20    1.1      0.5   0.25        0.99   10 0.02 eulerimplicit          yes 
WARNING: Inconsistent image flags (src/domain.cpp:785)
WARNING: Bond/angle/dihedral extent > half of periodic box length (src/domain.cpp:906)
Per MPI rank memory allocation (min/avg/max) = 21.96 | 21.96 | 21.96 Mbytes
Step Temp E_pair E_mol TotEng Press 
    1411            0    224.91341    1825.6027    2050.5161   -1182.0933 
   11411 0.00013161172    169.60825    1796.5497     1966.158   -8219.2722 
WARNING: Bond/angle/dihedral extent > half of periodic box length (src/domain.cpp:906)
Loop time of 2.54268 on 1 procs for 10000 steps with 204 atoms

100.1% CPU use with 1 MPI tasks x 1 OpenMP threads

Minimization stats:
  Stopping criterion = max iterations
  Energy initial, next-to-last, final = 
         2050.51610955       1966.1579514      1966.15793926
  Force two-norm initial, final = 44.1679 0.130954
  Force max component initial, final = 9.12496 0.0260403
  Final line search alpha, max atom move = 0 0
  Iterations, force evaluations = 10000 10000

MPI task timing breakdown:
Section |  min time  |  avg time  |  max time  |%varavg| %total
---------------------------------------------------------------
Pair    | 1.6944     | 1.6944     | 1.6944     |   0.0 | 66.64
Bond    | 0.71058    | 0.71058    | 0.71058    |   0.0 | 27.95
Neigh   | 0.010572   | 0.010572   | 0.010572   |   0.0 |  0.42
Comm    | 0.07162    | 0.07162    | 0.07162    |   0.0 |  2.82
Output  | 2.6638e-05 | 2.6638e-05 | 2.6638e-05 |   0.0 |  0.00
Modify  | 0          | 0          | 0          |   0.0 |  0.00
Other   |            | 0.05549    |            |       |  2.18

Nlocal:    204 ave 204 max 204 min
Histogram: 1 0 0 0 0 0 0 0 0 0
Nghost:    1810 ave 1810 max 1810 min
Histogram: 1 0 0 0 0 0 0 0 0 0
Neighs:    15956 ave 15956 max 15956 min
Histogram: 1 0 0 0 0 0 0 0 0 0

Total # of neighbors = 15956
Ave neighs/atom = 78.2157
Ave special neighs/atom = 5.80392
Neighbor list builds = 11
Dangerous builds = 0
variable        AtomMinStep equal ${tempstp}
variable        AtomMinStep equal 1411
variable        temppe     equal $(pe)
variable        temppe     equal 1966.1579392577782528
variable        min_E      equal abs(${prev_E}-${temppe})
variable        min_E      equal abs(50000-${temppe})
variable        min_E      equal abs(50000-1966.15793925778)
print           "${iter},${CellMinStep},${AtomMinStep},${AtomMinStep},$(pe),${min_E}" append NiPyC2_relax_sc211_meta_functionalized_C-3CH3.min.csv screen no
if              "${min_E} < ${min_eval}" then "jump SELF break_min"
variable        prev_E     equal ${temppe}
variable        prev_E     equal 1966.15793925778
next            iter
jump            SELF loop_min
min_style       cg
fix             1 all box/relax aniso 0.0 vmax 0.01
minimize        1.0e-15 1.0e-15 10000 100000
WARNING: Using 'neigh_modify every 1 delay 0 check yes' setting during minimization (src/min.cpp:190)
WARNING: Inconsistent image flags (src/domain.cpp:785)
WARNING: Bond/angle/dihedral extent > half of periodic box length (src/domain.cpp:906)
Per MPI rank memory allocation (min/avg/max) = 23.09 | 23.09 | 23.09 Mbytes
Step Temp E_pair E_mol TotEng Press Volume 
   11411 0.00013161172    169.60825    1796.5497     1966.158   -8219.2722    1792.3692 
   11416 0.00013161172    180.89397    1784.3392    1965.2333   -837.04531    1783.1683 
WARNING: Bond/angle/dihedral extent > half of periodic box length (src/domain.cpp:906)
Loop time of 0.0187502 on 1 procs for 5 steps with 204 atoms

100.2% CPU use with 1 MPI tasks x 1 OpenMP threads

Minimization stats:
  Stopping criterion = linesearch alpha is zero
  Energy initial, next-to-last, final = 
         1966.15793926      1965.23321917      1965.23321917
  Force two-norm initial, final = 441.585 63.0502
  Force max component initial, final = 351.046 41.3383
  Final line search alpha, max atom move = 2.18647e-12 9.03848e-11
  Iterations, force evaluations = 5 63

MPI task timing breakdown:
Section |  min time  |  avg time  |  max time  |%varavg| %total
---------------------------------------------------------------
Pair    | 0.011492   | 0.011492   | 0.011492   |   0.0 | 61.29
Bond    | 0.0051027  | 0.0051027  | 0.0051027  |   0.0 | 27.21
Neigh   | 0          | 0          | 0          |   0.0 |  0.00
Comm    | 0.00048332 | 0.00048332 | 0.00048332 |   0.0 |  2.58
Output  | 0          | 0          | 0          |   0.0 |  0.00
Modify  | 0          | 0          | 0          |   0.0 |  0.00
Other   |            | 0.001672   |            |       |  8.92

Nlocal:    204 ave 204 max 204 min
Histogram: 1 0 0 0 0 0 0 0 0 0
Nghost:    1814 ave 1814 max 1814 min
Histogram: 1 0 0 0 0 0 0 0 0 0
Neighs:    15946 ave 15946 max 15946 min
Histogram: 1 0 0 0 0 0 0 0 0 0

Total # of neighbors = 15946
Ave neighs/atom = 78.1667
Ave special neighs/atom = 5.80392
Neighbor list builds = 0
Dangerous builds = 0
unfix           1
min_style       fire
variable        tempstp    equal $(step)
variable        tempstp    equal 11416
variable        CellMinStep equal ${tempstp}
variable        CellMinStep equal 11416
minimize        1.0e-15 1.0e-15 10000 100000
WARNING: Using 'neigh_modify every 1 delay 0 check yes' setting during minimization (src/min.cpp:190)
  Parameters for fire: 
    dmax delaystep dtgrow dtshrink alpha0 alphashrink tmax tmin    integrator halfstepback 
     0.1        20    1.1      0.5   0.25        0.99   10 0.02 eulerimplicit          yes 
WARNING: Inconsistent image flags (src/domain.cpp:785)
WARNING: Bond/angle/dihedral extent > half of periodic box length (src/domain.cpp:906)
Per MPI rank memory allocation (min/avg/max) = 21.96 | 21.96 | 21.96 Mbytes
Step Temp E_pair E_mol TotEng Press 
   11416            0    180.89397    1784.3392    1965.2332   -837.04735 
   16660 6.7359417e-11     163.0796    1787.5022    1950.5818   -6666.7884 
WARNING: Bond/angle/dihedral extent > half of periodic box length (src/domain.cpp:906)
Loop time of 1.34083 on 1 procs for 5244 steps with 204 atoms

100.1% CPU use with 1 MPI tasks x 1 OpenMP threads

Minimization stats:
  Stopping criterion = energy tolerance
  Energy initial, next-to-last, final = 
         1965.23321917      1950.58179822      1950.58179822
  Force two-norm initial, final = 22.6506 3.13975e-05
  Force max component initial, final = 3.60169 7.69497e-06
  Final line search alpha, max atom move = 0 0
  Iterations, force evaluations = 5244 5244

MPI task timing breakdown:
Section |  min time  |  avg time  |  max time  |%varavg| %total
---------------------------------------------------------------
Pair    | 0.89793    | 0.89793    | 0.89793    |   0.0 | 66.97
Bond    | 0.37381    | 0.37381    | 0.37381    |   0.0 | 27.88
Neigh   | 0.0019094  | 0.0019094  | 0.0019094  |   0.0 |  0.14
Comm    | 0.037797   | 0.037797   | 0.037797   |   0.0 |  2.82
Output  | 0          | 0          | 0          |   0.0 |  0.00
Modify  | 0          | 0          | 0          |   0.0 |  0.00
Other   |            | 0.02939    |            |       |  2.19

Nlocal:    204 ave 204 max 204 min
Histogram: 1 0 0 0 0 0 0 0 0 0
Nghost:    1828 ave 1828 max 1828 min
Histogram: 1 0 0 0 0 0 0 0 0 0
Neighs:    16048 ave 16048 max 16048 min
Histogram: 1 0 0 0 0 0 0 0 0 0

Total # of neighbors = 16048
Ave neighs/atom = 78.6667
Ave special neighs/atom = 5.80392
Neighbor list builds = 2
Dangerous builds = 0
variable        AtomMinStep equal ${tempstp}
variable        AtomMinStep equal 11416
variable        temppe     equal $(pe)
variable        temppe     equal 1950.5817982155017489
variable        min_E      equal abs(${prev_E}-${temppe})
variable        min_E      equal abs(1966.15793925778-${temppe})
variable        min_E      equal abs(1966.15793925778-1950.5817982155)
print           "${iter},${CellMinStep},${AtomMinStep},${AtomMinStep},$(pe),${min_E}" append NiPyC2_relax_sc211_meta_functionalized_C-3CH3.min.csv screen no
if              "${min_E} < ${min_eval}" then "jump SELF break_min"
variable        prev_E     equal ${temppe}
variable        prev_E     equal 1950.5817982155
next            iter
jump            SELF loop_min
min_style       cg
fix             1 all box/relax aniso 0.0 vmax 0.01
minimize        1.0e-15 1.0e-15 10000 100000
WARNING: Using 'neigh_modify every 1 delay 0 check yes' setting during minimization (src/min.cpp:190)
WARNING: Inconsistent image flags (src/domain.cpp:785)
WARNING: Bond/angle/dihedral extent > half of periodic box length (src/domain.cpp:906)
Per MPI rank memory allocation (min/avg/max) = 23.09 | 23.09 | 23.09 Mbytes
Step Temp E_pair E_mol TotEng Press Volume 
   16660 6.7359417e-11     163.0796    1787.5022    1950.5818   -6666.7884    1783.1683 
   16668 6.7359417e-11    174.98821    1774.7227    1949.7109    1278.0889    1773.1232 
WARNING: Bond/angle/dihedral extent > half of periodic box length (src/domain.cpp:906)
Loop time of 0.020684 on 1 procs for 8 steps with 204 atoms

98.9% CPU use with 1 MPI tasks x 1 OpenMP threads

Minimization stats:
  Stopping criterion = linesearch alpha is zero
  Energy initial, next-to-last, final = 
         1950.58179822      1949.71093556      1949.71093556
  Force two-norm initial, final = 331.571 60.8834
  Force max component initial, final = 276.963 40.0809
  Final line search alpha, max atom move = 2.46474e-12 9.87889e-11
  Iterations, force evaluations = 8 69

MPI task timing breakdown:
Section |  min time  |  avg time  |  max time  |%varavg| %total
---------------------------------------------------------------
Pair    | 0.012671   | 0.012671   | 0.012671   |   0.0 | 61.26
Bond    | 0.0057021  | 0.0057021  | 0.0057021  |   0.0 | 27.57
Neigh   | 0          | 0          | 0          |   0.0 |  0.00
Comm    | 0.00049537 | 0.00049537 | 0.00049537 |   0.0 |  2.39
Output  | 0          | 0          | 0          |   0.0 |  0.00
Modify  | 0          | 0          | 0          |   0.0 |  0.00
Other   |            | 0.001816   |            |       |  8.78

Nlocal:    204 ave 204 max 204 min
Histogram: 1 0 0 0 0 0 0 0 0 0
Nghost:    1818 ave 1818 max 1818 min
Histogram: 1 0 0 0 0 0 0 0 0 0
Neighs:    16027 ave 16027 max 16027 min
Histogram: 1 0 0 0 0 0 0 0 0 0

Total # of neighbors = 16027
Ave neighs/atom = 78.5637
Ave special neighs/atom = 5.80392
Neighbor list builds = 0
Dangerous builds = 0
unfix           1
min_style       fire
variable        tempstp    equal $(step)
variable        tempstp    equal 16668
variable        CellMinStep equal ${tempstp}
variable        CellMinStep equal 16668
minimize        1.0e-15 1.0e-15 10000 100000
WARNING: Using 'neigh_modify every 1 delay 0 check yes' setting during minimization (src/min.cpp:190)
  Parameters for fire: 
    dmax delaystep dtgrow dtshrink alpha0 alphashrink tmax tmin    integrator halfstepback 
     0.1        20    1.1      0.5   0.25        0.99   10 0.02 eulerimplicit          yes 
WARNING: Inconsistent image flags (src/domain.cpp:785)
WARNING: Bond/angle/dihedral extent > half of periodic box length (src/domain.cpp:906)
Per MPI rank memory allocation (min/avg/max) = 21.96 | 21.96 | 21.96 Mbytes
Step Temp E_pair E_mol TotEng Press 
   16668            0    174.98821    1774.7227    1949.7109    1278.0889 
   18935 8.5772569e-11    170.76446     1778.713    1949.4774   -1635.7324 
WARNING: Bond/angle/dihedral extent > half of periodic box length (src/domain.cpp:906)
Loop time of 0.581204 on 1 procs for 2267 steps with 204 atoms

100.1% CPU use with 1 MPI tasks x 1 OpenMP threads

Minimization stats:
  Stopping criterion = energy tolerance
  Energy initial, next-to-last, final = 
         1949.71093556       1949.4774463       1949.4774463
  Force two-norm initial, final = 12.0229 3.57469e-05
  Force max component initial, final = 2.44764 1.01267e-05
  Final line search alpha, max atom move = 0 0
  Iterations, force evaluations = 2267 2267

MPI task timing breakdown:
Section |  min time  |  avg time  |  max time  |%varavg| %total
---------------------------------------------------------------
Pair    | 0.3906     | 0.3906     | 0.3906     |   0.0 | 67.21
Bond    | 0.16136    | 0.16136    | 0.16136    |   0.0 | 27.76
Neigh   | 0          | 0          | 0          |   0.0 |  0.00
Comm    | 0.016264   | 0.016264   | 0.016264   |   0.0 |  2.80
Output  | 0          | 0          | 0          |   0.0 |  0.00
Modify  | 0          | 0          | 0          |   0.0 |  0.00
Other   |            | 0.01298    |            |       |  2.23

Nlocal:    204 ave 204 max 204 min
Histogram: 1 0 0 0 0 0 0 0 0 0
Nghost:    1830 ave 1830 max 1830 min
Histogram: 1 0 0 0 0 0 0 0 0 0
Neighs:    16113 ave 16113 max 16113 min
Histogram: 1 0 0 0 0 0 0 0 0 0

Total # of neighbors = 16113
Ave neighs/atom = 78.9853
Ave special neighs/atom = 5.80392
Neighbor list builds = 0
Dangerous builds = 0
variable        AtomMinStep equal ${tempstp}
variable        AtomMinStep equal 16668
variable        temppe     equal $(pe)
variable        temppe     equal 1949.4774463000319429
variable        min_E      equal abs(${prev_E}-${temppe})
variable        min_E      equal abs(1950.5817982155-${temppe})
variable        min_E      equal abs(1950.5817982155-1949.47744630003)
print           "${iter},${CellMinStep},${AtomMinStep},${AtomMinStep},$(pe),${min_E}" append NiPyC2_relax_sc211_meta_functionalized_C-3CH3.min.csv screen no
if              "${min_E} < ${min_eval}" then "jump SELF break_min"
variable        prev_E     equal ${temppe}
variable        prev_E     equal 1949.47744630003
next            iter
jump            SELF loop_min
min_style       cg
fix             1 all box/relax aniso 0.0 vmax 0.01
minimize        1.0e-15 1.0e-15 10000 100000
WARNING: Using 'neigh_modify every 1 delay 0 check yes' setting during minimization (src/min.cpp:190)
WARNING: Inconsistent image flags (src/domain.cpp:785)
WARNING: Bond/angle/dihedral extent > half of periodic box length (src/domain.cpp:906)
Per MPI rank memory allocation (min/avg/max) = 23.09 | 23.09 | 23.09 Mbytes
Step Temp E_pair E_mol TotEng Press Volume 
   18935 8.5772569e-11    170.76446     1778.713    1949.4774   -1635.7324    1773.1232 
   18938 8.5772569e-11    172.85442    1776.4467    1949.3011    75.015117    1771.3823 
WARNING: Bond/angle/dihedral extent > half of periodic box length (src/domain.cpp:906)
Loop time of 0.0167391 on 1 procs for 3 steps with 204 atoms

100.2% CPU use with 1 MPI tasks x 1 OpenMP threads

Minimization stats:
  Stopping criterion = linesearch alpha is zero
  Energy initial, next-to-last, final = 
          1949.4774463      1949.30111106      1949.30111106
  Force two-norm initial, final = 112.436 9.69427
  Force max component initial, final = 109.737 6.2606
  Final line search alpha, max atom move = 9.5206e-11 5.96046e-10
  Iterations, force evaluations = 3 55

MPI task timing breakdown:
Section |  min time  |  avg time  |  max time  |%varavg| %total
---------------------------------------------------------------
Pair    | 0.01027    | 0.01027    | 0.01027    |   0.0 | 61.35
Bond    | 0.0045046  | 0.0045046  | 0.0045046  |   0.0 | 26.91
Neigh   | 0          | 0          | 0          |   0.0 |  0.00
Comm    | 0.00041919 | 0.00041919 | 0.00041919 |   0.0 |  2.50
Output  | 0          | 0          | 0          |   0.0 |  0.00
Modify  | 0          | 0          | 0          |   0.0 |  0.00
Other   |            | 0.001546   |            |       |  9.23

Nlocal:    204 ave 204 max 204 min
Histogram: 1 0 0 0 0 0 0 0 0 0
Nghost:    1826 ave 1826 max 1826 min
Histogram: 1 0 0 0 0 0 0 0 0 0
Neighs:    16120 ave 16120 max 16120 min
Histogram: 1 0 0 0 0 0 0 0 0 0

Total # of neighbors = 16120
Ave neighs/atom = 79.0196
Ave special neighs/atom = 5.80392
Neighbor list builds = 0
Dangerous builds = 0
unfix           1
min_style       fire
variable        tempstp    equal $(step)
variable        tempstp    equal 18938
variable        CellMinStep equal ${tempstp}
variable        CellMinStep equal 18938
minimize        1.0e-15 1.0e-15 10000 100000
WARNING: Using 'neigh_modify every 1 delay 0 check yes' setting during minimization (src/min.cpp:190)
  Parameters for fire: 
    dmax delaystep dtgrow dtshrink alpha0 alphashrink tmax tmin    integrator halfstepback 
     0.1        20    1.1      0.5   0.25        0.99   10 0.02 eulerimplicit          yes 
WARNING: Inconsistent image flags (src/domain.cpp:785)
WARNING: Bond/angle/dihedral extent > half of periodic box length (src/domain.cpp:906)
Per MPI rank memory allocation (min/avg/max) = 21.96 | 21.96 | 21.96 Mbytes
Step Temp E_pair E_mol TotEng Press 
   18938            0    172.85442    1776.4467    1949.3011    75.015117 
   20821 7.8855049e-11    172.05843    1777.2127    1949.2712   -712.20815 
WARNING: Bond/angle/dihedral extent > half of periodic box length (src/domain.cpp:906)
Loop time of 0.487415 on 1 procs for 1883 steps with 204 atoms

100.1% CPU use with 1 MPI tasks x 1 OpenMP threads

Minimization stats:
  Stopping criterion = energy tolerance
  Energy initial, next-to-last, final = 
         1949.30111106      1949.27116044      1949.27116044
  Force two-norm initial, final = 6.49921 3.22182e-05
  Force max component initial, final = 1.18325 8.09456e-06
  Final line search alpha, max atom move = 0 0
  Iterations, force evaluations = 1883 1883

MPI task timing breakdown:
Section |  min time  |  avg time  |  max time  |%varavg| %total
---------------------------------------------------------------
Pair    | 0.32811    | 0.32811    | 0.32811    |   0.0 | 67.32
Bond    | 0.13472    | 0.13472    | 0.13472    |   0.0 | 27.64
Neigh   | 0          | 0          | 0          |   0.0 |  0.00
Comm    | 0.013603   | 0.013603   | 0.013603   |   0.0 |  2.79
Output  | 0.00018098 | 0.00018098 | 0.00018098 |   0.0 |  0.04
Modify  | 0          | 0          | 0          |   0.0 |  0.00
Other   |            | 0.01081    |            |       |  2.22

Nlocal:    204 ave 204 max 204 min
Histogram: 1 0 0 0 0 0 0 0 0 0
Nghost:    1826 ave 1826 max 1826 min
Histogram: 1 0 0 0 0 0 0 0 0 0
Neighs:    16138 ave 16138 max 16138 min
Histogram: 1 0 0 0 0 0 0 0 0 0

Total # of neighbors = 16138
Ave neighs/atom = 79.1078
Ave special neighs/atom = 5.80392
Neighbor list builds = 0
Dangerous builds = 0
variable        AtomMinStep equal ${tempstp}
variable        AtomMinStep equal 18938
variable        temppe     equal $(pe)
variable        temppe     equal 1949.271160443662211
variable        min_E      equal abs(${prev_E}-${temppe})
variable        min_E      equal abs(1949.47744630003-${temppe})
variable        min_E      equal abs(1949.47744630003-1949.27116044366)
print           "${iter},${CellMinStep},${AtomMinStep},${AtomMinStep},$(pe),${min_E}" append NiPyC2_relax_sc211_meta_functionalized_C-3CH3.min.csv screen no
if              "${min_E} < ${min_eval}" then "jump SELF break_min"
variable        prev_E     equal ${temppe}
variable        prev_E     equal 1949.27116044366
next            iter
jump            SELF loop_min
min_style       cg
fix             1 all box/relax aniso 0.0 vmax 0.01
minimize        1.0e-15 1.0e-15 10000 100000
WARNING: Using 'neigh_modify every 1 delay 0 check yes' setting during minimization (src/min.cpp:190)
WARNING: Inconsistent image flags (src/domain.cpp:785)
WARNING: Bond/angle/dihedral extent > half of periodic box length (src/domain.cpp:906)
Per MPI rank memory allocation (min/avg/max) = 23.09 | 23.09 | 23.09 Mbytes
Step Temp E_pair E_mol TotEng Press Volume 
   20821 7.8855049e-11    172.05843    1777.2127    1949.2712   -712.20815    1771.3823 
   20822 7.8855049e-11    172.05843    1777.2127    1949.2712   -712.20815    1771.3823 
WARNING: Bond/angle/dihedral extent > half of periodic box length (src/domain.cpp:906)
Loop time of 0.0160365 on 1 procs for 1 steps with 204 atoms

100.2% CPU use with 1 MPI tasks x 1 OpenMP threads

Minimization stats:
  Stopping criterion = linesearch alpha is zero
  Energy initial, next-to-last, final = 
         1949.27116044      1949.27116044      1949.27116044
  Force two-norm initial, final = 76.6622 76.6622
  Force max component initial, final = 74.3332 74.3332
  Final line search alpha, max atom move = 2.00464e-12 1.49012e-10
  Iterations, force evaluations = 1 53

MPI task timing breakdown:
Section |  min time  |  avg time  |  max time  |%varavg| %total
---------------------------------------------------------------
Pair    | 0.0099531  | 0.0099531  | 0.0099531  |   0.0 | 62.07
Bond    | 0.0042582  | 0.0042582  | 0.0042582  |   0.0 | 26.55
Neigh   | 0          | 0          | 0          |   0.0 |  0.00
Comm    | 0.00038862 | 0.00038862 | 0.00038862 |   0.0 |  2.42
Output  | 0          | 0          | 0          |   0.0 |  0.00
Modify  | 0          | 0          | 0          |   0.0 |  0.00
Other   |            | 0.001437   |            |       |  8.96

Nlocal:    204 ave 204 max 204 min
Histogram: 1 0 0 0 0 0 0 0 0 0
Nghost:    1826 ave 1826 max 1826 min
Histogram: 1 0 0 0 0 0 0 0 0 0
Neighs:    16145 ave 16145 max 16145 min
Histogram: 1 0 0 0 0 0 0 0 0 0

Total # of neighbors = 16145
Ave neighs/atom = 79.1422
Ave special neighs/atom = 5.80392
Neighbor list builds = 0
Dangerous builds = 0
unfix           1
min_style       fire
variable        tempstp    equal $(step)
variable        tempstp    equal 20822
variable        CellMinStep equal ${tempstp}
variable        CellMinStep equal 20822
minimize        1.0e-15 1.0e-15 10000 100000
WARNING: Using 'neigh_modify every 1 delay 0 check yes' setting during minimization (src/min.cpp:190)
  Parameters for fire: 
    dmax delaystep dtgrow dtshrink alpha0 alphashrink tmax tmin    integrator halfstepback 
     0.1        20    1.1      0.5   0.25        0.99   10 0.02 eulerimplicit          yes 
WARNING: Inconsistent image flags (src/domain.cpp:785)
WARNING: Bond/angle/dihedral extent > half of periodic box length (src/domain.cpp:906)
Per MPI rank memory allocation (min/avg/max) = 21.96 | 21.96 | 21.96 Mbytes
Step Temp E_pair E_mol TotEng Press 
   20822            0    172.05843    1777.2127    1949.2712   -712.20815 
   20846 6.5891022e-11    172.05843    1777.2127    1949.2712   -712.20872 
WARNING: Bond/angle/dihedral extent > half of periodic box length (src/domain.cpp:906)
Loop time of 0.00704167 on 1 procs for 24 steps with 204 atoms

100.2% CPU use with 1 MPI tasks x 1 OpenMP threads

Minimization stats:
  Stopping criterion = energy tolerance
  Energy initial, next-to-last, final = 
         1949.27116044      1949.27116044      1949.27116044
  Force two-norm initial, final = 3.22182e-05 6.14713e-05
  Force max component initial, final = 8.09456e-06 1.45536e-05
  Final line search alpha, max atom move = 0 0
  Iterations, force evaluations = 24 24

MPI task timing breakdown:
Section |  min time  |  avg time  |  max time  |%varavg| %total
---------------------------------------------------------------
Pair    | 0.0046007  | 0.0046007  | 0.0046007  |   0.0 | 65.34
Bond    | 0.0019048  | 0.0019048  | 0.0019048  |   0.0 | 27.05
Neigh   | 0          | 0          | 0          |   0.0 |  0.00
Comm    | 0.0001931  | 0.0001931  | 0.0001931  |   0.0 |  2.74
Output  | 0          | 0          | 0          |   0.0 |  0.00
Modify  | 0          | 0          | 0          |   0.0 |  0.00
Other   |            | 0.000343   |            |       |  4.87

Nlocal:    204 ave 204 max 204 min
Histogram: 1 0 0 0 0 0 0 0 0 0
Nghost:    1826 ave 1826 max 1826 min
Histogram: 1 0 0 0 0 0 0 0 0 0
Neighs:    16145 ave 16145 max 16145 min
Histogram: 1 0 0 0 0 0 0 0 0 0

Total # of neighbors = 16145
Ave neighs/atom = 79.1422
Ave special neighs/atom = 5.80392
Neighbor list builds = 0
Dangerous builds = 0
variable        AtomMinStep equal ${tempstp}
variable        AtomMinStep equal 20822
variable        temppe     equal $(pe)
variable        temppe     equal 1949.2711604436076414
variable        min_E      equal abs(${prev_E}-${temppe})
variable        min_E      equal abs(1949.27116044366-${temppe})
variable        min_E      equal abs(1949.27116044366-1949.27116044361)
print           "${iter},${CellMinStep},${AtomMinStep},${AtomMinStep},$(pe),${min_E}" append NiPyC2_relax_sc211_meta_functionalized_C-3CH3.min.csv screen no
if              "${min_E} < ${min_eval}" then "jump SELF break_min"
jump SELF break_min
undump          NiPyC2_relax_sc211_meta_functionalized_C-3CH3_xyzmov

# Dump last snapshot for restart
variable curr_lx equal lx
variable curr_ly equal ly
variable curr_lz equal lz
change_box all x final 0 ${curr_lx} y final 0 ${curr_ly} z final 0 ${curr_lz}
change_box all x final 0 15.287254738131 y final 0 ${curr_ly} z final 0 ${curr_lz}
change_box all x final 0 15.287254738131 y final 0 11.0089768844885 z final 0 ${curr_lz}
change_box all x final 0 15.287254738131 y final 0 11.0089768844885 z final 0 10.5253325989383
  triclinic box = (0 0.757212 -0.125527) to (15.2873 11.7662 10.3998) with tilt (0 -0.233155 0)
  triclinic box = (0 0 -0.125527) to (15.2873 11.009 10.3998) with tilt (0 -0.233155 0)
  triclinic box = (0 0 0) to (15.2873 11.009 10.5253) with tilt (0 -0.233155 0)

reset_timestep 0
dump            NiPyC2_relax_sc211_meta_functionalized_C-3CH3_restart all atom 1 NiPyC2_relax_sc211_meta_functionalized_C-3CH3_restart.lammpstrj
dump_modify     NiPyC2_relax_sc211_meta_functionalized_C-3CH3_restart scale no sort id
run 0
WARNING: No fixes defined, atoms won't move (src/verlet.cpp:52)
WARNING: Inconsistent image flags (src/domain.cpp:785)
WARNING: Bond/angle/dihedral extent > half of periodic box length (src/domain.cpp:906)
Per MPI rank memory allocation (min/avg/max) = 21.96 | 21.96 | 21.96 Mbytes
Step Temp E_pair E_mol TotEng Press 
       0 6.5891022e-11    172.05843    1777.2127    1949.2712   -712.20872 
WARNING: Bond/angle/dihedral extent > half of periodic box length (src/domain.cpp:906)
Loop time of 1.12999e-06 on 1 procs for 0 steps with 204 atoms

265.5% CPU use with 1 MPI tasks x 1 OpenMP threads

MPI task timing breakdown:
Section |  min time  |  avg time  |  max time  |%varavg| %total
---------------------------------------------------------------
Pair    | 0          | 0          | 0          |   0.0 |  0.00
Bond    | 0          | 0          | 0          |   0.0 |  0.00
Neigh   | 0          | 0          | 0          |   0.0 |  0.00
Comm    | 0          | 0          | 0          |   0.0 |  0.00
Output  | 0          | 0          | 0          |   0.0 |  0.00
Modify  | 0          | 0          | 0          |   0.0 |  0.00
Other   |            | 1.13e-06   |            |       |100.00

Nlocal:    204 ave 204 max 204 min
Histogram: 1 0 0 0 0 0 0 0 0 0
Nghost:    1833 ave 1833 max 1833 min
Histogram: 1 0 0 0 0 0 0 0 0 0
Neighs:    16145 ave 16145 max 16145 min
Histogram: 1 0 0 0 0 0 0 0 0 0

Total # of neighbors = 16145
Ave neighs/atom = 79.1422
Ave special neighs/atom = 5.80392
Neighbor list builds = 0
Dangerous builds = 0
undump          NiPyC2_relax_sc211_meta_functionalized_C-3CH3_restart
Total wall time: 0:00:05
