units           real
atom_style      full
boundary        p p p

pair_style      lj/cut 5.000
bond_style      harmonic
angle_style     hybrid fourier cosine/periodic
dihedral_style  harmonic
improper_style  fourier

special_bonds   lj/coul 0.0 0.0 1.0
dielectric      1.0
pair_modify     tail yes mix arithmetic
box tilt        large
read_data       data.NiPyC2_relax_sc211_ortho_functionalized_C-3CH3
  triclinic box = (0 0 0) to (12.5056 12.5234 10.2743) with tilt (0 -0.227594 0)
  1 by 1 by 1 MPI processor grid
  reading atoms ...
  204 atoms
  scanning bonds ...
  6 = max bonds/atom
  scanning angles ...
  15 = max angles/atom
  scanning dihedrals ...
  27 = max dihedrals/atom
  scanning impropers ...
  3 = max impropers/atom
  reading bonds ...
  207 bonds
  reading angles ...
  401 angles
  reading dihedrals ...
  466 dihedrals
  reading impropers ...
  168 impropers
  6 = max # of 1-2 neighbors
  11 = max # of 1-3 neighbors
  15 = max # of special neighbors
  special bonds CPU = 0.000111165 secs
  read_data CPU = 0.0066912 secs

#### Atom Groupings ####
group           1        id   188:204
17 atoms in group 1
group           1-1      id   188
1 atoms in group 1-1
group           1-2      id   189
1 atoms in group 1-2
group           1-3      id   190
1 atoms in group 1-3
group           1-4      id   191
1 atoms in group 1-4
group           1-5      id   192
1 atoms in group 1-5
group           1-6      id   193
1 atoms in group 1-6
group           1-7      id   194
1 atoms in group 1-7
group           1-8      id   195
1 atoms in group 1-8
group           1-9      id   196
1 atoms in group 1-9
group           1-10     id   197
1 atoms in group 1-10
group           1-11     id   198
1 atoms in group 1-11
group           1-12     id   199
1 atoms in group 1-12
group           1-13     id   200
1 atoms in group 1-13
group           1-14     id   201
1 atoms in group 1-14
group           1-15     id   202
1 atoms in group 1-15
group           1-16     id   203
1 atoms in group 1-16
group           1-17     id   204
1 atoms in group 1-17
group           fram     id   1:187
187 atoms in group fram
#### END Atom Groupings ####

dump            NiPyC2_relax_sc211_ortho_functionalized_C-3CH3_xyzmov all xyz 20000 NiPyC2_relax_sc211_ortho_functionalized_C-3CH3_mov.xyz
dump_modify     NiPyC2_relax_sc211_ortho_functionalized_C-3CH3_xyzmov element Ni O N C H C C C H
min_style       cg
print           "MinStep,CellMinStep,AtomMinStep,FinalStep,Energy,EDiff" file NiPyC2_relax_sc211_ortho_functionalized_C-3CH3.min.csv screen no
variable        min_eval   equal 1.00e-06
variable        prev_E     equal 50000.00
variable        iter       loop 100000
label           loop_min
min_style       cg
fix             1 all box/relax aniso 0.0 vmax 0.01
minimize        1.0e-15 1.0e-15 10000 100000
WARNING: Using 'neigh_modify every 1 delay 0 check yes' setting during minimization (src/min.cpp:190)
Neighbor list info ...
  update every 1 steps, delay 0 steps, check yes
  max neighbors/atom: 2000, page size: 100000
  master list distance cutoff = 7
  ghost atom cutoff = 7
  binsize = 3.5, bins = 4 4 3
  1 neighbor lists, perpetual/occasional/extra = 1 0 0
  (1) pair lj/cut, perpetual
      attributes: half, newton on
      pair build: half/bin/newton/tri
      stencil: half/bin/3d/newton/tri
      bin: standard
WARNING: Inconsistent image flags (src/domain.cpp:785)
WARNING: Bond/angle/dihedral extent > half of periodic box length (src/domain.cpp:906)
Per MPI rank memory allocation (min/avg/max) = 23.07 | 23.07 | 23.07 Mbytes
Step Temp E_pair E_mol TotEng Press Volume 
       0            0 9.4865152e+09    2340.7996 9.4865175e+09 1.6170233e+12    1609.0819 
    1257            0    303.55473    2088.8113     2392.366    364.16894    1862.4677 
WARNING: Bond/angle/dihedral extent > half of periodic box length (src/domain.cpp:906)
Loop time of 0.612141 on 1 procs for 1257 steps with 204 atoms

100.0% CPU use with 1 MPI tasks x 1 OpenMP threads

Minimization stats:
  Stopping criterion = linesearch alpha is zero
  Energy initial, next-to-last, final = 
         9486517530.38      2392.36602895      2392.36602895
  Force two-norm initial, final = 2.29315e+11 101.319
  Force max component initial, final = 1.1474e+11 77.7326
  Final line search alpha, max atom move = 1.06461e-12 8.27551e-11
  Iterations, force evaluations = 1257 2165

MPI task timing breakdown:
Section |  min time  |  avg time  |  max time  |%varavg| %total
---------------------------------------------------------------
Pair    | 0.33902    | 0.33902    | 0.33902    |   0.0 | 55.38
Bond    | 0.17018    | 0.17018    | 0.17018    |   0.0 | 27.80
Neigh   | 0.033314   | 0.033314   | 0.033314   |   0.0 |  5.44
Comm    | 0.015985   | 0.015985   | 0.015985   |   0.0 |  2.61
Output  | 0          | 0          | 0          |   0.0 |  0.00
Modify  | 0          | 0          | 0          |   0.0 |  0.00
Other   |            | 0.05365    |            |       |  8.76

Nlocal:    204 ave 204 max 204 min
Histogram: 1 0 0 0 0 0 0 0 0 0
Nghost:    1815 ave 1815 max 1815 min
Histogram: 1 0 0 0 0 0 0 0 0 0
Neighs:    15386 ave 15386 max 15386 min
Histogram: 1 0 0 0 0 0 0 0 0 0

Total # of neighbors = 15386
Ave neighs/atom = 75.4216
Ave special neighs/atom = 5.80392
Neighbor list builds = 47
Dangerous builds = 0
unfix           1
min_style       fire
variable        tempstp    equal $(step)
variable        tempstp    equal 1257
variable        CellMinStep equal ${tempstp}
variable        CellMinStep equal 1257
minimize        1.0e-15 1.0e-15 10000 100000
WARNING: Using 'neigh_modify every 1 delay 0 check yes' setting during minimization (src/min.cpp:190)
  Parameters for fire: 
    dmax delaystep dtgrow dtshrink alpha0 alphashrink tmax tmin    integrator halfstepback 
     0.1        20    1.1      0.5   0.25        0.99   10 0.02 eulerimplicit          yes 
WARNING: Inconsistent image flags (src/domain.cpp:785)
WARNING: Bond/angle/dihedral extent > half of periodic box length (src/domain.cpp:906)
Per MPI rank memory allocation (min/avg/max) = 21.95 | 21.95 | 21.95 Mbytes
Step Temp E_pair E_mol TotEng Press 
    1257            0    303.55473    2088.8113     2392.366    364.16894 
   11257 0.0020537231    225.41393    2052.1645    2277.5797   -18909.744 
WARNING: Bond/angle/dihedral extent > half of periodic box length (src/domain.cpp:906)
Loop time of 2.53919 on 1 procs for 10000 steps with 204 atoms

100.0% CPU use with 1 MPI tasks x 1 OpenMP threads

Minimization stats:
  Stopping criterion = max iterations
  Energy initial, next-to-last, final = 
         2392.36602895      2277.57854949      2277.57845718
  Force two-norm initial, final = 53.8888 0.212661
  Force max component initial, final = 13.8151 0.0991135
  Final line search alpha, max atom move = 0 0
  Iterations, force evaluations = 10000 10000

MPI task timing breakdown:
Section |  min time  |  avg time  |  max time  |%varavg| %total
---------------------------------------------------------------
Pair    | 1.6756     | 1.6756     | 1.6756     |   0.0 | 65.99
Bond    | 0.721      | 0.721      | 0.721      |   0.0 | 28.39
Neigh   | 0.01242    | 0.01242    | 0.01242    |   0.0 |  0.49
Comm    | 0.073417   | 0.073417   | 0.073417   |   0.0 |  2.89
Output  | 2.8528e-05 | 2.8528e-05 | 2.8528e-05 |   0.0 |  0.00
Modify  | 0          | 0          | 0          |   0.0 |  0.00
Other   |            | 0.05671    |            |       |  2.23

Nlocal:    204 ave 204 max 204 min
Histogram: 1 0 0 0 0 0 0 0 0 0
Nghost:    1851 ave 1851 max 1851 min
Histogram: 1 0 0 0 0 0 0 0 0 0
Neighs:    15394 ave 15394 max 15394 min
Histogram: 1 0 0 0 0 0 0 0 0 0

Total # of neighbors = 15394
Ave neighs/atom = 75.4608
Ave special neighs/atom = 5.80392
Neighbor list builds = 13
Dangerous builds = 0
variable        AtomMinStep equal ${tempstp}
variable        AtomMinStep equal 1257
variable        temppe     equal $(pe)
variable        temppe     equal 2277.5784571800304548
variable        min_E      equal abs(${prev_E}-${temppe})
variable        min_E      equal abs(50000-${temppe})
variable        min_E      equal abs(50000-2277.57845718003)
print           "${iter},${CellMinStep},${AtomMinStep},${AtomMinStep},$(pe),${min_E}" append NiPyC2_relax_sc211_ortho_functionalized_C-3CH3.min.csv screen no
if              "${min_E} < ${min_eval}" then "jump SELF break_min"
variable        prev_E     equal ${temppe}
variable        prev_E     equal 2277.57845718003
next            iter
jump            SELF loop_min
min_style       cg
fix             1 all box/relax aniso 0.0 vmax 0.01
minimize        1.0e-15 1.0e-15 10000 100000
WARNING: Using 'neigh_modify every 1 delay 0 check yes' setting during minimization (src/min.cpp:190)
WARNING: Inconsistent image flags (src/domain.cpp:785)
WARNING: Bond/angle/dihedral extent > half of periodic box length (src/domain.cpp:906)
Per MPI rank memory allocation (min/avg/max) = 23.07 | 23.07 | 23.07 Mbytes
Step Temp E_pair E_mol TotEng Press Volume 
   11257 0.0020537231    225.41393    2052.1645    2277.5797   -18909.744    1862.4677 
   11272 0.0020537231    261.69664    2010.5212    2272.2191    -400.6803    1827.5094 
WARNING: Bond/angle/dihedral extent > half of periodic box length (src/domain.cpp:906)
Loop time of 0.0235873 on 1 procs for 15 steps with 204 atoms

100.1% CPU use with 1 MPI tasks x 1 OpenMP threads

Minimization stats:
  Stopping criterion = linesearch alpha is zero
  Energy initial, next-to-last, final = 
         2277.57845718       2272.2178484       2272.2178484
  Force two-norm initial, final = 915.049 38.9326
  Force max component initial, final = 610.403 32.8181
  Final line search alpha, max atom move = 5.54102e-12 1.81846e-10
  Iterations, force evaluations = 15 81

MPI task timing breakdown:
Section |  min time  |  avg time  |  max time  |%varavg| %total
---------------------------------------------------------------
Pair    | 0.014423   | 0.014423   | 0.014423   |   0.0 | 61.15
Bond    | 0.0063958  | 0.0063958  | 0.0063958  |   0.0 | 27.12
Neigh   | 0          | 0          | 0          |   0.0 |  0.00
Comm    | 0.00059154 | 0.00059154 | 0.00059154 |   0.0 |  2.51
Output  | 0          | 0          | 0          |   0.0 |  0.00
Modify  | 0          | 0          | 0          |   0.0 |  0.00
Other   |            | 0.002177   |            |       |  9.23

Nlocal:    204 ave 204 max 204 min
Histogram: 1 0 0 0 0 0 0 0 0 0
Nghost:    1847 ave 1847 max 1847 min
Histogram: 1 0 0 0 0 0 0 0 0 0
Neighs:    15388 ave 15388 max 15388 min
Histogram: 1 0 0 0 0 0 0 0 0 0

Total # of neighbors = 15388
Ave neighs/atom = 75.4314
Ave special neighs/atom = 5.80392
Neighbor list builds = 0
Dangerous builds = 0
unfix           1
min_style       fire
variable        tempstp    equal $(step)
variable        tempstp    equal 11272
variable        CellMinStep equal ${tempstp}
variable        CellMinStep equal 11272
minimize        1.0e-15 1.0e-15 10000 100000
WARNING: Using 'neigh_modify every 1 delay 0 check yes' setting during minimization (src/min.cpp:190)
  Parameters for fire: 
    dmax delaystep dtgrow dtshrink alpha0 alphashrink tmax tmin    integrator halfstepback 
     0.1        20    1.1      0.5   0.25        0.99   10 0.02 eulerimplicit          yes 
WARNING: Inconsistent image flags (src/domain.cpp:785)
WARNING: Bond/angle/dihedral extent > half of periodic box length (src/domain.cpp:906)
Per MPI rank memory allocation (min/avg/max) = 21.95 | 21.95 | 21.95 Mbytes
Step Temp E_pair E_mol TotEng Press 
   11272            0    261.69664    2010.5212    2272.2178   -400.71138 
   21272  8.02194e-11    248.70538    2021.8916     2270.597   -4766.1642 
WARNING: Bond/angle/dihedral extent > half of periodic box length (src/domain.cpp:906)
Loop time of 2.56677 on 1 procs for 10000 steps with 204 atoms

100.0% CPU use with 1 MPI tasks x 1 OpenMP threads

Minimization stats:
  Stopping criterion = max iterations
  Energy initial, next-to-last, final = 
          2272.2178484      2270.59697573      2270.59697573
  Force two-norm initial, final = 20.9348 3.97066e-05
  Force max component initial, final = 2.5351 2.46651e-05
  Final line search alpha, max atom move = 0 0
  Iterations, force evaluations = 10000 10000

MPI task timing breakdown:
Section |  min time  |  avg time  |  max time  |%varavg| %total
---------------------------------------------------------------
Pair    | 1.713      | 1.713      | 1.713      |   0.0 | 66.74
Bond    | 0.72223    | 0.72223    | 0.72223    |   0.0 | 28.14
Neigh   | 0          | 0          | 0          |   0.0 |  0.00
Comm    | 0.074313   | 0.074313   | 0.074313   |   0.0 |  2.90
Output  | 0.00021704 | 0.00021704 | 0.00021704 |   0.0 |  0.01
Modify  | 0          | 0          | 0          |   0.0 |  0.00
Other   |            | 0.05696    |            |       |  2.22

Nlocal:    204 ave 204 max 204 min
Histogram: 1 0 0 0 0 0 0 0 0 0
Nghost:    1867 ave 1867 max 1867 min
Histogram: 1 0 0 0 0 0 0 0 0 0
Neighs:    15705 ave 15705 max 15705 min
Histogram: 1 0 0 0 0 0 0 0 0 0

Total # of neighbors = 15705
Ave neighs/atom = 76.9853
Ave special neighs/atom = 5.80392
Neighbor list builds = 0
Dangerous builds = 0
variable        AtomMinStep equal ${tempstp}
variable        AtomMinStep equal 11272
variable        temppe     equal $(pe)
variable        temppe     equal 2270.5969757312814181
variable        min_E      equal abs(${prev_E}-${temppe})
variable        min_E      equal abs(2277.57845718003-${temppe})
variable        min_E      equal abs(2277.57845718003-2270.59697573128)
print           "${iter},${CellMinStep},${AtomMinStep},${AtomMinStep},$(pe),${min_E}" append NiPyC2_relax_sc211_ortho_functionalized_C-3CH3.min.csv screen no
if              "${min_E} < ${min_eval}" then "jump SELF break_min"
variable        prev_E     equal ${temppe}
variable        prev_E     equal 2270.59697573128
next            iter
jump            SELF loop_min
min_style       cg
fix             1 all box/relax aniso 0.0 vmax 0.01
minimize        1.0e-15 1.0e-15 10000 100000
WARNING: Using 'neigh_modify every 1 delay 0 check yes' setting during minimization (src/min.cpp:190)
WARNING: Inconsistent image flags (src/domain.cpp:785)
WARNING: Bond/angle/dihedral extent > half of periodic box length (src/domain.cpp:906)
Per MPI rank memory allocation (min/avg/max) = 23.07 | 23.07 | 23.07 Mbytes
Step Temp E_pair E_mol TotEng Press Volume 
   21272  8.02194e-11    248.70538    2021.8916     2270.597   -4766.1642    1827.5094 
   21274  8.02194e-11    255.24422    2015.1034    2270.3476    140.55648    1822.6765 
WARNING: Bond/angle/dihedral extent > half of periodic box length (src/domain.cpp:906)
Loop time of 0.0173733 on 1 procs for 2 steps with 204 atoms

99.4% CPU use with 1 MPI tasks x 1 OpenMP threads

Minimization stats:
  Stopping criterion = linesearch alpha is zero
  Energy initial, next-to-last, final = 
         2270.59697573      2270.34758522      2270.34758522
  Force two-norm initial, final = 232.653 33.1012
  Force max component initial, final = 177.073 23.2851
  Final line search alpha, max atom move = 6.50033e-12 1.51361e-10
  Iterations, force evaluations = 2 55

MPI task timing breakdown:
Section |  min time  |  avg time  |  max time  |%varavg| %total
---------------------------------------------------------------
Pair    | 0.010561   | 0.010561   | 0.010561   |   0.0 | 60.79
Bond    | 0.0047218  | 0.0047218  | 0.0047218  |   0.0 | 27.18
Neigh   | 0          | 0          | 0          |   0.0 |  0.00
Comm    | 0.00045465 | 0.00045465 | 0.00045465 |   0.0 |  2.62
Output  | 0          | 0          | 0          |   0.0 |  0.00
Modify  | 0          | 0          | 0          |   0.0 |  0.00
Other   |            | 0.001636   |            |       |  9.42

Nlocal:    204 ave 204 max 204 min
Histogram: 1 0 0 0 0 0 0 0 0 0
Nghost:    1877 ave 1877 max 1877 min
Histogram: 1 0 0 0 0 0 0 0 0 0
Neighs:    15676 ave 15676 max 15676 min
Histogram: 1 0 0 0 0 0 0 0 0 0

Total # of neighbors = 15676
Ave neighs/atom = 76.8431
Ave special neighs/atom = 5.80392
Neighbor list builds = 0
Dangerous builds = 0
unfix           1
min_style       fire
variable        tempstp    equal $(step)
variable        tempstp    equal 21274
variable        CellMinStep equal ${tempstp}
variable        CellMinStep equal 21274
minimize        1.0e-15 1.0e-15 10000 100000
WARNING: Using 'neigh_modify every 1 delay 0 check yes' setting during minimization (src/min.cpp:190)
  Parameters for fire: 
    dmax delaystep dtgrow dtshrink alpha0 alphashrink tmax tmin    integrator halfstepback 
     0.1        20    1.1      0.5   0.25        0.99   10 0.02 eulerimplicit          yes 
WARNING: Inconsistent image flags (src/domain.cpp:785)
WARNING: Bond/angle/dihedral extent > half of periodic box length (src/domain.cpp:906)
Per MPI rank memory allocation (min/avg/max) = 21.95 | 21.95 | 21.95 Mbytes
Step Temp E_pair E_mol TotEng Press 
   21274            0    255.24422    2015.1034    2270.3476    140.55648 
   25598 4.2894687e-11    252.06358    2018.1461    2270.2097   -2775.5486 
WARNING: Bond/angle/dihedral extent > half of periodic box length (src/domain.cpp:906)
Loop time of 1.11139 on 1 procs for 4324 steps with 204 atoms

98.8% CPU use with 1 MPI tasks x 1 OpenMP threads

Minimization stats:
  Stopping criterion = energy tolerance
  Energy initial, next-to-last, final = 
         2270.34758522      2270.20966236      2270.20966236
  Force two-norm initial, final = 10.8094 8.69373e-05
  Force max component initial, final = 1.83942 2.76408e-05
  Final line search alpha, max atom move = 0 0
  Iterations, force evaluations = 4324 4324

MPI task timing breakdown:
Section |  min time  |  avg time  |  max time  |%varavg| %total
---------------------------------------------------------------
Pair    | 0.74236    | 0.74236    | 0.74236    |   0.0 | 66.80
Bond    | 0.31228    | 0.31228    | 0.31228    |   0.0 | 28.10
Neigh   | 0          | 0          | 0          |   0.0 |  0.00
Comm    | 0.032191   | 0.032191   | 0.032191   |   0.0 |  2.90
Output  | 0          | 0          | 0          |   0.0 |  0.00
Modify  | 0          | 0          | 0          |   0.0 |  0.00
Other   |            | 0.02455    |            |       |  2.21

Nlocal:    204 ave 204 max 204 min
Histogram: 1 0 0 0 0 0 0 0 0 0
Nghost:    1877 ave 1877 max 1877 min
Histogram: 1 0 0 0 0 0 0 0 0 0
Neighs:    15726 ave 15726 max 15726 min
Histogram: 1 0 0 0 0 0 0 0 0 0

Total # of neighbors = 15726
Ave neighs/atom = 77.0882
Ave special neighs/atom = 5.80392
Neighbor list builds = 0
Dangerous builds = 0
variable        AtomMinStep equal ${tempstp}
variable        AtomMinStep equal 21274
variable        temppe     equal $(pe)
variable        temppe     equal 2270.2096623630468457
variable        min_E      equal abs(${prev_E}-${temppe})
variable        min_E      equal abs(2270.59697573128-${temppe})
variable        min_E      equal abs(2270.59697573128-2270.20966236305)
print           "${iter},${CellMinStep},${AtomMinStep},${AtomMinStep},$(pe),${min_E}" append NiPyC2_relax_sc211_ortho_functionalized_C-3CH3.min.csv screen no
if              "${min_E} < ${min_eval}" then "jump SELF break_min"
variable        prev_E     equal ${temppe}
variable        prev_E     equal 2270.20966236305
next            iter
jump            SELF loop_min
min_style       cg
fix             1 all box/relax aniso 0.0 vmax 0.01
minimize        1.0e-15 1.0e-15 10000 100000
WARNING: Using 'neigh_modify every 1 delay 0 check yes' setting during minimization (src/min.cpp:190)
WARNING: Inconsistent image flags (src/domain.cpp:785)
WARNING: Bond/angle/dihedral extent > half of periodic box length (src/domain.cpp:906)
Per MPI rank memory allocation (min/avg/max) = 23.07 | 23.07 | 23.07 Mbytes
Step Temp E_pair E_mol TotEng Press Volume 
   25598 4.2894687e-11    252.06358    2018.1461    2270.2097   -2775.5486    1822.6765 
   25601 4.2894687e-11    255.75823    2014.3563    2270.1146   -62.500633    1819.9849 
WARNING: Bond/angle/dihedral extent > half of periodic box length (src/domain.cpp:906)
Loop time of 0.0164805 on 1 procs for 3 steps with 204 atoms

99.5% CPU use with 1 MPI tasks x 1 OpenMP threads

Minimization stats:
  Stopping criterion = linesearch alpha is zero
  Energy initial, next-to-last, final = 
         2270.20966236      2270.11455793      2270.11455793
  Force two-norm initial, final = 142.394 7.89287
  Force max component initial, final = 118.059 2.73922
  Final line search alpha, max atom move = 1.47693e-10 4.04564e-10
  Iterations, force evaluations = 3 55

MPI task timing breakdown:
Section |  min time  |  avg time  |  max time  |%varavg| %total
---------------------------------------------------------------
Pair    | 0.010161   | 0.010161   | 0.010161   |   0.0 | 61.65
Bond    | 0.0043808  | 0.0043808  | 0.0043808  |   0.0 | 26.58
Neigh   | 0          | 0          | 0          |   0.0 |  0.00
Comm    | 0.00042456 | 0.00042456 | 0.00042456 |   0.0 |  2.58
Output  | 0          | 0          | 0          |   0.0 |  0.00
Modify  | 0          | 0          | 0          |   0.0 |  0.00
Other   |            | 0.001514   |            |       |  9.19

Nlocal:    204 ave 204 max 204 min
Histogram: 1 0 0 0 0 0 0 0 0 0
Nghost:    1877 ave 1877 max 1877 min
Histogram: 1 0 0 0 0 0 0 0 0 0
Neighs:    15731 ave 15731 max 15731 min
Histogram: 1 0 0 0 0 0 0 0 0 0

Total # of neighbors = 15731
Ave neighs/atom = 77.1127
Ave special neighs/atom = 5.80392
Neighbor list builds = 0
Dangerous builds = 0
unfix           1
min_style       fire
variable        tempstp    equal $(step)
variable        tempstp    equal 25601
variable        CellMinStep equal ${tempstp}
variable        CellMinStep equal 25601
minimize        1.0e-15 1.0e-15 10000 100000
WARNING: Using 'neigh_modify every 1 delay 0 check yes' setting during minimization (src/min.cpp:190)
  Parameters for fire: 
    dmax delaystep dtgrow dtshrink alpha0 alphashrink tmax tmin    integrator halfstepback 
     0.1        20    1.1      0.5   0.25        0.99   10 0.02 eulerimplicit          yes 
WARNING: Inconsistent image flags (src/domain.cpp:785)
WARNING: Bond/angle/dihedral extent > half of periodic box length (src/domain.cpp:906)
Per MPI rank memory allocation (min/avg/max) = 21.95 | 21.95 | 21.95 Mbytes
Step Temp E_pair E_mol TotEng Press 
   25601            0    255.75823    2014.3563    2270.1146   -62.500633 
   28707 6.1616857e-11    254.03886    2016.0849    2270.1237   -1626.0197 
WARNING: Bond/angle/dihedral extent > half of periodic box length (src/domain.cpp:906)
Loop time of 0.813222 on 1 procs for 3106 steps with 204 atoms

97.8% CPU use with 1 MPI tasks x 1 OpenMP threads

Minimization stats:
  Stopping criterion = energy tolerance
  Energy initial, next-to-last, final = 
         2270.11455793      2270.12372219      2270.12372219
  Force two-norm initial, final = 7.15019 3.22082e-05
  Force max component initial, final = 1.51768 1.81714e-05
  Final line search alpha, max atom move = 0 0
  Iterations, force evaluations = 3106 3106

MPI task timing breakdown:
Section |  min time  |  avg time  |  max time  |%varavg| %total
---------------------------------------------------------------
Pair    | 0.54402    | 0.54402    | 0.54402    |   0.0 | 66.90
Bond    | 0.22738    | 0.22738    | 0.22738    |   0.0 | 27.96
Neigh   | 0          | 0          | 0          |   0.0 |  0.00
Comm    | 0.023687   | 0.023687   | 0.023687   |   0.0 |  2.91
Output  | 0          | 0          | 0          |   0.0 |  0.00
Modify  | 0          | 0          | 0          |   0.0 |  0.00
Other   |            | 0.01813    |            |       |  2.23

Nlocal:    204 ave 204 max 204 min
Histogram: 1 0 0 0 0 0 0 0 0 0
Nghost:    1879 ave 1879 max 1879 min
Histogram: 1 0 0 0 0 0 0 0 0 0
Neighs:    15759 ave 15759 max 15759 min
Histogram: 1 0 0 0 0 0 0 0 0 0

Total # of neighbors = 15759
Ave neighs/atom = 77.25
Ave special neighs/atom = 5.80392
Neighbor list builds = 0
Dangerous builds = 0
variable        AtomMinStep equal ${tempstp}
variable        AtomMinStep equal 25601
variable        temppe     equal $(pe)
variable        temppe     equal 2270.1237221855380994
variable        min_E      equal abs(${prev_E}-${temppe})
variable        min_E      equal abs(2270.20966236305-${temppe})
variable        min_E      equal abs(2270.20966236305-2270.12372218554)
print           "${iter},${CellMinStep},${AtomMinStep},${AtomMinStep},$(pe),${min_E}" append NiPyC2_relax_sc211_ortho_functionalized_C-3CH3.min.csv screen no
if              "${min_E} < ${min_eval}" then "jump SELF break_min"
variable        prev_E     equal ${temppe}
variable        prev_E     equal 2270.12372218554
next            iter
jump            SELF loop_min
min_style       cg
fix             1 all box/relax aniso 0.0 vmax 0.01
minimize        1.0e-15 1.0e-15 10000 100000
WARNING: Using 'neigh_modify every 1 delay 0 check yes' setting during minimization (src/min.cpp:190)
WARNING: Inconsistent image flags (src/domain.cpp:785)
WARNING: Bond/angle/dihedral extent > half of periodic box length (src/domain.cpp:906)
Per MPI rank memory allocation (min/avg/max) = 23.07 | 23.07 | 23.07 Mbytes
Step Temp E_pair E_mol TotEng Press Volume 
   28707 6.1616857e-11    254.03886    2016.0849    2270.1237   -1626.0197    1819.9849 
   28710 6.1616857e-11    256.17077    2013.8615    2270.0322   -44.904698    1818.4086 
WARNING: Bond/angle/dihedral extent > half of periodic box length (src/domain.cpp:906)
Loop time of 0.017664 on 1 procs for 3 steps with 204 atoms

77.5% CPU use with 1 MPI tasks x 1 OpenMP threads

Minimization stats:
  Stopping criterion = linesearch alpha is zero
  Energy initial, next-to-last, final = 
         2270.12372219      2270.03224002      2270.03224002
  Force two-norm initial, final = 89.3632 5.3559
  Force max component initial, final = 79.1794 2.00042
  Final line search alpha, max atom move = 4.13893e-10 8.27961e-10
  Iterations, force evaluations = 3 53

MPI task timing breakdown:
Section |  min time  |  avg time  |  max time  |%varavg| %total
---------------------------------------------------------------
Pair    | 0.010742   | 0.010742   | 0.010742   |   0.0 | 60.81
Bond    | 0.0048339  | 0.0048339  | 0.0048339  |   0.0 | 27.37
Neigh   | 0          | 0          | 0          |   0.0 |  0.00
Comm    | 0.00044525 | 0.00044525 | 0.00044525 |   0.0 |  2.52
Output  | 0          | 0          | 0          |   0.0 |  0.00
Modify  | 0          | 0          | 0          |   0.0 |  0.00
Other   |            | 0.001643   |            |       |  9.30

Nlocal:    204 ave 204 max 204 min
Histogram: 1 0 0 0 0 0 0 0 0 0
Nghost:    1879 ave 1879 max 1879 min
Histogram: 1 0 0 0 0 0 0 0 0 0
Neighs:    15754 ave 15754 max 15754 min
Histogram: 1 0 0 0 0 0 0 0 0 0

Total # of neighbors = 15754
Ave neighs/atom = 77.2255
Ave special neighs/atom = 5.80392
Neighbor list builds = 0
Dangerous builds = 0
unfix           1
min_style       fire
variable        tempstp    equal $(step)
variable        tempstp    equal 28710
variable        CellMinStep equal ${tempstp}
variable        CellMinStep equal 28710
minimize        1.0e-15 1.0e-15 10000 100000
WARNING: Using 'neigh_modify every 1 delay 0 check yes' setting during minimization (src/min.cpp:190)
  Parameters for fire: 
    dmax delaystep dtgrow dtshrink alpha0 alphashrink tmax tmin    integrator halfstepback 
     0.1        20    1.1      0.5   0.25        0.99   10 0.02 eulerimplicit          yes 
WARNING: Inconsistent image flags (src/domain.cpp:785)
WARNING: Bond/angle/dihedral extent > half of periodic box length (src/domain.cpp:906)
Per MPI rank memory allocation (min/avg/max) = 21.95 | 21.95 | 21.95 Mbytes
Step Temp E_pair E_mol TotEng Press 
   28710            0    256.17077    2013.8615    2270.0322   -44.904698 
   31301 8.4904498e-11     255.1365    2014.8711    2270.0076   -939.86404 
WARNING: Bond/angle/dihedral extent > half of periodic box length (src/domain.cpp:906)
Loop time of 0.671716 on 1 procs for 2591 steps with 204 atoms

97.9% CPU use with 1 MPI tasks x 1 OpenMP threads

Minimization stats:
  Stopping criterion = energy tolerance
  Energy initial, next-to-last, final = 
         2270.03224002      2270.00759992      2270.00759992
  Force two-norm initial, final = 4.82199 3.73626e-05
  Force max component initial, final = 1.06419 1.83836e-05
  Final line search alpha, max atom move = 0 0
  Iterations, force evaluations = 2591 2591

MPI task timing breakdown:
Section |  min time  |  avg time  |  max time  |%varavg| %total
---------------------------------------------------------------
Pair    | 0.44922    | 0.44922    | 0.44922    |   0.0 | 66.88
Bond    | 0.18824    | 0.18824    | 0.18824    |   0.0 | 28.02
Neigh   | 0          | 0          | 0          |   0.0 |  0.00
Comm    | 0.019341   | 0.019341   | 0.019341   |   0.0 |  2.88
Output  | 0          | 0          | 0          |   0.0 |  0.00
Modify  | 0          | 0          | 0          |   0.0 |  0.00
Other   |            | 0.01492    |            |       |  2.22

Nlocal:    204 ave 204 max 204 min
Histogram: 1 0 0 0 0 0 0 0 0 0
Nghost:    1879 ave 1879 max 1879 min
Histogram: 1 0 0 0 0 0 0 0 0 0
Neighs:    15772 ave 15772 max 15772 min
Histogram: 1 0 0 0 0 0 0 0 0 0

Total # of neighbors = 15772
Ave neighs/atom = 77.3137
Ave special neighs/atom = 5.80392
Neighbor list builds = 0
Dangerous builds = 0
variable        AtomMinStep equal ${tempstp}
variable        AtomMinStep equal 28710
variable        temppe     equal $(pe)
variable        temppe     equal 2270.0075999237155884
variable        min_E      equal abs(${prev_E}-${temppe})
variable        min_E      equal abs(2270.12372218554-${temppe})
variable        min_E      equal abs(2270.12372218554-2270.00759992372)
print           "${iter},${CellMinStep},${AtomMinStep},${AtomMinStep},$(pe),${min_E}" append NiPyC2_relax_sc211_ortho_functionalized_C-3CH3.min.csv screen no
if              "${min_E} < ${min_eval}" then "jump SELF break_min"
variable        prev_E     equal ${temppe}
variable        prev_E     equal 2270.00759992372
next            iter
jump            SELF loop_min
min_style       cg
fix             1 all box/relax aniso 0.0 vmax 0.01
minimize        1.0e-15 1.0e-15 10000 100000
WARNING: Using 'neigh_modify every 1 delay 0 check yes' setting during minimization (src/min.cpp:190)
WARNING: Inconsistent image flags (src/domain.cpp:785)
WARNING: Bond/angle/dihedral extent > half of periodic box length (src/domain.cpp:906)
Per MPI rank memory allocation (min/avg/max) = 23.07 | 23.07 | 23.07 Mbytes
Step Temp E_pair E_mol TotEng Press Volume 
   31301 8.4904498e-11     255.1365    2014.8711    2270.0076   -939.86404    1818.4086 
   31302 8.4904498e-11     255.1365    2014.8711    2270.0076   -939.86404    1818.4086 
WARNING: Bond/angle/dihedral extent > half of periodic box length (src/domain.cpp:906)
Loop time of 0.0161398 on 1 procs for 1 steps with 204 atoms

99.9% CPU use with 1 MPI tasks x 1 OpenMP threads

Minimization stats:
  Stopping criterion = linesearch alpha is zero
  Energy initial, next-to-last, final = 
         2270.00759992      2270.00759992      2270.00759992
  Force two-norm initial, final = 58.3843 58.3843
  Force max component initial, final = 54.8389 54.8389
  Final line search alpha, max atom move = 2.71726e-12 1.49012e-10
  Iterations, force evaluations = 1 53

MPI task timing breakdown:
Section |  min time  |  avg time  |  max time  |%varavg| %total
---------------------------------------------------------------
Pair    | 0.010014   | 0.010014   | 0.010014   |   0.0 | 62.05
Bond    | 0.0042516  | 0.0042516  | 0.0042516  |   0.0 | 26.34
Neigh   | 0          | 0          | 0          |   0.0 |  0.00
Comm    | 0.00040482 | 0.00040482 | 0.00040482 |   0.0 |  2.51
Output  | 0          | 0          | 0          |   0.0 |  0.00
Modify  | 0          | 0          | 0          |   0.0 |  0.00
Other   |            | 0.001469   |            |       |  9.10

Nlocal:    204 ave 204 max 204 min
Histogram: 1 0 0 0 0 0 0 0 0 0
Nghost:    1879 ave 1879 max 1879 min
Histogram: 1 0 0 0 0 0 0 0 0 0
Neighs:    15772 ave 15772 max 15772 min
Histogram: 1 0 0 0 0 0 0 0 0 0

Total # of neighbors = 15772
Ave neighs/atom = 77.3137
Ave special neighs/atom = 5.80392
Neighbor list builds = 0
Dangerous builds = 0
unfix           1
min_style       fire
variable        tempstp    equal $(step)
variable        tempstp    equal 31302
variable        CellMinStep equal ${tempstp}
variable        CellMinStep equal 31302
minimize        1.0e-15 1.0e-15 10000 100000
WARNING: Using 'neigh_modify every 1 delay 0 check yes' setting during minimization (src/min.cpp:190)
  Parameters for fire: 
    dmax delaystep dtgrow dtshrink alpha0 alphashrink tmax tmin    integrator halfstepback 
     0.1        20    1.1      0.5   0.25        0.99   10 0.02 eulerimplicit          yes 
WARNING: Inconsistent image flags (src/domain.cpp:785)
WARNING: Bond/angle/dihedral extent > half of periodic box length (src/domain.cpp:906)
Per MPI rank memory allocation (min/avg/max) = 21.95 | 21.95 | 21.95 Mbytes
Step Temp E_pair E_mol TotEng Press 
   31302            0     255.1365    2014.8711    2270.0076   -939.86404 
   31395 6.8194374e-11    255.13649    2014.8711    2270.0076   -939.86846 
WARNING: Bond/angle/dihedral extent > half of periodic box length (src/domain.cpp:906)
Loop time of 0.0244565 on 1 procs for 93 steps with 204 atoms

100.1% CPU use with 1 MPI tasks x 1 OpenMP threads

Minimization stats:
  Stopping criterion = energy tolerance
  Energy initial, next-to-last, final = 
         2270.00759992      2270.00759992      2270.00759992
  Force two-norm initial, final = 3.73626e-05 3.10351e-05
  Force max component initial, final = 1.83836e-05 1.56699e-05
  Final line search alpha, max atom move = 0 0
  Iterations, force evaluations = 93 93

MPI task timing breakdown:
Section |  min time  |  avg time  |  max time  |%varavg| %total
---------------------------------------------------------------
Pair    | 0.01625    | 0.01625    | 0.01625    |   0.0 | 66.45
Bond    | 0.0067834  | 0.0067834  | 0.0067834  |   0.0 | 27.74
Neigh   | 0          | 0          | 0          |   0.0 |  0.00
Comm    | 0.00069286 | 0.00069286 | 0.00069286 |   0.0 |  2.83
Output  | 0          | 0          | 0          |   0.0 |  0.00
Modify  | 0          | 0          | 0          |   0.0 |  0.00
Other   |            | 0.0007297  |            |       |  2.98

Nlocal:    204 ave 204 max 204 min
Histogram: 1 0 0 0 0 0 0 0 0 0
Nghost:    1879 ave 1879 max 1879 min
Histogram: 1 0 0 0 0 0 0 0 0 0
Neighs:    15772 ave 15772 max 15772 min
Histogram: 1 0 0 0 0 0 0 0 0 0

Total # of neighbors = 15772
Ave neighs/atom = 77.3137
Ave special neighs/atom = 5.80392
Neighbor list builds = 0
Dangerous builds = 0
variable        AtomMinStep equal ${tempstp}
variable        AtomMinStep equal 31302
variable        temppe     equal $(pe)
variable        temppe     equal 2270.0075999234290975
variable        min_E      equal abs(${prev_E}-${temppe})
variable        min_E      equal abs(2270.00759992372-${temppe})
variable        min_E      equal abs(2270.00759992372-2270.00759992343)
print           "${iter},${CellMinStep},${AtomMinStep},${AtomMinStep},$(pe),${min_E}" append NiPyC2_relax_sc211_ortho_functionalized_C-3CH3.min.csv screen no
if              "${min_E} < ${min_eval}" then "jump SELF break_min"
jump SELF break_min
undump          NiPyC2_relax_sc211_ortho_functionalized_C-3CH3_xyzmov

# Dump last snapshot for restart
variable curr_lx equal lx
variable curr_ly equal ly
variable curr_lz equal lz
change_box all x final 0 ${curr_lx} y final 0 ${curr_ly} z final 0 ${curr_lz}
change_box all x final 0 16.0137848778394 y final 0 ${curr_ly} z final 0 ${curr_lz}
change_box all x final 0 16.0137848778394 y final 0 10.5919358251545 z final 0 ${curr_lz}
change_box all x final 0 16.0137848778394 y final 0 10.5919358251545 z final 0 10.7206756585472
  triclinic box = (0 0.965732 -0.223198) to (16.0138 11.5577 10.4975) with tilt (0 -0.237482 0)
  triclinic box = (0 0 -0.223198) to (16.0138 10.5919 10.4975) with tilt (0 -0.237482 0)
  triclinic box = (0 0 0) to (16.0138 10.5919 10.7207) with tilt (0 -0.237482 0)

reset_timestep 0
dump            NiPyC2_relax_sc211_ortho_functionalized_C-3CH3_restart all atom 1 NiPyC2_relax_sc211_ortho_functionalized_C-3CH3_restart.lammpstrj
dump_modify     NiPyC2_relax_sc211_ortho_functionalized_C-3CH3_restart scale no sort id
run 0
WARNING: No fixes defined, atoms won't move (src/verlet.cpp:52)
WARNING: Inconsistent image flags (src/domain.cpp:785)
WARNING: Bond/angle/dihedral extent > half of periodic box length (src/domain.cpp:906)
Per MPI rank memory allocation (min/avg/max) = 21.95 | 21.95 | 21.95 Mbytes
Step Temp E_pair E_mol TotEng Press 
       0 6.8194374e-11    255.13649    2014.8711    2270.0076   -939.86846 
WARNING: Bond/angle/dihedral extent > half of periodic box length (src/domain.cpp:906)
Loop time of 7.7099e-07 on 1 procs for 0 steps with 204 atoms

129.7% CPU use with 1 MPI tasks x 1 OpenMP threads

MPI task timing breakdown:
Section |  min time  |  avg time  |  max time  |%varavg| %total
---------------------------------------------------------------
Pair    | 0          | 0          | 0          |   0.0 |  0.00
Bond    | 0          | 0          | 0          |   0.0 |  0.00
Neigh   | 0          | 0          | 0          |   0.0 |  0.00
Comm    | 0          | 0          | 0          |   0.0 |  0.00
Output  | 0          | 0          | 0          |   0.0 |  0.00
Modify  | 0          | 0          | 0          |   0.0 |  0.00
Other   |            | 7.71e-07   |            |       |100.00

Nlocal:    204 ave 204 max 204 min
Histogram: 1 0 0 0 0 0 0 0 0 0
Nghost:    1825 ave 1825 max 1825 min
Histogram: 1 0 0 0 0 0 0 0 0 0
Neighs:    15772 ave 15772 max 15772 min
Histogram: 1 0 0 0 0 0 0 0 0 0

Total # of neighbors = 15772
Ave neighs/atom = 77.3137
Ave special neighs/atom = 5.80392
Neighbor list builds = 0
Dangerous builds = 0
undump          NiPyC2_relax_sc211_ortho_functionalized_C-3CH3_restart
Total wall time: 0:00:08
units           real
atom_style      full
boundary        p p p

pair_style      lj/cut 5.000
bond_style      harmonic
angle_style     hybrid cosine/periodic fourier
dihedral_style  harmonic
improper_style  fourier

dielectric      1.0
special_bonds   lj/coul 0.0 0.0 1.0
pair_modify     tail yes mix arithmetic
box tilt        large
read_data       data.NiPyC2_relax_sc211_ortho_functionalized_C-3CH3
  triclinic box = (0 0 0) to (12.5056 12.5234 10.2743) with tilt (0 -0.227594 0)
  1 by 1 by 1 MPI processor grid
  reading atoms ...
  204 atoms
  scanning bonds ...
  6 = max bonds/atom
  scanning angles ...
  15 = max angles/atom
  scanning dihedrals ...
  27 = max dihedrals/atom
  scanning impropers ...
  3 = max impropers/atom
  reading bonds ...
  207 bonds
  reading angles ...
  401 angles
  reading dihedrals ...
  466 dihedrals
  reading impropers ...
  168 impropers
  6 = max # of 1-2 neighbors
  11 = max # of 1-3 neighbors
  15 = max # of special neighbors
  special bonds CPU = 0.000249335 secs
  read_data CPU = 0.0082793 secs

#### Atom Groupings ####
group           1        id   188:204
17 atoms in group 1
group           1-1      id   188
1 atoms in group 1-1
group           1-2      id   189
1 atoms in group 1-2
group           1-3      id   190
1 atoms in group 1-3
group           1-4      id   191
1 atoms in group 1-4
group           1-5      id   192
1 atoms in group 1-5
group           1-6      id   193
1 atoms in group 1-6
group           1-7      id   194
1 atoms in group 1-7
group           1-8      id   195
1 atoms in group 1-8
group           1-9      id   196
1 atoms in group 1-9
group           1-10     id   197
1 atoms in group 1-10
group           1-11     id   198
1 atoms in group 1-11
group           1-12     id   199
1 atoms in group 1-12
group           1-13     id   200
1 atoms in group 1-13
group           1-14     id   201
1 atoms in group 1-14
group           1-15     id   202
1 atoms in group 1-15
group           1-16     id   203
1 atoms in group 1-16
group           1-17     id   204
1 atoms in group 1-17
group           fram     id   1:187
187 atoms in group fram
#### END Atom Groupings ####

dump            NiPyC2_relax_sc211_ortho_functionalized_C-3CH3_xyzmov all xyz 20000 NiPyC2_relax_sc211_ortho_functionalized_C-3CH3_mov.xyz
dump_modify     NiPyC2_relax_sc211_ortho_functionalized_C-3CH3_xyzmov element Ni O N C H C C C H
min_style       cg
print           "MinStep,CellMinStep,AtomMinStep,FinalStep,Energy,EDiff,vol,lx,ly,lz,xy,xz,yz" file NiPyC2_relax_sc211_ortho_functionalized_C-3CH3.min.csv screen no
variable        min_eval   equal 1.00e-06
variable        prev_E     equal 50000.00
variable        iter       loop 100000
label           loop_min
min_style       cg
variable        tempstp    equal $(step)
variable        tempstp    equal 0
variable        CellMinStep equal ${tempstp}
variable        CellMinStep equal 0
minimize        1.0e-15 1.0e-15 10000 100000
WARNING: Using 'neigh_modify every 1 delay 0 check yes' setting during minimization (src/min.cpp:190)
Neighbor list info ...
  update every 1 steps, delay 0 steps, check yes
  max neighbors/atom: 2000, page size: 100000
  master list distance cutoff = 7
  ghost atom cutoff = 7
  binsize = 3.5, bins = 4 4 3
  1 neighbor lists, perpetual/occasional/extra = 1 0 0
  (1) pair lj/cut, perpetual
      attributes: half, newton on
      pair build: half/bin/newton/tri
      stencil: half/bin/3d/newton/tri
      bin: standard
WARNING: Inconsistent image flags (src/domain.cpp:785)
WARNING: Bond/angle/dihedral extent > half of periodic box length (src/domain.cpp:906)
Per MPI rank memory allocation (min/avg/max) = 23.07 | 23.07 | 23.07 Mbytes
Step Temp E_pair E_mol TotEng Press 
       0            0 9.4865152e+09    2340.7996 9.4865175e+09 1.6170233e+12 
     966            0    1136.5162    2588.8614    3725.3776    187425.43 
WARNING: Bond/angle/dihedral extent > half of periodic box length (src/domain.cpp:906)
Loop time of 7.88929 on 1 procs for 966 steps with 204 atoms

100.0% CPU use with 1 MPI tasks x 1 OpenMP threads

Minimization stats:
  Stopping criterion = linesearch alpha is zero
  Energy initial, next-to-last, final = 
         9486517530.38      3725.37761989      3725.37761989
  Force two-norm initial, final = 2.11441e+11 131.011
  Force max component initial, final = 1.1474e+11 56.4055
  Final line search alpha, max atom move = 3.75839e-13 2.11994e-11
  Iterations, force evaluations = 966 26679

MPI task timing breakdown:
Section |  min time  |  avg time  |  max time  |%varavg| %total
---------------------------------------------------------------
Pair    | 5.5675     | 5.5675     | 5.5675     |   0.0 | 70.57
Bond    | 1.9937     | 1.9937     | 1.9937     |   0.0 | 25.27
Neigh   | 0.011776   | 0.011776   | 0.011776   |   0.0 |  0.15
Comm    | 0.2176     | 0.2176     | 0.2176     |   0.0 |  2.76
Output  | 0          | 0          | 0          |   0.0 |  0.00
Modify  | 0          | 0          | 0          |   0.0 |  0.00
Other   |            | 0.09868    |            |       |  1.25

Nlocal:    204 ave 204 max 204 min
Histogram: 1 0 0 0 0 0 0 0 0 0
Nghost:    1949 ave 1949 max 1949 min
Histogram: 1 0 0 0 0 0 0 0 0 0
Neighs:    17801 ave 17801 max 17801 min
Histogram: 1 0 0 0 0 0 0 0 0 0

Total # of neighbors = 17801
Ave neighs/atom = 87.2598
Ave special neighs/atom = 5.80392
Neighbor list builds = 9
Dangerous builds = 0
variable        AtomMinStep equal ${tempstp}
variable        AtomMinStep equal 0
variable        temppe     equal $(pe)
variable        temppe     equal 3725.3776198887180726
variable        min_E      equal abs(${prev_E}-${temppe})
variable        min_E      equal abs(50000-${temppe})
variable        min_E      equal abs(50000-3725.37761988872)
print           "${iter},${CellMinStep},${AtomMinStep},${AtomMinStep},$(pe),${min_E},$(vol),$(lx),$(ly),$(lz),$(xy),$(xz),$(yz)" append NiPyC2_relax_sc211_ortho_functionalized_C-3CH3.min.csv screen no
if              "${min_E} < ${min_eval}" then "jump SELF break_min"
variable        prev_E     equal ${temppe}
variable        prev_E     equal 3725.37761988872
next            iter
jump            SELF loop_min
min_style       cg
variable        tempstp    equal $(step)
variable        tempstp    equal 966
variable        CellMinStep equal ${tempstp}
variable        CellMinStep equal 966
minimize        1.0e-15 1.0e-15 10000 100000
WARNING: Using 'neigh_modify every 1 delay 0 check yes' setting during minimization (src/min.cpp:190)
WARNING: Inconsistent image flags (src/domain.cpp:785)
WARNING: Bond/angle/dihedral extent > half of periodic box length (src/domain.cpp:906)
Per MPI rank memory allocation (min/avg/max) = 23.07 | 23.07 | 23.07 Mbytes
Step Temp E_pair E_mol TotEng Press 
     966            0    1136.5162    2588.8614    3725.3776    187425.43 
     969            0    1136.5161    2588.8597    3725.3758    187425.42 
WARNING: Bond/angle/dihedral extent > half of periodic box length (src/domain.cpp:906)
Loop time of 0.0331222 on 1 procs for 3 steps with 204 atoms

100.0% CPU use with 1 MPI tasks x 1 OpenMP threads

Minimization stats:
  Stopping criterion = linesearch alpha is zero
  Energy initial, next-to-last, final = 
         3725.37761989      3725.37581555      3725.37581555
  Force two-norm initial, final = 131.011 79.6282
  Force max component initial, final = 56.4055 41.7052
  Final line search alpha, max atom move = 1.11655e-12 4.65661e-11
  Iterations, force evaluations = 3 101

MPI task timing breakdown:
Section |  min time  |  avg time  |  max time  |%varavg| %total
---------------------------------------------------------------
Pair    | 0.023266   | 0.023266   | 0.023266   |   0.0 | 70.24
Bond    | 0.0083127  | 0.0083127  | 0.0083127  |   0.0 | 25.10
Neigh   | 0          | 0          | 0          |   0.0 |  0.00
Comm    | 0.00091775 | 0.00091775 | 0.00091775 |   0.0 |  2.77
Output  | 0          | 0          | 0          |   0.0 |  0.00
Modify  | 0          | 0          | 0          |   0.0 |  0.00
Other   |            | 0.0006255  |            |       |  1.89

Nlocal:    204 ave 204 max 204 min
Histogram: 1 0 0 0 0 0 0 0 0 0
Nghost:    1955 ave 1955 max 1955 min
Histogram: 1 0 0 0 0 0 0 0 0 0
Neighs:    17805 ave 17805 max 17805 min
Histogram: 1 0 0 0 0 0 0 0 0 0

Total # of neighbors = 17805
Ave neighs/atom = 87.2794
Ave special neighs/atom = 5.80392
Neighbor list builds = 0
Dangerous builds = 0
variable        AtomMinStep equal ${tempstp}
variable        AtomMinStep equal 966
variable        temppe     equal $(pe)
variable        temppe     equal 3725.3758155514487953
variable        min_E      equal abs(${prev_E}-${temppe})
variable        min_E      equal abs(3725.37761988872-${temppe})
variable        min_E      equal abs(3725.37761988872-3725.37581555145)
print           "${iter},${CellMinStep},${AtomMinStep},${AtomMinStep},$(pe),${min_E},$(vol),$(lx),$(ly),$(lz),$(xy),$(xz),$(yz)" append NiPyC2_relax_sc211_ortho_functionalized_C-3CH3.min.csv screen no
if              "${min_E} < ${min_eval}" then "jump SELF break_min"
variable        prev_E     equal ${temppe}
variable        prev_E     equal 3725.37581555145
next            iter
jump            SELF loop_min
min_style       cg
variable        tempstp    equal $(step)
variable        tempstp    equal 969
variable        CellMinStep equal ${tempstp}
variable        CellMinStep equal 969
minimize        1.0e-15 1.0e-15 10000 100000
WARNING: Using 'neigh_modify every 1 delay 0 check yes' setting during minimization (src/min.cpp:190)
WARNING: Inconsistent image flags (src/domain.cpp:785)
WARNING: Bond/angle/dihedral extent > half of periodic box length (src/domain.cpp:906)
Per MPI rank memory allocation (min/avg/max) = 23.07 | 23.07 | 23.07 Mbytes
Step Temp E_pair E_mol TotEng Press 
     969            0    1136.5161    2588.8597    3725.3758    187425.42 
     970            0    1136.5161    2588.8597    3725.3758    187425.42 
WARNING: Bond/angle/dihedral extent > half of periodic box length (src/domain.cpp:906)
Loop time of 0.018512 on 1 procs for 1 steps with 204 atoms

100.0% CPU use with 1 MPI tasks x 1 OpenMP threads

Minimization stats:
  Stopping criterion = linesearch alpha is zero
  Energy initial, next-to-last, final = 
         3725.37581555      3725.37581555      3725.37581555
  Force two-norm initial, final = 79.6282 79.6282
  Force max component initial, final = 41.7052 41.7052
  Final line search alpha, max atom move = 1.11655e-12 4.65661e-11
  Iterations, force evaluations = 1 62

MPI task timing breakdown:
Section |  min time  |  avg time  |  max time  |%varavg| %total
---------------------------------------------------------------
Pair    | 0.012865   | 0.012865   | 0.012865   |   0.0 | 69.49
Bond    | 0.0046383  | 0.0046383  | 0.0046383  |   0.0 | 25.06
Neigh   | 0          | 0          | 0          |   0.0 |  0.00
Comm    | 0.0005166  | 0.0005166  | 0.0005166  |   0.0 |  2.79
Output  | 0          | 0          | 0          |   0.0 |  0.00
Modify  | 0          | 0          | 0          |   0.0 |  0.00
Other   |            | 0.0004924  |            |       |  2.66

Nlocal:    204 ave 204 max 204 min
Histogram: 1 0 0 0 0 0 0 0 0 0
Nghost:    1955 ave 1955 max 1955 min
Histogram: 1 0 0 0 0 0 0 0 0 0
Neighs:    17805 ave 17805 max 17805 min
Histogram: 1 0 0 0 0 0 0 0 0 0

Total # of neighbors = 17805
Ave neighs/atom = 87.2794
Ave special neighs/atom = 5.80392
Neighbor list builds = 0
Dangerous builds = 0
variable        AtomMinStep equal ${tempstp}
variable        AtomMinStep equal 969
variable        temppe     equal $(pe)
variable        temppe     equal 3725.3758155514465216
variable        min_E      equal abs(${prev_E}-${temppe})
variable        min_E      equal abs(3725.37581555145-${temppe})
variable        min_E      equal abs(3725.37581555145-3725.37581555145)
print           "${iter},${CellMinStep},${AtomMinStep},${AtomMinStep},$(pe),${min_E},$(vol),$(lx),$(ly),$(lz),$(xy),$(xz),$(yz)" append NiPyC2_relax_sc211_ortho_functionalized_C-3CH3.min.csv screen no
if              "${min_E} < ${min_eval}" then "jump SELF break_min"
jump SELF break_min
undump          NiPyC2_relax_sc211_ortho_functionalized_C-3CH3_xyzmov

# Dump last snapshot for restart
variable curr_lx equal lx
variable curr_ly equal ly
variable curr_lz equal lz
change_box all x final 0 ${curr_lx} y final 0 ${curr_ly} z final 0 ${curr_lz}
change_box all x final 0 12.5056 y final 0 ${curr_ly} z final 0 ${curr_lz}
change_box all x final 0 12.5056 y final 0 12.5234 z final 0 ${curr_lz}
change_box all x final 0 12.5056 y final 0 12.5234 z final 0 10.274279
  triclinic box = (0 0 0) to (12.5056 12.5234 10.2743) with tilt (0 -0.227594 0)
  triclinic box = (0 0 0) to (12.5056 12.5234 10.2743) with tilt (0 -0.227594 0)
  triclinic box = (0 0 0) to (12.5056 12.5234 10.2743) with tilt (0 -0.227594 0)

reset_timestep 0
dump            NiPyC2_relax_sc211_ortho_functionalized_C-3CH3_restart all atom 1 NiPyC2_relax_sc211_ortho_functionalized_C-3CH3_restart.lammpstrj
dump_modify     NiPyC2_relax_sc211_ortho_functionalized_C-3CH3_restart scale no sort id
run 0
WARNING: No fixes defined, atoms won't move (src/verlet.cpp:52)
WARNING: Inconsistent image flags (src/domain.cpp:785)
WARNING: Bond/angle/dihedral extent > half of periodic box length (src/domain.cpp:906)
Per MPI rank memory allocation (min/avg/max) = 21.95 | 21.95 | 21.95 Mbytes
Step Temp E_pair E_mol TotEng Press 
       0            0    1136.5161    2588.8597    3725.3758    187425.42 
WARNING: Bond/angle/dihedral extent > half of periodic box length (src/domain.cpp:906)
Loop time of 7.77e-07 on 1 procs for 0 steps with 204 atoms

128.7% CPU use with 1 MPI tasks x 1 OpenMP threads

MPI task timing breakdown:
Section |  min time  |  avg time  |  max time  |%varavg| %total
---------------------------------------------------------------
Pair    | 0          | 0          | 0          |   0.0 |  0.00
Bond    | 0          | 0          | 0          |   0.0 |  0.00
Neigh   | 0          | 0          | 0          |   0.0 |  0.00
Comm    | 0          | 0          | 0          |   0.0 |  0.00
Output  | 0          | 0          | 0          |   0.0 |  0.00
Modify  | 0          | 0          | 0          |   0.0 |  0.00
Other   |            | 7.77e-07   |            |       |100.00

Nlocal:    204 ave 204 max 204 min
Histogram: 1 0 0 0 0 0 0 0 0 0
Nghost:    1955 ave 1955 max 1955 min
Histogram: 1 0 0 0 0 0 0 0 0 0
Neighs:    17805 ave 17805 max 17805 min
Histogram: 1 0 0 0 0 0 0 0 0 0

Total # of neighbors = 17805
Ave neighs/atom = 87.2794
Ave special neighs/atom = 5.80392
Neighbor list builds = 0
Dangerous builds = 0
undump          NiPyC2_relax_sc211_ortho_functionalized_C-3CH3_restart
Total wall time: 0:00:07
