ITEM: TIMESTEP
0
ITEM: NUMBER OF ATOMS
204
ITEM: BOX BOUNDS xy xz yz pp pp pp
-2.3748249933950427e-01 1.6013784877839399e+01 0.0000000000000000e+00
0.0000000000000000e+00 1.0591935825154501e+01 -2.3748249933950427e-01
0.0000000000000000e+00 1.0720675658547201e+01 0.0000000000000000e+00
ITEM: ATOMS id type x y z
1 1 1.99658 8.93739 9.18019
2 1 6.22391 3.9376 4.17161
3 2 15.5332 4.33135 4.10797
4 2 3.43168 7.93569 9.27367
5 2 4.75461 3.05285 4.3048
6 2 0.53387 9.93018 9.30082
7 2 5.87754 5.21788 5.40745
8 2 1.6507 7.71199 10.4889
9 2 13.9749 2.37036 4.99448
10 2 2.36396 10.1175 10.5151
11 3 2.88399 10.2196 7.86238
12 3 14.6665 2.35739 2.32876
13 3 1.15233 7.69845 7.8169
14 3 5.52524 5.15078 2.67792
15 4 3.26671 0.72692 5.73317
16 4 0.301422 2.21831 0.474472
17 5 3.29161 0.413322 4.70255
18 5 7.01295 2.18859 10.3083
19 4 4.31217 1.53489 6.2328
20 4 0.431845 0.829216 0.590119
21 4 4.49194 1.43193 7.59152
22 4 15.4337 0.252415 1.3816
23 5 11.3861 3.16555 6.92585
24 5 15.2232 9.79033 1.3182
25 4 0.371367 7.13623 5.57036
26 4 4.92431 5.42778 0.289258
27 5 0.152082 7.51206 4.5913
28 5 11.0929 5.33832 10.621
29 4 1.20772 7.89787 6.45897
30 4 5.80098 4.91053 1.3409
31 5 1.96363 8.47721 6.04343
32 4 2.37229 0.0721733 6.6721
33 4 15.3006 2.93197 1.23231
34 5 1.33043 10.5235 6.43888
35 4 4.17825 0.14836 8.13761
36 4 15.026 0.995348 2.53846
37 4 0.169973 6.75524 8.20257
38 4 4.56597 6.16401 2.86914
39 4 0.046443 5.6264 7.353
40 4 4.33929 7.09724 1.81303
41 5 6.51158 6.18493 7.95251
42 5 3.95607 8.0811 2.03621
43 4 15.7895 5.93804 6.02384
44 4 4.09722 6.54639 0.575861
45 4 5.23982 2.35645 5.30685
46 4 1.07795 0.000336147 10.3095
47 4 14.9773 5.01601 5.10128
48 4 2.92285 7.23222 10.2539
49 1 10.1376 9.42673 9.54484
50 1 13.9458 3.64579 3.76498
51 2 7.75913 4.85688 4.32835
52 2 11.6881 8.58805 9.68072
53 2 12.2949 2.93911 3.69118
54 2 8.60586 10.2778 9.71667
55 2 13.6139 4.82713 5.10944
56 2 10.1576 8.39433 0.252668
57 2 6.52565 2.76849 5.5552
58 2 10.5064 0.173943 10.6928
59 3 10.6768 0.00640212 7.94264
60 3 6.95551 2.5881 2.90684
61 3 9.41248 7.94478 8.3611
62 3 13.5635 5.03941 2.43794
63 4 11.2126 0.149755 5.54775
64 4 7.43873 1.94291 0.622166
65 5 11.2597 10.2384 4.59256
66 5 0.66653 2.73508 10.4781
67 4 11.677 1.47037 5.671
68 4 8.63643 1.3013 0.950738
69 4 11.3338 2.09259 6.85754
70 4 9.01856 1.36827 2.29687
71 5 5.20214 2.08289 8.07706
72 5 9.96394 0.946425 2.61313
73 4 9.36348 6.74175 6.22517
74 4 12.0041 5.65315 0.672112
75 5 9.88015 6.47009 5.31802
76 5 4.86174 5.1445 9.98297
77 4 10.079 7.4492 7.26008
78 4 12.7149 4.69172 1.42615
79 5 11.1305 7.65279 7.13108
80 5 6.77232 4.56695 1.07047
81 4 10.4699 10.1639 6.63872
82 4 6.46338 2.25221 1.6529
83 5 9.56048 9.64588 6.39107
84 5 15.147 3.96369 1.01699
85 4 11.2965 1.28468 8.03523
86 4 8.20527 2.07957 3.24099
87 5 8.61694 2.28607 4.21631
88 4 8.25925 7.24788 8.71578
89 4 13.702 6.39007 2.71793
90 5 14.3707 6.72606 3.47887
91 4 7.462 6.62591 7.68617
92 4 12.9826 7.37929 1.98749
93 5 15.7754 4.66407 7.75521
94 5 13.1147 8.42712 2.22849
95 4 8.00307 6.36703 6.4073
96 4 12.1453 7.00291 0.929292
97 4 12.6754 2.11556 4.68383
98 4 9.19423 0.502518 10.6023
99 4 7.18008 5.61137 5.28585
100 4 11.4241 8.01877 0.0690816
101 6 5.41211 9.79639 8.14595
102 6 5.65232 9.24018 9.55712
103 5 5.8564 8.1627 9.50703
104 5 6.45554 9.75179 10.0866
105 5 4.80883 9.41937 10.2431
106 6 6.73176 10.5035 7.6848
107 5 6.66191 0.262611 6.63506
108 5 6.99019 0.778605 8.32336
109 5 7.57458 9.78947 7.67272
110 6 5.21616 8.70586 7.08624
111 5 6.14249 8.43164 6.54899
112 5 4.80303 7.76563 7.47383
113 5 4.5944 9.11817 6.28345
114 6 15.8177 0.568957 3.81098
115 6 0.570058 1.79865 4.34455
116 5 0.696812 2.54725 3.56588
117 5 1.61752 1.66176 4.42837
118 5 0.229818 2.19713 5.31312
119 6 14.8808 10.4702 4.84724
120 5 13.838 10.4117 4.48293
121 5 14.9248 0.348027 5.85044
122 5 15.1339 9.41695 5.02281
123 6 0.912776 10.1033 3.47564
124 5 0.464448 9.1987 3.04052
125 5 1.43348 9.75443 4.36653
126 5 1.68904 10.4983 2.78571
127 6 14.7718 7.25658 8.67012
128 6 14.7314 7.73276 10.1266
129 5 15.5623 8.31313 10.4552
130 5 13.8887 8.39988 10.3153
131 5 14.8938 6.87069 0.0943002
132 6 13.6941 6.1212 8.62105
133 5 13.49 5.77354 7.58836
134 5 13.9976 5.2584 9.25121
135 5 12.7181 6.4744 8.98921
136 6 14.2595 8.33746 7.68457
137 5 14.8237 9.28487 7.75096
138 5 14.2802 7.98991 6.64214
139 5 13.183 8.51739 7.80379
140 6 3.42853 6.13138 3.90373
141 6 3.04535 4.90832 4.75426
142 5 3.72458 4.66112 5.57617
143 5 2.1535 5.14652 5.35291
144 5 2.71861 4.05617 4.1313
145 6 2.09406 6.45464 3.14201
146 5 1.92141 7.53899 3.05284
147 5 2.09449 6.05082 2.12142
148 5 1.19513 5.96184 3.52448
149 6 3.82778 7.27385 4.82135
150 5 4.9291 7.4006 4.87035
151 5 3.4512 8.25537 4.4645
152 5 3.52326 7.06475 5.85014
153 6 12.3941 1.63887 9.07972
154 6 13.117 0.417425 9.65731
155 5 13.0517 10.2317 8.92062
156 5 14.2026 0.555865 9.73858
157 5 12.7887 0.0913862 10.66
158 6 11.7849 2.53678 10.163
159 5 12.3799 2.26908 0.458577
160 5 12.0523 3.57249 9.93496
161 5 10.6812 2.56172 10.1606
162 6 13.5464 2.46417 8.40696
163 5 13.9919 1.87518 7.58102
164 5 13.2214 3.43249 7.98799
165 5 14.3181 2.73949 9.15219
166 6 5.01926 1.68141 1.44933
167 6 3.75536 2.36337 2.03998
168 5 3.83914 3.45149 2.11374
169 5 2.84765 2.2007 1.42958
170 5 3.41063 1.88469 2.96975
171 6 5.04672 0.226373 1.96135
172 5 5.18428 0.215286 3.06324
173 5 4.09264 10.3063 1.74123
174 5 5.88664 10.239 1.52786
175 6 4.5152 1.74387 10.6673
176 5 5.18362 1.05233 10.1735
177 5 3.48787 1.5181 10.352
178 5 4.73619 2.75853 10.2856
179 7 8.20474 6.57668 10.0424
180 6 7.81544 7.24721 0.525849
181 5 7.92358 8.34264 0.539429
182 5 6.74565 7.1034 0.537461
183 5 8.23807 6.83003 1.46279
184 6 8.47301 5.09958 10.0954
185 5 9.24681 4.81854 9.3572
186 5 9.04813 4.7884 0.384157
187 5 7.54996 4.55353 9.82911
188 8 9.36125 8.60683 3.34557
189 9 6.82923 9.58338 4.41914
190 9 8.86935 2.48309 8.6405
191 9 4.9828 4.4222 7.67307
192 8 10.1834 4.9718 3.06376
193 8 2.68998 3.7571 8.9345
194 9 8.60913 1.57401 6.43661
195 9 1.54828 3.95555 2.15869
196 9 0.000861084 7.39897 1.88193
197 8 0.728905 5.2104 10.6377
198 9 12.3544 7.86114 4.9523
199 9 9.20632 3.85022 6.39363
200 9 7.13896 3.65268 7.78628
201 8 0.499362 1.96913 7.96122
202 9 11.1007 5.05072 8.06964
203 9 3.20041 5.9406 7.69077
204 9 2.09763 3.15149 6.40515
