204
Atoms. Timestep: 0
Ni 2.89857 9.41116 8.59265
Ni 6.17525 3.10579 3.48481
O 1.44827 4.35425 3.93374
O 4.4416 8.15245 9.05464
O 4.63665 1.84729 3.87523
O 1.36499 10.6744 9.00295
O 5.80609 4.46033 4.96242
O 2.54244 8.0327 10.0675
O 0.25117 1.69264 4.94273
O 3.23722 10.8047 10.0626
N 3.69677 10.6606 7.2416
N 0.71256 1.8642 2.11704
N 2.17217 8.14409 7.25198
N 5.44023 4.39481 2.13747
C 3.48546 12.1483 5.36301
C 0.47488 0.38955 0.2292
H 2.86453 12.5181 4.55267
H 5.86971 0.03371 9.69377
C 4.76073 0.1474 5.61481
C 1.74333 12.3699 0.47412
C 5.50345 12.1502 6.68209
C 2.49852 0.35508 1.54004
H 0.24768 12.5084 6.91993
C 2.48363 6.6337 5.40822
C 5.72803 5.90364 0.28669
H 3.13294 6.27291 4.61605
H -0.10828 6.26667 9.7662
C 2.92756 7.68099 6.23068
C 6.1883 4.86756 1.11596
H 3.89994 8.14655 6.0889
H 0.91589 4.41889 0.97634
C 2.98256 11.1359 6.19748
C -0.01036 1.40553 1.07106
H 1.99392 10.709 6.04703
H 5.26093 1.85011 0.92351
C 4.93641 11.1381 7.47507
C 1.94823 1.3719 2.3406
H 5.48559 10.7097 8.30944
H 2.50886 1.79214 3.17267
C 0.94573 7.62654 7.47302
C 4.21083 4.90458 2.35686
H 0.36328 8.05184 8.28732
H 3.63605 4.47744 3.17528
C 0.43859 6.57577 6.69176
C 3.68763 5.945 1.56944
H 5.70774 6.17693 6.91975
H 2.69824 6.32683 1.80071
C 1.22745 6.06471 5.65205
C 4.46338 6.45777 0.52027
C 5.3126 1.24381 4.79419
C 2.0502 11.2675 9.92158
C 0.73548 4.94016 4.83586
C 3.73174 7.56629 9.95688
Ni 9.15137 9.41116 8.59265
Ni 12.4281 3.10579 3.48481
O 7.70109 4.35425 3.93374
O 10.6944 8.15245 9.05464
O 10.8895 1.84729 3.87523
O 7.61779 10.6744 9.00295
O 12.0589 4.46033 4.96242
O 8.79524 8.0327 10.0675
O 6.50397 1.69264 4.94273
O 9.49002 10.8047 10.0626
N 9.94957 10.6606 7.2416
N 6.96536 1.8642 2.11704
N 8.42499 8.14409 7.25198
N 11.693 4.39481 2.13747
C 9.73826 12.1483 5.36301
C 6.72768 0.38955 0.2292
H 12.1225 0.03371 9.69377
C 11.0135 0.1474 5.61481
C 7.99613 12.3699 0.47412
C 11.7562 12.1502 6.68209
C 8.75132 0.35508 1.54004
C 8.73644 6.6337 5.40822
C 11.9808 5.90364 0.28669
C 9.18036 7.68099 6.23068
C 12.4411 4.86756 1.11596
H 10.1527 8.14655 6.0889
H 7.16869 4.41889 0.97634
C 9.23536 11.1359 6.19748
C 6.24244 1.40553 1.07106
H 8.24672 10.709 6.04703
H 11.5137 1.85011 0.92351
C 11.1892 11.1381 7.47507
C 8.20102 1.3719 2.3406
H 11.7384 10.7097 8.30944
H 8.76167 1.79214 3.17267
C 7.19853 7.62654 7.47302
C 10.4636 4.90458 2.35686
H 6.61608 8.05184 8.28732
H 9.88885 4.47744 3.17528
C 6.69139 6.57577 6.69176
C 9.94043 5.945 1.56944
C 7.48025 6.06471 5.65205
C 10.7162 6.45777 0.52027
C 11.5654 1.24381 4.79419
C 8.303 11.2675 9.92158
C 6.98827 4.94016 4.83586
C 9.98454 7.56629 9.95688
C 6.97845 0.09761 7.08546
C 7.57 11.8705 8.31875
H 7.65721 10.7782 8.12909
H 8.59415 12.2349 8.556
H 6.95491 12.0347 9.23059
C 6.96961 1.5872 7.51955
H 6.32438 1.70968 8.41672
H 7.99508 1.92242 7.78805
H 6.5833 2.30908 6.79435
C 7.97688 12.3084 5.93967
H 8.01367 11.2106 5.76715
H 7.75282 0.21655 4.95998
H 9.00097 0.12269 6.21034
C 3.96988 12.3885 1.93334
C 4.57739 0.604 3.16585
H 4.67673 1.69587 2.97952
H 5.59837 0.22639 3.39604
H 3.96549 0.44402 4.08059
C 3.94547 10.8976 2.36227
H 3.30386 10.7797 3.26265
H 4.96832 10.549 2.62378
H 3.5464 10.183 1.63676
C 4.96556 0.16968 0.78301
H 5.01465 1.26753 0.61411
H 4.50322 12.2677 10.0774
H 5.98701 12.3421 1.04669
C 11.482 6.05167 7.07252
C 10.8319 6.80241 8.27582
H 10.7036 7.88586 8.06033
H 9.81866 6.40025 8.49869
H 11.4324 6.68353 9.20423
C 11.543 4.57323 7.53937
H 12.1722 4.49698 8.45284
H 10.5265 4.20087 7.79278
H 11.9753 3.85316 6.83881
C 10.4976 6.29773 5.89867
H 10.4191 7.38909 5.70128
H 10.7616 5.85545 4.93381
H 9.4826 5.92299 6.15433
C 6.49636 6.36518 9.39316
C 7.84337 5.57866 9.35938
H 8.64708 5.71438 0.0266
H 8.49595 5.93724 8.5326
H 7.67816 4.49268 9.18587
C 5.8637 6.08873 8.00364
H 5.69287 4.99671 7.88301
H 6.54589 6.41956 7.19051
H 4.89183 6.54932 7.80474
C 6.92694 7.84099 9.6029
H 7.70362 7.9354 0.29081
H 6.12635 8.58385 9.66162
H 7.60767 8.16943 8.78756
C 8.77803 0.09716 4.17107
C 7.411 11.8702 4.12154
H 7.54983 10.778 3.96523
H 6.78411 12.2352 3.27783
H 6.82113 12.0341 5.04997
C 8.38385 1.58671 4.35345
H 7.81948 1.70879 5.30361
H 7.72781 1.92242 3.52102
H 9.2031 2.30845 4.41797
C 9.42904 12.3086 2.79767
H 9.57234 11.2108 2.69443
H 10.4167 0.21668 2.61157
H 8.77157 0.12333 1.96736
C 10.2227 12.3885 1.93334
C 10.8302 0.60402 3.16587
H 10.9295 1.69588 2.97953
H 11.8512 0.22641 3.39605
H 10.2183 0.44402 4.08059
C 10.1983 10.8976 2.36227
H 9.55668 10.7797 3.26265
H 11.2211 10.5491 2.62379
H 9.79921 10.183 1.63676
C 11.2184 0.16969 0.78302
H 11.2674 1.26756 0.61411
H 10.756 12.2678 10.0774
H 12.2398 12.3421 1.0467
C 9.73413 6.17957 4.2417
C 11.0693 6.98558 4.19852
H 11.6502 6.86456 5.13908
H 11.7246 6.63118 3.37208
H 10.8876 8.06784 4.01844
C 9.09323 6.4375 2.8524
H 8.90596 7.52607 2.72515
H 9.77774 6.11138 2.0393
H 8.12764 5.96136 2.65958
C 10.187 4.71167 4.45975
H 10.7404 4.63169 5.4208
H 9.39765 3.95751 4.52586
H 10.87 4.38791 3.64444
C 8.47455 6.4556 1.95635
C 7.8407 5.70675 3.16945
H 7.72305 4.62036 2.96287
H 6.82455 6.09933 3.39601
H 8.44594 5.83924 4.09296
C 8.52216 7.93807 2.41178
H 9.15648 8.02814 3.3205
H 7.50331 8.30106 2.66913
H 8.94193 8.65761 1.70305
C 7.48538 6.18985 0.79087
H 7.41769 5.09623 0.60211
H 7.51053 6.62778 10.0953
H 6.46795 6.55525 1.05044
204
Atoms. Timestep: 1411
Ni 2.45621 9.01445 8.527
Ni 6.52609 3.57735 3.28459
O 0.663716 4.26712 3.49396
O 3.90233 8.05567 8.6226
O 5.02876 2.58429 3.43834
O 0.961205 9.96281 8.74771
O 6.11568 4.85092 4.54029
O 2.04645 7.73137 9.73927
O -0.437088 2.06741 4.58737
O 2.89119 10.0858 9.86212
N 3.22072 10.3212 7.1996
N -0.162883 2.18901 1.907
N 1.72886 7.89165 7.13605
N 5.74263 4.72848 1.85609
C 3.24907 1.05776 5.48524
C 1.66281 1.65846 0.398198
H 2.70487 1.65646 4.76788
H 7.42112 10.1651 0.701544
C 4.67852 1.20914 5.59864
C 1.19351 11.4115 0.234725
C 5.2197 11.5984 6.72109
C 0.173106 10.973 1.15227
H -0.741229 11.0932 6.47902
C 1.64876 6.8646 4.94314
C 5.45646 5.90687 10.2924
H 1.94803 6.87444 3.90295
H -1.17113 6.56152 9.92845
C 2.19681 7.8246 5.85523
C 6.39861 5.17601 0.739062
H 2.9485 8.51474 5.51926
H 0.226224 5.18908 1.04233
C 2.52384 11.2037 6.39341
C 1.02587 2.53248 1.29826
H 1.44936 11.1982 6.3966
H 6.04456 11.7402 2.06391
C 4.58799 10.3704 7.05983
C -0.673167 0.941513 1.65992
H 5.18522 9.51251 7.26522
H 13.6544 11.7098 2.06647
C 0.698854 7.06353 7.48054
C 4.39197 5.00243 1.97076
H 0.0681329 7.31065 8.31744
H 3.85593 4.67449 2.85105
C 0.516574 5.84636 6.79754
C 3.67256 5.74427 0.992491
H 6.72444 7.78337 5.6487
H 2.61753 5.9324 1.14332
C 0.749155 5.8776 5.41665
C 4.31348 6.28466 -0.127165
C 5.5684 1.9647 4.50132
C 1.61366 10.5249 9.79185
C 0.0363501 4.93758 4.47185
C 3.31504 7.29003 9.55339
Ni 10.5507 8.92892 8.76251
Ni -0.83435 3.33221 3.341
O 7.99134 4.58459 3.43486
O 11.9972 7.90577 8.83855
O 12.9473 2.38371 3.49769
O 9.08632 9.93394 8.98177
O -1.22267 4.46769 4.65636
O 10.0776 7.61991 9.91049
O 6.85782 2.43398 4.65712
O 10.9324 9.98916 10.215
N 11.4085 10.2152 7.54284
N 7.40547 2.31099 1.92796
N 9.76536 7.92218 7.22161
N 13.7185 4.60762 2.0369
C 11.3083 11.6973 5.59796
C 7.82048 11.1404 0.92569
H 2.55028 1.98671 -0.133352
C 12.7492 0.813754 5.56975
C 9.09955 11.5001 0.384383
C 13.4614 11.1262 6.53063
C 9.45126 1.82342 0.517934
C 9.69044 6.22486 5.49132
C 13.7658 6.04546 0.0537036
C 10.2571 6.74913 6.71576
C -0.845282 5.18909 1.00969
H 11.2125 6.38797 7.05441
H 7.4524 5.01359 0.682272
C 10.6926 10.9448 6.67249
C 6.99539 1.01771 1.6915
H 9.65118 11.0211 6.8618
H 1.51131 3.46393 1.51926
C 12.7884 10.3174 7.50308
C 8.66658 2.6625 1.43466
H 13.3861 9.78391 8.22928
H 9.07778 3.60697 1.71405
C 8.53964 8.33682 6.7082
C 12.4294 5.00946 2.21893
H 8.16001 9.315 6.93532
H 11.8852 4.64032 3.06862
C 7.71243 7.46246 5.91365
C 11.7347 5.73958 1.23318
C 8.24765 6.27631 5.36991
C 12.3761 6.2967 0.155373
C 13.5352 1.66633 4.47859
C 9.64943 10.4948 10.0526
C 7.40551 5.3394 4.36246
C 11.3638 7.15294 9.74045
C 5.71415 1.40026 7.90299
C 5.31245 0.80253 9.26823
H 4.22633 0.894819 9.42129
H 5.64201 10.8039 9.38346
H 5.7486 1.38684 10.0745
C 5.06582 2.80903 7.88332
H 3.96455 2.69585 7.91728
H 5.31337 3.41535 8.77113
H 5.31242 3.37212 6.9698
C 7.23741 1.43502 7.84566
H 7.62089 11.4776 7.61347
H 7.58221 2.1148 7.07483
H 7.69932 1.74391 8.7918
C 0.482398 9.83155 2.13417
C -0.673575 9.52212 3.12321
H -0.90487 10.3912 3.75977
H -0.376963 8.74665 3.85715
H 13.6841 9.20116 2.58538
C 0.806598 8.54214 1.38713
H 0.137812 8.40841 0.511376
H 0.762035 7.63912 2.01976
H 1.84633 8.61023 1.08192
C 1.68184 10.2922 2.97482
H 1.43991 11.2417 3.49406
H 2.55463 10.4885 2.31895
H 1.95421 9.53811 3.73206
C 0.582713 4.51714 7.58946
C 1.25377 4.71844 8.96312
H 0.768791 5.5029 9.5565
H 1.20385 3.79457 9.55126
H 2.32467 4.96236 8.83029
C 1.47723 3.46827 6.88674
H 2.46341 3.90518 6.61648
H 1.6492 2.58787 7.5395
H 1.03316 3.08347 5.97154
C -0.845289 3.96888 7.81075
H -1.55939 4.7974 8.00171
H -1.19343 3.38236 6.93568
H -0.902251 3.28999 8.68587
C 6.2195 6.41693 9.0453
C 7.53694 5.68335 8.85118
H 8.2443 5.87665 9.66365
H 8.05631 6.0188 7.96037
H 7.31924 4.61906 8.69361
C 5.41041 6.14844 7.71818
H 4.44275 5.63047 7.88358
H 5.92741 5.51244 6.99747
H 5.24084 7.05782 7.11698
C 6.56689 7.9193 9.26658
H 5.82966 8.46918 9.87307
H 6.63518 8.45942 8.32691
H 7.53352 8.06964 9.77105
C 10.4446 1.01466 4.39956
C 8.98331 11.6656 4.62755
H 8.87778 10.6304 4.93868
H 8.3914 0.779982 3.73084
H 8.57507 1.18318 5.46607
C 10.4053 2.55399 4.21596
H 11.154 3.08569 4.83032
H 9.4375 3.00472 4.4807
H 10.541 2.84719 3.18809
C 10.9511 11.2669 3.15851
H 11.8507 10.65 3.36389
H 11.1855 0.862333 2.32143
H 10.1991 10.5577 2.77315
C 10.3893 2.476 10.3054
C 9.96134 3.8751 9.87099
H 9.9094 4.54094 0.0668047
H 9.07245 3.7092 9.26931
H 10.7318 4.3977 9.26751
C 11.9008 2.54477 0.493084
H 11.6632 2.86739 1.48643
H 12.6542 3.20548 0.0147791
H 12.346 1.54599 0.575306
C 10.8128 1.79804 8.99818
H 11.4661 2.44729 8.37567
H 9.92049 1.52306 8.43019
H 11.4823 0.955351 9.17873
C 10.4956 6.53168 4.27762
C 11.9012 7.09384 4.44373
H 11.8999 8.01204 5.06634
H 12.5562 6.35898 4.93661
H 12.3348 7.38612 3.47321
C 9.78722 6.84196 2.99627
H 8.8391 7.36925 3.16235
H 10.4057 7.51313 2.37949
H 9.57836 5.91627 2.43969
C 9.79258 3.67341 6.87675
H 0.046325 1.24291 8.32068
H 7.38356 4.08634 6.5303
H 12.1835 4.52583 6.33544
C 7.40776 9.39074 3.56294
C 4.685 7.07097 4.32301
H 8.36869 7.04641 0.9155
H -0.919742 6.81133 3.02703
H -1.61693 11.5524 9.67645
C 4.62999 9.99223 3.71979
H 10.0983 9.04705 4.37755
H -1.13538 8.43111 6.19329
H 4.85157 10.2384 0.927218
C 5.95931 7.97031 1.73801
H 6.91665 3.14072 10.1584
H 9.27409 9.00704 1.43465
H 3.43836 8.04453 2.3138
204
Atoms. Timestep: 11416
Ni 2.59349 9.1101 8.61883
Ni 6.56031 3.53812 3.28047
O 0.625706 4.35323 3.6773
O 4.05574 8.16047 8.71737
O 5.01251 2.63254 3.42805
O 1.09701 10.0567 8.83704
O 6.24429 4.74135 4.61205
O 2.23584 7.89386 9.88952
O -0.499605 2.10484 4.65985
O 3.05117 10.2616 9.88455
N 3.30904 10.349 7.24368
N -0.0840395 2.33068 2.00174
N 1.84221 7.90868 7.29333
N 5.81654 4.80253 1.96819
C 3.28433 0.908443 5.3648
C 1.89418 1.7063 0.72181
H 2.72852 1.37786 4.56877
H 7.47282 10.0984 0.848682
C 4.68438 1.19187 5.53651
C 1.3307 11.5119 0.360982
C 5.23574 11.7105 6.73352
C 0.069887 11.1798 0.96839
H -0.922761 11.5533 6.79502
C 1.53716 6.97106 5.07695
C 5.57288 6.0278 10.4169
H 1.73633 7.02461 4.01917
H -1.20472 6.44375 9.88155
C 2.18532 7.8844 5.96982
C 6.48908 5.29345 0.890144
H 2.93227 8.55451 5.59615
H 0.191651 5.03943 1.01756
C 2.58855 11.0766 6.31592
C 1.20791 2.58915 1.58311
H 1.51645 10.9668 6.25464
H 6.12406 11.6294 2.23561
C 4.6708 10.5151 7.22521
C -0.69524 1.22815 1.49938
H 5.2811 9.9019 7.84106
H 13.5904 1.06487 1.72627
C 0.84477 7.06458 7.7
C 4.47416 5.10129 2.0901
H 0.32855 7.25656 8.61586
H 3.91627 4.7159 2.92744
C 0.58569 5.87754 6.98672
C 3.80898 5.96878 1.19116
H 6.8103 7.61344 5.5583
H 2.77278 6.22792 1.37604
C 0.667194 5.97434 5.58917
C 4.4593 6.46634 0.0607354
C 5.55939 1.92014 4.42757
C 1.76697 10.6936 9.8234
C -0.0181837 4.98042 4.66289
C 3.4801 7.43579 9.68632
Ni 10.502 8.93657 8.75764
Ni -0.854788 3.40888 3.4464
O 8.10981 4.44877 3.456
O 11.9996 7.96706 8.8767
O 12.9334 2.44072 3.5165
O 9.00562 9.88663 8.9174
O -1.29052 4.50486 4.79451
O 10.084 7.65955 9.94037
O 6.88326 2.28751 4.54993
O 10.8311 10.0568 10.1559
N 11.3061 10.2169 7.51121
N 7.27705 2.33192 1.81263
N 9.77285 7.84528 7.26665
N 13.7338 4.70666 2.16756
C 11.2395 11.4567 5.43367
C 7.79069 11.1221 0.938414
H 2.87964 1.9697 0.36648
C 12.6638 0.796443 5.52752
C 8.9688 11.5484 0.259587
C 13.3266 11.3173 6.64865
C 9.19108 1.93419 0.218276
C 9.79008 6.10226 5.61657
C 13.7622 6.04315 0.124921
C 10.2523 6.62545 6.87091
C -0.866979 5.20874 1.09376
H 11.1466 6.22926 7.31688
H 7.54839 5.27816 0.912678
C 10.5974 10.8744 6.57109
C 6.98847 0.992019 1.73082
H 9.53461 10.9492 6.6846
H 1.70968 3.49311 1.87321
C 12.6703 10.4362 7.56185
C 8.36211 2.79402 1.06447
H 13.2486 10.0086 8.36457
H 8.80017 3.71395 1.36217
C 8.55396 8.22253 6.7076
C 12.4263 5.07747 2.32914
H 8.16582 9.20972 6.86437
H 11.8685 4.68078 3.15756
C 7.78172 7.31899 5.89971
C 11.7375 5.83 1.35369
C 8.35855 6.13442 5.42459
C 12.3842 6.35995 0.258994
C 13.4897 1.68671 4.48412
C 9.54509 10.5241 9.95152
C 7.55066 5.15702 4.45245
C 11.3774 7.2199 9.7978
C 5.85418 1.62999 7.76429
C 5.45004 1.26709 9.21738
H 4.34871 1.30744 9.33416
H 5.8059 11.2877 9.50771
H 5.88632 1.99266 9.92961
C 5.35123 3.05609 7.56157
H 4.25176 3.0898 7.61424
H 5.71972 3.69124 8.3745
H 5.66595 3.46582 6.59554
C 7.37248 1.54751 7.66727
H 7.68863 11.557 7.92798
H 7.75051 1.74499 6.65494
H 7.84568 2.26285 8.36381
C -0.20445 9.80286 1.60527
C 13.6858 9.31699 1.16743
H 12.9437 10.1173 1.15394
H 13.3163 8.50242 1.82023
H 13.7022 8.96229 0.12144
C 0.773706 8.71994 1.19922
H 0.540564 8.47208 0.154682
H 0.635002 7.77865 1.75733
H 1.81751 9.0405 1.3724
C -0.128032 9.943 3.15249
H -1.11016 10.1905 3.58922
H 0.594671 10.7307 3.45348
H 0.212722 9.01684 3.64537
C 0.772944 4.52195 7.70293
C 1.53372 4.69347 9.03835
H 1.03046 5.39951 9.716
H 1.61821 3.72933 9.56787
H 2.56162 5.05119 8.84808
C 1.65152 3.55661 6.86683
H 2.52333 4.0921 6.43313
H 2.04466 2.72361 7.47988
H 1.09838 3.08765 6.04991
C -0.610869 3.91109 7.99949
H -1.34536 4.70042 8.25494
H -0.995489 3.33344 7.13686
H -0.579259 3.23018 8.87024
C 6.35246 6.49086 9.17786
C 7.651 5.7026 9.03431
H 8.39741 6.02868 9.74696
H 8.11991 5.84489 8.06428
H 7.46878 4.62352 9.18012
C 5.56842 6.23548 7.84065
H 4.58633 5.7504 7.99489
H 6.10206 5.58565 7.13321
H 5.42233 7.14916 7.24087
C 6.709 7.98455 9.40008
H 5.98877 8.52591 10.041
H 6.77126 8.5241 8.45642
H 7.66475 8.11779 9.91659
C 10.4755 11.3689 4.12105
C 9.17321 10.522 4.21882
H 9.4041 9.53361 4.64221
H 8.71482 10.3505 3.23451
H 8.39397 11.0095 4.83942
C 10.0416 1.73133 3.69276
H 10.7515 2.53862 3.86759
H 9.14525 2.05103 4.23127
H 9.80428 1.67551 2.64941
C 11.3256 10.6465 3.09105
H 11.5708 9.62125 3.42452
H 12.2584 11.1592 2.95311
H 10.8172 10.5966 2.11686
C 10.2935 2.52937 10.2156
C 10.1473 3.97249 9.73276
H 10.0018 4.63404 -0.0618038
H 9.51182 3.98948 8.83654
H 11.1249 4.38725 9.4118
C 11.5583 2.48986 0.742807
H 11.1893 3.0604 1.5995
H 12.5424 2.88699 0.411453
H 11.6622 1.44273 1.05633
C 10.8964 1.8144 9.00452
H 11.6051 2.44435 8.42473
H 10.0768 1.5087 8.34544
H 11.55 0.994619 9.30627
C 10.6202 6.56653 4.47819
C 11.9903 7.13189 4.75272
H 11.8912 8.09716 5.29071
H 12.5921 6.43922 5.36366
H 12.5234 7.34107 3.8142
C 9.93399 7.048 3.25446
H 9.09328 7.70361 3.507
H 10.6099 7.65406 2.62973
H 9.57385 6.16706 2.70547
C 10.2101 3.25392 6.32651
H 0.511561 1.35961 8.23564
H 7.83518 4.01862 6.84527
H 12.3844 4.51372 6.64115
C 6.81489 7.84311 2.41208
C 4.58338 7.03084 4.34213
H 8.74512 7.05379 0.996559
H -0.73071 7.00031 3.22009
H -1.49297 1.21115 9.39446
C 5.97125 9.81016 4.39294
H -1.01413 8.17858 5.36262
H -0.0994811 9.45759 6.79343
H 3.6042 11.7399 2.50618
C 4.4768 9.40255 1.64741
H 4.07003 3.60621 10.1901
H 9.38116 9.03565 1.47876
H 2.71882 9.70743 3.63481
204
Atoms. Timestep: 16660
Ni 2.60405 9.1186 8.63294
Ni 6.57578 3.50158 3.24708
O 0.617046 4.3313 3.7136
O 4.06958 8.18046 8.74318
O 5.03355 2.59594 3.392
O 1.10052 10.0567 8.84315
O 6.25736 4.69256 4.5902
O 2.24978 7.90663 9.91506
O -0.502485 2.07464 4.69791
O 3.0498 10.2823 9.89532
N 3.31836 10.3534 7.24662
N -0.098081 2.31292 2.03209
N 1.86571 7.89857 7.31158
N 5.83311 4.77674 1.94391
C 3.30311 0.878062 5.33314
C 1.88318 1.69182 0.758744
H 2.74939 1.34363 4.52927
H 7.41745 10.0853 0.739389
C 4.70281 1.15754 5.50101
C 1.31471 11.5047 0.377825
C 5.24454 11.7089 6.71678
C 0.0500507 11.1697 0.978959
H -0.909859 11.4551 6.79218
C 1.51911 6.97045 5.09091
C 5.56086 5.98168 10.3734
H 1.70387 7.02391 4.02552
H -1.22556 6.42527 9.9243
C 2.17938 7.88598 5.97715
C 6.48933 5.23757 0.836956
H 2.91783 8.55932 5.58916
H 0.183831 5.0752 1.10348
C 2.60149 11.0651 6.30088
C 1.19061 2.5761 1.61239
H 1.53025 10.9594 6.23992
H 6.06414 11.632 2.11538
C 4.67875 10.5254 7.23868
C -0.711317 1.21405 1.52375
H 5.27712 9.95377 7.90675
H 13.6009 1.02057 1.80954
C 0.89081 7.0397 7.73707
C 4.50093 5.09542 2.09151
H 0.367343 7.23866 8.65279
H 3.95119 4.70842 2.93701
C 0.614858 5.86141 7.01669
C 3.83347 5.97433 1.20582
H 6.81806 7.55705 5.55833
H 2.80818 6.25396 1.41392
C 0.667173 5.96445 5.61631
C 4.46825 6.45555 0.0556412
C 5.58156 1.87902 4.38825
C 1.76069 10.6989 9.83311
C -0.0191364 4.95787 4.70271
C 3.49462 7.45241 9.70787
Ni 10.5033 8.87005 8.7663
Ni -0.863255 3.38545 3.48778
O 8.11962 4.41384 3.42892
O 11.9848 7.89693 8.90664
O 12.9271 2.41826 3.56422
O 9.01856 9.8306 8.90476
O -1.28945 4.48142 4.84365
O 10.0675 7.60504 9.96134
O 6.90925 2.2399 4.50983
O 10.8294 10.0074 10.1616
N 11.3217 10.1271 7.51338
N 7.28459 2.30769 1.76599
N 9.77621 7.77088 7.27183
N 13.7154 4.68084 2.21527
C 11.228 11.4354 5.47987
C 7.75056 11.1053 0.848334
H 2.8724 1.95312 0.413897
C 12.6648 0.735612 5.54452
C 8.96166 11.5144 0.216577
C 13.3408 11.2174 6.64302
C 9.22331 1.89349 0.217896
C 9.79726 6.06316 5.5744
C 13.7418 6.01802 0.172012
C 10.2717 6.56748 6.84056
C -0.880841 5.20443 1.1539
H 11.1848 6.17978 7.26232
H 7.54872 5.18155 0.820226
C 10.604 10.8173 6.60753
C 6.94871 0.982539 1.63393
H 9.54983 10.9143 6.75708
H 1.68785 3.48559 1.8983
C 12.6875 10.3249 7.54744
C 8.40894 2.74975 1.06807
H 13.2706 9.87927 8.33916
H 8.85731 3.66098 1.38727
C 8.56479 8.15777 6.70561
C 12.3934 5.00496 2.35277
H 8.18558 9.15147 6.856
H 11.8381 4.60689 3.18314
C 7.78864 7.25947 5.89615
C 11.7061 5.76468 1.38366
C 8.36726 6.07939 5.408
C 12.3606 6.31287 0.296348
C 13.4863 1.65625 4.52071
C 9.54992 10.4825 9.93082
C 7.56182 5.10773 4.43446
C 11.3572 7.15928 9.82605
C 5.85944 1.65152 7.72902
C 5.33331 1.39901 9.17263
H 4.22848 1.50289 9.19846
H 5.60265 11.4206 9.54938
H 5.76648 2.13 9.88586
C 5.52316 3.10264 7.39707
H 4.48888 3.22404 7.03217
H 5.58812 3.71694 8.30516
H 6.23265 3.49046 6.65132
C 7.36766 1.45868 7.72637
H 7.59438 11.4593 8.04154
H 7.79774 1.60625 6.72101
H 7.84029 2.18156 8.41584
C -0.2314 9.78865 1.61202
C 13.6568 9.30696 1.17717
H 12.8834 10.0663 1.31585
H 13.3508 8.4132 1.75409
H 13.6463 9.06838 0.0956566
C 0.738273 8.69956 1.19798
H 0.511728 8.46009 0.146158
H 0.590256 7.75585 1.75387
H 1.78154 9.01593 1.38278
C -0.168334 9.92348 3.16317
H -1.16387 10.1562 3.59047
H 0.536963 10.7231 3.4769
H 0.189418 9.00227 3.65446
C 0.750321 4.4967 7.7256
C 1.45057 4.65127 9.0972
H 0.925679 5.35703 9.75782
H 1.50397 3.68128 9.61992
H 2.48644 5.0126 8.95518
C 1.66556 3.5379 6.91085
H 2.49754 4.10249 6.43921
H 2.12732 2.75089 7.54433
H 1.12571 3.01363 6.1132
C -0.660944 3.89955 7.95001
H -1.4201 4.69728 8.09496
H -0.981724 3.27475 7.09449
H -0.700332 3.26361 8.85766
C 6.31999 6.42486 9.10381
C 7.59399 5.58576 8.92642
H 8.38651 5.94084 9.58577
H 8.01073 5.62984 7.91973
H 7.4072 4.51693 9.14192
C 5.48781 6.22325 7.7813
H 4.50599 5.73935 7.95303
H 5.99784 5.61324 7.02601
H 5.33294 7.15227 7.20492
C 6.71819 7.91094 9.31862
H 6.06404 8.45011 10.0321
H 6.70631 8.47191 8.38247
H 7.71485 8.02376 9.74445
C 10.3741 11.5351 4.2199
C 9.05561 10.7028 4.30354
H 9.27086 9.67135 4.6306
H 8.55304 10.627 3.32481
H 8.31296 11.1479 4.993
C 9.94223 1.96307 4.0465
H 10.7291 2.67629 3.82067
H 9.44633 2.3229 4.96896
H 9.21696 2.02075 3.24805
C 11.1136 10.9095 3.05023
H 11.2784 9.82469 3.22206
H 12.0853 11.3361 2.93383
H 10.5578 11.0344 2.11587
C 10.3095 2.49103 10.1846
C 10.1595 3.95022 9.73735
H 9.99288 4.60514 -0.0597989
H 9.53903 3.98732 8.83035
H 11.1371 4.3723 9.42605
C 11.6094 2.4038 0.680205
H 11.237 2.82554 1.62515
H 12.5513 2.90726 0.372446
H 11.8119 1.33675 0.835816
C 10.867 1.81545 8.92594
H 11.6544 2.42405 8.44017
H 10.0581 1.65413 8.19934
H 11.4421 0.926137 9.16448
C 10.5941 6.5737 4.42198
C 11.9613 7.14368 4.67585
H 11.8722 8.0792 5.26787
H 12.5802 6.41137 5.21813
H 12.4593 7.40995 3.7291
C 9.87592 7.0871 3.22381
H 9.08211 7.78321 3.52484
H 10.5525 7.65932 2.56434
H 9.46069 6.2289 2.67785
C 11.6245 3.70969 6.23481
H 0.485125 1.38771 8.24262
H 8.79076 3.69031 6.69714
H 13.4791 7.0226 7.22358
C 6.78117 7.76739 2.42979
C 4.56666 6.9676 4.40167
H 8.6518 7.04948 0.91871
H -0.760254 6.98206 3.26643
H -1.56195 1.17217 9.39129
C 5.96621 9.75702 4.39546
H -1.05709 8.20162 5.32468
H -0.0559582 9.40164 6.77111
H 3.62431 11.7012 2.48075
C 4.45897 9.34956 1.65915
H 3.96859 3.64628 10.1917
H 9.3074 9.11464 1.57258
H 2.66853 9.70042 3.6139
204
Atoms. Timestep: 16668
Ni 2.60613 9.11405 8.62048
Ni 6.57569 3.50595 3.25427
O 0.61994 4.33357 3.71756
O 4.0711 8.17888 8.72827
O 5.03369 2.60274 3.39637
O 1.10256 10.0498 8.82761
O 6.25709 4.69591 4.59518
O 2.25217 7.90307 9.90034
O -0.499252 2.08011 4.70217
O 3.05216 10.2768 9.88028
N 3.31989 10.346 7.23859
N -0.0964449 2.3204 2.04218
N 1.86845 7.89616 7.30415
N 5.83313 4.77831 1.95629
C 3.30426 0.887591 5.33093
C 1.88535 1.69909 0.775042
H 2.75052 1.35264 4.5297
H 7.41696 10.0781 0.755405
C 4.70344 1.16522 5.49873
C 1.31735 11.4964 0.395856
C 5.24556 11.6997 6.71045
C 0.0524188 11.1618 0.992706
H -0.906514 11.447 6.78621
C 1.52167 6.96924 5.08837
C 5.56217 5.98278 10.3532
H 1.70621 7.0226 4.02638
H -1.22169 6.42621 9.90461
C 2.1821 7.88368 5.97218
C 6.48956 5.23942 0.852633
H 2.92009 8.55591 5.58633
H 0.186245 5.0772 1.11853
C 2.6028 11.0583 6.2961
C 1.19275 2.58252 1.62577
H 1.53227 10.9521 6.23569
H 6.06358 11.6233 2.12686
C 4.67991 10.5175 7.23101
C -0.709026 1.22181 1.53598
H 5.27844 9.94691 7.89733
H 13.5986 1.02875 1.82165
C 0.892787 7.03914 7.72916
C 4.50143 5.09617 2.10403
H 0.369063 7.23806 8.64172
H 3.95165 4.70969 2.94712
C 0.616908 5.86215 7.01051
C 3.83402 5.97457 1.22112
H 6.81794 7.55505 5.55647
H 2.80917 6.25387 1.42814
C 0.668832 5.96575 5.6137
C 4.46897 6.45543 0.074277
C 5.58197 1.8853 4.39061
C 1.76338 10.6926 9.8156
C -0.0167984 4.96081 4.70423
C 3.49629 7.45022 9.69088
Ni 10.5025 8.86596 8.75316
Ni -0.860486 3.39002 3.49419
O 8.11955 4.41565 3.43385
O 11.984 7.89545 8.8909
O 12.9244 2.4257 3.56844
O 9.01795 9.82407 8.88954
O -1.28678 4.48492 4.84778
O 10.0667 7.60216 9.94606
O 6.90962 2.24521 4.51476
O 10.829 10.0021 10.1465
N 11.3207 10.1198 7.50452
N 7.28288 2.31471 1.77688
N 9.77662 7.76971 7.26308
N 13.7127 4.68245 2.22627
C 11.2265 11.4287 5.47843
C 7.74979 11.0969 0.864002
H 2.87423 1.9598 0.431217
C 12.6629 11.7547 5.54273
C 8.96115 11.5059 0.235674
C 13.339 11.2096 6.63798
C 9.22276 1.90038 0.235932
C 9.79631 6.0611 5.5729
C 13.7392 6.01932 0.188842
C 10.2704 6.56554 6.83581
C -0.877617 5.20648 1.16772
H 11.1842 6.17982 7.25504
H 7.54812 5.18337 0.83688
C 10.6029 10.8108 6.60237
C 6.94801 0.990223 1.6471
H 9.54935 10.907 6.75186
H 1.69014 3.49093 1.91052
C 12.6858 10.3175 7.53944
C 8.40822 2.75608 1.08205
H 13.2691 9.8725 8.32898
H 8.85657 3.66575 1.40184
C 8.56419 8.15565 6.6998
C 12.3914 5.00619 2.36452
H 8.18504 9.14814 6.84948
H 11.8358 4.60833 3.19229
C 7.78812 7.25845 5.89325
C 11.7042 5.76495 1.39807
C 8.36651 6.07926 5.40746
C 12.3585 6.31308 0.313903
C 13.4841 1.66325 4.52288
C 9.54959 10.4761 9.91376
C 7.56148 5.10974 4.43755
C 11.356 7.15746 9.80843
C 5.86086 1.65859 7.71939
C 5.3336 1.40652 9.15955
H 4.22949 1.51038 9.18352
H 5.60379 11.4116 9.534
H 5.76775 2.1373 9.86981
C 5.52358 3.10794 7.38811
H 4.48956 3.22915 7.02485
H 5.58902 3.72184 8.295
H 6.23378 3.49526 6.64486
C 7.36752 1.46584 7.71714
H 7.59458 11.4502 8.0311
H 7.7983 1.61368 6.71342
H 7.84069 2.18879 8.4046
C -0.229281 9.78272 1.62446
C 13.654 9.30237 1.19206
H 12.8808 10.0607 1.32996
H 13.348 8.40885 1.76752
H 13.6435 9.0636 0.112123
C 0.740752 8.69564 1.21293
H 0.513382 8.45614 0.162655
H 0.592507 7.75225 1.76706
H 1.78363 9.01179 1.39719
C -0.165834 9.91804 3.17262
H -1.16132 10.1503 3.59717
H 0.539936 10.7168 3.48391
H 0.19226 8.99718 3.66122
C 0.752593 4.49908 7.71617
C 1.45374 4.65387 9.0841
H 0.928134 5.35915 9.74197
H 1.50653 3.68429 9.60432
H 2.48891 5.01477 8.94093
C 1.66817 3.54182 6.90347
H 2.50007 4.10631 6.43365
H 2.12993 2.75525 7.5362
H 1.12786 3.01783 6.10825
C -0.657855 3.90371 7.9398
H -1.41719 4.70031 8.08417
H -0.978871 3.27846 7.08586
H -0.697256 3.26733 8.84562
C 6.32126 6.4251 9.08835
C 7.59413 5.58661 8.91221
H 8.38698 5.94163 9.56975
H 8.01123 5.63064 7.90784
H 7.40758 4.51843 9.12708
C 5.48819 6.22291 7.77022
H 4.50679 5.73971 7.9424
H 5.99864 5.61374 7.01738
H 5.33373 7.15164 7.19581
C 6.71909 7.90876 9.30388
H 6.06437 8.4476 10.015
H 6.70666 8.46938 8.36893
H 7.71531 8.02145 9.72766
C 10.3726 11.5273 4.22245
C 9.05485 10.6955 4.30643
H 9.27013 9.66497 4.63277
H 8.55186 10.62 3.32986
H 8.31179 11.1406 4.99431
C 9.94176 1.97044 4.0501
H 10.728 2.68256 3.82537
H 9.44495 2.32958 4.97119
H 9.21576 2.02741 3.25438
C 11.1126 10.9019 3.05704
H 11.277 9.81797 3.22934
H 12.0832 11.3281 2.94175
H 10.5561 11.0269 2.12542
C 10.3088 2.49692 10.1661
C 10.1593 3.95448 9.71976
H 9.99127 4.60868 -0.039458
H 9.53789 3.99103 8.8151
H 11.1364 4.37577 9.40953
C 11.608 2.40973 0.697531
H 11.2349 2.83145 1.63997
H 12.5496 2.91283 0.389818
H 11.8101 1.34351 0.852125
C 10.8662 1.82218 8.91039
H 11.6538 2.43025 8.42717
H 10.0567 1.66131 8.18678
H 11.4414 0.934089 9.14956
C 10.5928 6.57258 4.42354
C 11.9594 7.14211 4.67784
H 11.8706 8.07763 5.26832
H 12.5788 6.41038 5.21849
H 12.4579 7.40861 3.73266
C 9.87473 7.08676 3.2296
H 9.08104 7.78142 3.531
H 10.5516 7.65802 2.57265
H 9.45958 6.22803 2.68626
C 11.623 3.71377 6.23058
H 0.487856 1.39535 8.23105
H 8.79032 3.69429 6.6913
H 13.4771 7.02137 7.2159
C 6.78124 7.76511 2.43982
C 4.56759 6.96663 4.40458
H 8.65085 7.04824 0.93444
H -0.757573 6.98101 3.27343
H -1.55844 1.18013 9.37541
C 5.96675 9.75161 4.39826
H -1.05416 8.19849 5.32398
H -0.0531011 9.39679 6.76502
H 3.62554 11.6927 2.49053
C 4.45989 9.34466 1.67222
H 3.97018 3.65032 10.1729
H 9.30632 9.11018 1.58582
H 2.67005 9.6951 3.61949
204
Atoms. Timestep: 18935
Ni 2.60474 9.11761 8.62002
Ni 6.57284 3.50518 3.25045
O 0.622825 4.33076 3.72448
O 4.06804 8.18015 8.72542
O 5.03129 2.60324 3.39224
O 1.10341 10.0544 8.83174
O 6.25554 4.69366 4.59402
O 2.25098 7.90708 9.90061
O -0.494487 2.07583 4.70529
O 3.05543 10.2781 9.87999
N 3.31588 10.3501 7.23595
N -0.0916167 2.3207 2.04436
N 1.86451 7.90176 7.30261
N 5.83124 4.78015 1.95347
C 3.2995 0.894973 5.32805
C 1.89446 1.6955 0.785854
H 2.74591 1.36516 4.52672
H 7.41623 10.0768 0.748019
C 4.69949 1.16893 5.49567
C 1.32474 11.4932 0.404515
C 5.24093 11.7032 6.70915
C 0.0571976 11.1607 0.997722
H -0.905752 11.4501 6.79834
C 1.52305 6.96559 5.08754
C 5.55665 5.98198 10.3456
H 1.7089 7.01376 4.02213
H -1.22078 6.42857 9.9054
C 2.18091 7.88451 5.96958
C 6.48563 5.24069 0.846697
H 2.91782 8.55834 5.57993
H 0.191799 5.08245 1.12327
C 2.59826 11.0647 6.29356
C 1.19871 2.58271 1.63029
H 1.52679 10.9636 6.2359
H 6.0593 11.6215 2.11932
C 4.67581 10.521 7.22892
C -0.704643 1.22377 1.53353
H 5.27253 9.95302 7.90058
H 13.5991 1.03494 1.80958
C 0.887697 7.04706 7.72992
C 4.49975 5.09843 2.10447
H 0.360449 7.25274 8.6416
H 3.95192 4.7124 2.95159
C 0.6155 5.86589 7.01655
C 3.83185 5.97686 1.22166
H 6.82237 7.56095 5.54723
H 2.8073 6.25756 1.4319
C 0.669508 5.96417 5.61774
C 4.46532 6.45661 0.0711643
C 5.57859 1.88491 4.38595
C 1.76699 10.6942 9.81978
C -0.0137224 4.95601 4.71204
C 3.49388 7.45251 9.68928
Ni 10.5047 8.86191 8.75568
Ni -0.855926 3.38758 3.49894
O 8.11658 4.41363 3.43087
O 11.9844 7.89018 8.89379
O 12.9299 2.42223 3.57125
O 9.022 9.82157 8.89204
O -1.28342 4.47995 4.85523
O 10.0678 7.59795 9.94946
O 6.90679 2.24256 4.50947
O 10.8315 9.99895 10.1499
N 11.3229 10.1155 7.50657
N 7.27832 2.31497 1.76997
N 9.77783 7.76547 7.26325
N 13.7186 4.68243 2.23221
C 11.2302 11.4258 5.47858
C 7.74963 11.0962 0.859864
H 2.88555 1.95434 0.445078
C 12.667 11.751 5.54523
C 8.96349 11.5057 0.235473
C 13.3414 11.2072 6.64403
C 9.22073 1.90227 0.22975
C 9.79522 6.05798 5.56951
C 13.7419 6.01871 0.191756
C 10.2685 6.55935 6.83563
C -0.873135 5.20727 1.17191
H 11.1791 6.16836 7.25915
H 7.54458 5.18966 0.830596
C 10.606 10.8084 6.60356
C 6.94567 0.989228 1.64164
H 9.55262 10.91 6.755
H 1.69368 3.49476 1.91137
C 12.6884 10.3125 7.54345
C 8.40054 2.75912 1.0707
H 13.2702 9.86691 8.33592
H 8.84722 3.67082 1.38893
C 8.56864 8.15647 6.69552
C 12.3975 5.00531 2.37263
H 8.19268 9.15149 6.84379
H 11.8444 4.60738 3.20428
C 7.79088 7.26071 5.88724
C 11.7074 5.75741 1.40241
C 8.36616 6.07811 5.40382
C 12.3604 6.30818 0.317238
C 13.4889 1.65882 4.52518
C 9.55324 10.475 9.91535
C 7.56001 5.10712 4.43579
C 11.3572 7.15277 9.81178
C 5.85709 1.66126 7.72088
C 5.32217 1.4148 9.16193
H 4.21774 1.52341 9.18028
H 5.58458 11.4193 9.54336
H 5.75471 2.14588 9.87501
C 5.53408 3.11459 7.38407
H 4.51085 3.24453 6.9916
H 5.57506 3.72684 8.2949
H 6.26636 3.5017 6.65995
C 7.36349 1.45613 7.72405
H 7.58062 11.4402 8.04744
H 7.79706 1.5931 6.71865
H 7.83968 2.18145 8.40766
C -0.228943 9.7816 1.63327
C 13.6566 9.30065 1.18968
H 12.8853 10.0634 1.31612
H 13.3432 8.41137 1.76904
H 13.6538 9.05612 0.109693
C 0.742006 8.69053 1.22788
H 0.515491 8.44309 0.178342
H 0.595147 7.75035 1.78949
H 1.78469 9.00881 1.41041
C -0.17604 9.91915 3.18468
H -1.17608 10.1417 3.60606
H 0.520015 10.7253 3.50187
H 0.187156 9.00228 3.68013
C 0.756545 4.50406 7.73005