204
Atoms. Timestep: 0
Ni 2.89857 9.41116 8.59265
Ni 6.17525 3.10579 3.48481
O 1.44827 4.35425 3.93374
O 4.4416 8.15245 9.05464
O 4.63665 1.84729 3.87523
O 1.36499 10.6744 9.00295
O 5.80609 4.46033 4.96242
O 2.54244 8.0327 10.0675
O 0.25117 1.69264 4.94273
O 3.23722 10.8047 10.0626
N 3.69677 10.6606 7.2416
N 0.71256 1.8642 2.11704
N 2.17217 8.14409 7.25198
N 5.44023 4.39481 2.13747
C 3.48546 12.1483 5.36301
C 0.47488 0.38955 0.2292
H 2.86453 12.5181 4.55267
H 5.86971 0.03371 9.69377
C 4.76073 0.1474 5.61481
C 1.74333 12.3699 0.47412
C 5.50345 12.1502 6.68209
C 2.49852 0.35508 1.54004
H 0.24768 12.5084 6.91993
H 3.49155 12.5067 1.77336
C 2.48363 6.6337 5.40822
C 5.72803 5.90364 0.28669
H 3.13294 6.27291 4.61605
H -0.10828 6.26667 9.7662
C 2.92756 7.68099 6.23068
C 6.1883 4.86756 1.11596
H 3.89994 8.14655 6.0889
C 2.98256 11.1359 6.19748
C -0.01036 1.40553 1.07106
H 1.99392 10.709 6.04703
C 4.93641 11.1381 7.47507
C 1.94823 1.3719 2.3406
C 0.94573 7.62654 7.47302
C 4.21083 4.90458 2.35686
C 0.43859 6.57577 6.69176
C 3.68763 5.945 1.56944
H 5.70774 6.17693 6.91975
H 2.69824 6.32683 1.80071
C 1.22745 6.06471 5.65205
C 4.46338 6.45777 0.52027
C 5.3126 1.24381 4.79419
C 2.0502 11.2675 9.92158
C 0.73548 4.94016 4.83586
C 3.73174 7.56629 9.95688
Ni 9.15137 9.41116 8.59265
Ni 12.4281 3.10579 3.48481
O 7.70109 4.35425 3.93374
O 10.6944 8.15245 9.05464
O 10.8895 1.84729 3.87523
O 7.61779 10.6744 9.00295
O 12.0589 4.46033 4.96242
O 8.79524 8.0327 10.0675
O 6.50397 1.69264 4.94273
O 9.49002 10.8047 10.0626
N 9.94957 10.6606 7.2416
N 6.96536 1.8642 2.11704
N 8.42499 8.14409 7.25198
N 11.693 4.39481 2.13747
C 9.73826 12.1483 5.36301
C 6.72768 0.38955 0.2292
H 9.11733 12.5181 4.55267
H 12.1225 0.03371 9.69377
C 11.0135 0.1474 5.61481
C 7.99613 12.3699 0.47412
C 11.7562 12.1502 6.68209
C 8.75132 0.35508 1.54004
H 6.50047 12.5084 6.91993
H 9.74435 12.5067 1.77336
C 8.73644 6.6337 5.40822
C 11.9808 5.90364 0.28669
H 9.38574 6.27291 4.61605
H 6.14452 6.26667 9.7662
C 9.18036 7.68099 6.23068
C 12.4411 4.86756 1.11596
H 10.1527 8.14655 6.0889
H 7.16869 4.41889 0.97634
C 9.23536 11.1359 6.19748
C 6.24244 1.40553 1.07106
H 8.24672 10.709 6.04703
H 11.5137 1.85011 0.92351
C 11.1892 11.1381 7.47507
C 8.20102 1.3719 2.3406
H 8.76167 1.79214 3.17267
C 7.19853 7.62654 7.47302
C 10.4636 4.90458 2.35686
H 9.88885 4.47744 3.17528
C 6.69139 6.57577 6.69176
C 9.94043 5.945 1.56944
H 11.9605 6.17693 6.91975
H 8.95104 6.32683 1.80071
C 7.48025 6.06471 5.65205
C 10.7162 6.45777 0.52027
C 11.5654 1.24381 4.79419
C 8.303 11.2675 9.92158
C 6.98827 4.94016 4.83586
C 9.98454 7.56629 9.95688
C 5.73201 10.4708 8.72882
C 4.90815 9.3684 9.46373
H 4.66062 8.52277 8.78519
H 5.71149 8.9371 0.03827
H 3.96807 9.77898 9.89321
C 6.00983 11.5295 9.82854
H 5.04599 11.9307 10.211
H 6.78025 11.0717 0.40969
H 6.58293 12.4117 9.52916
C 7.00311 9.72779 8.2393
H 6.7118 8.90906 7.54573
H 7.73622 10.3197 7.68391
H 7.54458 9.27243 9.09691
C 2.76027 2.02576 3.59055
C 1.95427 3.13525 4.33456
H 1.71179 3.98578 3.66035
H 2.54082 3.55725 5.18066
H 1.01254 2.73415 4.76932
C 3.03351 0.96048 4.68507
H 2.06779 0.56918 5.07302
H 3.58749 1.40937 5.53809
H 3.59432 0.07276 4.37901
C 4.03641 2.75566 3.09447
H 3.74976 3.57985 2.40546
H 4.75879 2.15712 2.53217
H 4.58904 3.2021 3.94967
C 0.09925 8.29166 8.69178
C 0.8642 9.44192 9.41699
H 1.09441 10.2803 8.72349
H 0.25386 9.87056 10.2427
H 1.80945 9.07802 9.87617
C -0.16243 7.24917 9.81079
H 0.80725 6.89444 10.2233
H 11.9921 7.70575 0.36884
H 11.8107 6.33883 9.52086
C 11.3176 8.9735 8.15749
H 11.5929 9.78632 7.45055
H 10.62 8.34095 7.60123
H 10.7404 9.42772 8.99209
C 3.37389 4.24229 3.58574
C 4.15214 3.10531 4.31771
H 5.09585 3.48172 4.76993
H 3.54899 2.67833 5.14952
H 4.3872 2.26313 3.63053
C 2.09078 3.5442 3.06257
H 2.37062 2.72782 2.36154
H 1.52104 3.09201 3.90338
H 1.38522 4.16558 2.50372
C 3.1072 5.29201 4.69675
H 4.07524 5.65905 5.10222
H 2.56537 6.19495 4.40115
H 2.53605 4.83744 5.53533
C 11.9848 10.4708 8.72882
C 11.1609 9.3684 9.46373
H 10.9134 8.52277 8.78519
H 11.9643 8.9371 0.03827
H 10.2209 9.77898 9.89321
C 12.2626 11.5295 9.82854
H 11.2988 11.9307 10.211
H 0.52745 11.0717 0.40969
H 0.33013 12.4117 9.52916
C 0.75031 9.72779 8.2393
H 0.459 8.90906 7.54573
H 1.48342 10.3197 7.68391
H 1.29178 9.27243 9.09691
C 4.78841 2.09782 0.85059
C 4.46423 3.19965 1.90655
H 5.199 4.03346 1.86579
H 3.463 3.64868 1.72245
H 4.44133 2.7834 2.93755
C 3.65225 1.05674 1.03143
H 3.68209 0.64898 2.06539
H 2.65861 1.532 0.88029
H 3.68184 0.17774 0.38125
C 4.51139 2.84965 9.76851
H 5.27703 3.65586 9.76165
H 4.71603 2.25947 8.8707
H 3.51626 3.32246 9.61947
C 6.35207 8.29167 8.69178
C 7.11701 9.44193 9.41698
H 7.34722 10.2803 8.72348
H 6.50666 9.87057 10.2427
H 8.06226 9.07802 9.87617
C 6.09037 7.24918 9.81079
H 7.06005 6.89446 10.2233
H 5.73934 7.70576 0.36884
H 5.55794 6.33884 9.52086
C 5.06482 8.97352 8.15748
H 5.34011 9.78634 7.45054
H 4.36719 8.34096 7.60122
H 4.4876 9.42773 8.99208
C 1.3875 4.16707 0.91081
C 1.6812 3.0414 1.95042
H 0.94049 2.21503 1.8781
H 2.68216 2.58743 1.77723
H 1.68684 3.43658 2.98992
C 2.52844 5.19433 1.13539
H 2.48122 5.58143 2.17662
H 3.52093 4.71354 0.99446
H 2.51926 6.08647 0.50274
C 1.23034 3.44232 9.81499
H 0.4583 2.64314 9.7765
H 1.04871 4.05223 8.92546
H 2.2243 2.96394 9.67624
204
Atoms. Timestep: 1257
Ni 1.97286 9.17651 9.27678
Ni 6.26698 3.89642 4.05047
O -0.437251 4.44394 4.13731
O 3.37668 8.17259 9.49771
O 4.82242 2.96937 4.23018
O 0.532063 10.2113 9.30072
O 5.9004 5.16812 5.25191
O 1.7763 8.00231 -0.194104
O -1.79321 2.35386 5.1122
O 2.56394 10.3806 -0.253038
N 2.94839 10.3842 7.91339
N -1.29533 2.38848 2.38341
N 1.12735 7.88983 7.91781
N 5.46087 5.10261 2.58212
C 3.22083 11.5987 5.82936
C 0.197767 2.32217 0.393724
H 3.26184 11.1874 4.84434
H 7.28325 2.21104 10.3211
C 4.36076 1.59317 6.26357
C 0.399985 0.944862 0.503068
C 4.64697 1.39437 7.59424
C -0.516287 11.044 1.35969
H 11.2283 2.88648 7.01027
H -0.676051 9.98599 1.31506
C 0.282319 7.30836 5.66782
C 4.40591 5.35387 0.374486
H 0.107262 7.62323 4.65691
H 10.948 5.01588 0.3021
C 1.06245 8.1495 6.56001
C 5.40312 4.75336 1.24263
H 1.75675 8.80198 6.11291
C 2.3698 10.9517 6.80726
C -0.769944 2.99731 1.2441
H 1.31955 10.8291 6.62484
C 4.30368 10.8222 8.10203
C -0.864364 1.0329 2.54175
C 0.216581 6.87609 8.32036
C 4.61699 6.20358 2.87816
C 0.0940708 5.75704 7.43753
C 4.4183 7.17638 1.8557
H 6.56298 6.02423 7.75913
H 4.16702 8.17655 2.14001
C -0.195524 6.05187 6.10518
C 3.92401 6.66456 0.656046
C 5.3158 2.31726 5.25661
C 1.06291 10.8831 10.317
C -0.980231 5.0801 5.17801
C 2.81865 7.50988 10.4691
Ni 10.1143 9.27837 9.58837
Ni 14.0433 3.62652 3.89012
O 7.79075 4.87377 4.16751
O 11.581 8.2857 9.80612
O 12.45 2.80545 3.92464
O 8.65226 10.278 9.70893
O 13.7385 4.76993 5.26032
O 9.94564 8.21806 0.137264
O 6.60825 2.75653 5.46447
O 10.7741 10.5378 -0.014381
N 10.8552 10.4652 8.04538
N 7.05251 2.52409 2.79491
N 9.35933 7.88411 8.28393
N 13.4314 4.98351 2.6075
C 11.6459 10.6282 5.71969
C 7.6693 1.9543 0.532708
H 11.716 10.1634 4.74129
H 0.414374 2.83603 10.3981
C 12.0308 1.24592 5.88624
C 8.75702 1.15693 0.892159
C 11.4429 1.85114 6.99231
C 9.07842 1.17762 2.26399
H 5.44038 1.96502 8.04897
H 9.96743 11.3911 2.61929
C 9.26481 6.94797 6.02054
C 11.7009 5.41978 0.947378
H 9.7479 6.84649 5.06028
H 3.90722 4.8758 10.2899
C 10.0053 7.5009 7.13478
C 12.492 4.54276 1.71962
H 11.072 7.63718 7.04922
H 6.27723 4.38486 0.76663
C 10.7769 10.0562 6.71669
C 6.63872 2.20431 1.5129
H 9.8302 9.72755 6.3465
H -1.05271 3.9965 0.988491
C 11.3351 1.07406 8.18338
C 8.27709 1.96597 3.17474
H 8.66673 2.16205 4.16514
C 8.24475 7.10611 8.58381
C 13.4341 6.34059 2.88427
H 13.9492 6.71644 3.74538
C 7.43939 6.58444 7.51059
C 12.6681 7.26389 2.09018
H -0.128052 4.77555 7.82859
H 12.677 8.32122 2.31947
C 7.96057 6.4357 6.21774
C 11.8553 6.79195 1.04819
C 12.9432 2.0185 4.88609
C 9.50658 10.9951 -0.156063
C 7.17949 5.62217 5.1114
C 11.1896 7.72378 0.0283113
C 5.5043 9.83906 7.92427
C 5.77379 9.06316 9.2238
H 5.66112 7.98862 9.09027
H 6.78099 9.14166 9.60832
H 5.1509 9.4249 10.0506
C 6.86024 10.5595 7.57719
H 6.8206 11.0777 6.59526
H 7.11624 11.3321 8.33181
H 7.68362 9.82165 7.4852
C 5.24269 8.94734 6.6987
H 5.41245 7.89539 6.92679
H 4.21792 9.06101 6.3249
H 5.87844 9.17467 5.81255
C 0.0432039 11.3296 3.72789
C 0.853053 1.84682 4.17704
H 0.745233 2.6903 3.50328
H 1.92097 1.76716 3.9725
H 0.671218 2.14133 5.21542
C -0.81733 10.6425 4.82535
H 14.1815 10.5023 4.49766
H -0.77036 11.1327 5.81351
H -0.508841 9.62523 5.03269
C 1.1342 10.2549 3.32171
H 0.712154 9.32964 2.90939
H 1.7128 9.91958 4.18893
H 1.85576 10.6395 2.57174
C -1.18101 7.26617 8.92342
C -1.16793 7.83303 10.3451
H -0.79657 8.84162 10.3722
H 14.101 7.92312 -0.0668159
H -0.376766 7.18708 0.213478
C 13.9431 6.01174 9.04417
H 13.6774 5.58305 8.05287
H -1.63467 5.22146 9.6682
H 12.996 6.26238 9.5329
C 14.1967 8.26431 7.94539
H -1.24559 9.17746 7.79912
H 13.9995 7.79774 6.96195
H 13.2126 8.5888 8.27958
C 3.34107 6.07681 3.76075
C 2.99518 4.76311 4.45788
H 3.65378 4.5495 5.30898
H 2.01362 4.8327 4.96217
H 2.86016 3.95612 3.72688
C 2.04563 6.40962 2.95484
H 1.96579 7.47447 2.6644
H 1.98892 5.78836 2.06142
H 1.13434 6.17656 3.50742
C 3.51842 7.14929 4.78539
H 4.55461 7.13409 5.1383
H 3.29363 8.16511 4.39817
H 2.86616 6.9025 5.61534
C 12.3279 1.53015 9.28226
C 13.0326 11.1191 10.0512
H 12.6993 10.1617 9.71349
H -1.93408 11.0595 9.82686
H 13.1248 11.1991 0.327657
C 11.6313 2.52134 10.2067
H 11.0761 2.15259 0.0242538
H 12.6422 2.87204 0.0663809
H 11.2147 3.37298 9.63082
C 13.4791 2.37556 8.65258
H 13.958 1.76242 7.86785
H 13.1275 3.32992 8.20827
H -1.82714 2.67201 9.41581
C 5.33078 1.43247 1.27202
C 4.05257 1.81815 2.02159
H 3.95595 2.9026 2.10829
H 3.13318 1.48998 1.50112
H 3.98911 1.27512 2.97588
C 5.61074 10.6669 1.55989
H 5.90364 10.5115 2.61939
H 4.69951 10.078 1.34073
H 6.44594 10.274 0.945794
C 5.00853 1.63205 -0.200957
H 5.4673 1.02149 10.0421
H 3.74924 1.35993 10.3494
H 4.9003 2.68769 10.324
C 8.25388 6.25011 9.7907
C 7.6707 6.66479 0.141226
H 7.72967 7.73393 0.396646
H 6.62842 6.50682 -0.137903
H 7.94818 6.06733 1.03602
C 8.45183 4.76484 9.58463
H 9.17882 4.55865 8.77495
H 8.77717 4.26552 10.5123
H 7.48819 4.3116 9.2768
C 8.90535 8.32947 2.93251
H 8.17621 10.4413 4.80158
H 4.53091 5.69319 6.90775
H 3.40249 7.30467 7.52215
C 11.4809 5.15759 6.42535
C 2.69411 3.22792 8.93216
H 8.71212 2.24936 6.79091
H 1.91074 3.64839 1.76076
H -0.302887 5.81872 1.88588
C 1.01577 5.17272 10.5151
H -1.24124 8.58894 2.9398
H 5.37962 4.102 8.10482
H 4.76002 6.13729 8.89543
C 0.287431 2.20807 7.78246
H 11.0039 5.72452 8.96332
H 2.53989 5.26964 7.43143
H 2.20032 3.23081 6.43493
204
Atoms. Timestep: 11272
Ni 1.98358 8.97985 9.19799
Ni 6.19933 3.9285 4.15296
O -0.470587 4.37823 4.10907
O 3.41303 7.97381 9.30132
O 4.73205 3.04044 4.2921
O 0.523898 9.98049 9.31454
O 5.8533 5.20324 5.39125
O 1.62466 7.75839 10.5094
O 14.0327 2.40853 5.04191
O 2.59021 10.1578 -0.208221
N 2.87192 10.2585 7.87433
N -1.32789 2.3709 2.35757
N 1.15031 7.74039 7.83213
N 5.49092 5.14785 2.66541
C 3.22748 11.3639 5.74463
C 0.324858 2.22926 0.505117
H 3.2633 11.0189 4.72242
H 7.04045 2.18152 10.3001
C 4.28875 1.53691 6.23058
C 0.429293 11.4622 0.600191
C 4.48997 1.42937 7.58445
C -0.579047 10.8886 1.39962
H 11.4765 3.14303 7.04037
H -0.797035 9.83305 1.33564
C 0.372923 7.19182 5.58133
C 4.86295 5.43502 0.286821
H 0.146838 7.5768 4.60377
H 11.3214 5.25291 -0.108548
C 1.20478 7.95137 6.47577
C 5.74897 4.90812 1.32512
H 1.97468 8.52158 6.06451
C 2.34218 10.7153 6.69623
C -0.676293 2.95199 1.27371
H 1.29982 10.559 6.46912
C 4.17239 10.7716 8.13177
C -0.976107 1.00834 2.56081
C 0.182646 6.78082 8.21166
C 4.54649 6.17431 2.86951
C 0.0680606 5.66128 7.349
C 4.32362 7.11508 1.81946
H 6.46398 6.21934 7.90573
H 3.9535 8.10485 2.05345
C -0.212581 5.98641 6.02605
C 4.06164 6.56987 0.582182
C 5.21889 2.34169 5.29164
C 1.06896 10.6364 10.329
C -1.02557 5.0692 5.09833
C 2.89716 7.27492 10.2815
Ni 10.1173 9.39848 9.54843
Ni 13.9703 3.66244 3.78958
O 7.73008 4.85099 4.30443
O 11.6559 8.53585 9.67636
O 12.33 2.92985 3.74607
O 8.59338 10.2644 9.72404
O 13.6354 4.85798 5.12144
O 10.1214 8.33651 0.217364
O 6.50528 2.75632 5.53461
O 10.7258 10.7075 -0.00805811
N 10.6839 10.5999 7.97649
N 6.9383 2.57897 2.88246
N 9.38025 7.95197 8.32992
N 13.5561 5.02421 2.44432
C 11.2486 10.7857 5.58864
C 7.45146 1.93746 0.601539
H 11.2768 10.3113 4.61692
H 0.944179 2.74444 -0.202205
C 11.7469 1.46683 5.74828
C 8.62257 1.25447 0.948471
C 11.4026 2.07121 6.9441
C 8.98398 1.31145 2.30043
H 5.22631 2.06428 8.0561
H 9.91366 11.4877 2.63197
C 9.33123 6.75842 6.18697
C 11.9952 5.58811 0.660535
H 9.84882 6.48923 5.27836
H 4.79384 5.15887 9.99436
C 10.0455 7.46967 7.22168
C 12.7181 4.64734 1.43333
H 11.0948 7.68774 7.08652
H 6.7199 4.56762 1.04021
C 10.4835 10.198 6.66144
C 6.46272 2.25441 1.61931
H 9.57159 9.69183 6.39554
H -0.785089 4.00104 1.09684
C 11.3289 1.23945 8.10322
C 8.17503 2.04771 3.23243
H 8.57562 2.24189 4.21564
C 8.22229 7.25804 8.67473
C 13.6819 6.37925 2.69867
H -1.67215 6.73642 3.45591
C 7.42564 6.64396 7.64366
C 12.9533 7.34667 1.95019
H -0.210885 4.69093 7.74074
H 13.0803 8.40245 2.17014
C 7.97382 6.37106 6.37355
C 12.1148 6.94348 0.902251
C 12.7302 2.13335 4.7526
C 9.41798 11.0555 -0.106711
C 7.15271 5.60392 5.26243
C 11.3814 7.94067 0.0256424
C 5.39713 9.82352 8.12508
C 5.63638 9.27423 9.53307
H 5.8359 8.19833 9.47789
H 6.43994 9.79007 10.0551
H 4.79592 9.46898 10.2198
C 6.72653 10.515 7.6591
H 6.65869 10.8653 6.60733
H 6.99596 11.3764 8.30308
H 7.56227 9.78922 7.6553
C 5.17641 8.73417 7.06975
H 6.10163 8.44273 6.53789
H 4.74229 7.80881 7.46792
H 4.55466 9.14834 6.26464
C -0.178568 11.2034 3.82559
C 0.606412 1.80191 4.3555
H 0.670493 2.5884 3.61428
H 1.66722 1.6878 4.32487
H 0.317906 2.14989 5.36082
C -1.12345 10.5269 4.86329
H 13.8554 10.4698 4.48669
H -1.08251 11.007 5.8614
H -0.872643 9.47668 5.05323
C 0.916264 10.1333 3.49026
H 0.449448 9.23547 3.06445
H 1.43308 9.78659 4.38548
H 1.69327 10.5168 2.7919
C -1.23258 7.25803 8.69163
C -1.27 7.72421 10.1489
H -0.487213 8.38537 10.4508
H 13.8528 8.30847 10.3564
H -1.01837 6.8541 0.091622
C 13.727 6.10638 8.64657
H 13.5202 5.76115 7.61246
H -1.9645 5.24748 9.27089
H 12.7478 6.44401 9.02541
C -1.7664 8.33873 7.71849
H -1.22025 9.29632 7.80496
H -1.73184 8.00812 6.6715
H 13.1706 8.4873 7.83671
C 3.40127 6.13744 3.89656
C 3.01745 4.90102 4.7192
H 3.69619 4.65557 5.54428
H 2.11461 5.12341 5.30849
H 2.71252 4.06026 4.07216
C 2.06797 6.48337 3.13913
H 1.91549 7.57145 3.04616
H 2.05486 6.06634 2.12385
H 1.16257 6.01637 3.53603
C 3.80038 7.25826 4.83725
H 4.90396 7.364 4.90507
H 3.4404 8.24693 4.48209
H 3.47205 7.03952 5.85742
C 12.4144 1.55083 9.17137
C 13.106 10.9304 9.73439
H 13.0239 10.1719 8.98293
H -1.82491 11.0368 9.81213
H 13.0046 10.6032 -0.004539
C 11.799 2.43593 10.2576
H 12.4269 2.18528 0.527959
H 12.0279 3.47316 10.0062
H 10.6942 2.43539 10.2716
C 13.5909 2.37045 8.53596
H 14.0327 1.79215 7.69747
H 13.2879 3.35991 8.14775
H -1.66377 2.60419 9.2988
C 5.03517 1.66312 1.40609
C 3.77127 2.31431 2.01987
H 3.84698 3.40269 2.10524
H 2.85889 2.14472 1.41869
H 3.45638 1.81184 2.94709
C 5.09454 10.8276 1.89747
H 5.23462 10.8079 3.00047
H 4.14886 10.3035 1.66673
H 5.94935 10.2766 1.45324
C 4.76472 1.746 -0.0929511
H 5.20276 1.06616 10.1434
H 3.49774 1.51162 10.337
H 4.7405 2.76688 10.2778
C 8.15817 6.58399 9.99416
C 7.75882 7.24927 0.450913
H 7.86867 8.34464 0.454964
H 6.6904 7.08894 0.447729
H 8.1853 6.83803 1.3875
C 8.42948 5.11063 10.0478
H 9.21745 4.83729 9.31742
H 8.99869 4.81045 0.325021
H 7.50126 4.56723 9.77788
C 9.47632 8.58319 3.28724
H 6.64602 9.03816 4.10846
H 8.90489 2.45326 8.7383
H 5.14887 4.34258 7.72194
C 10.1595 4.92587 3.03799
C 2.74048 3.76911 8.89366
H 8.63359 1.68095 6.50023
H 1.59068 3.95131 2.14964
H -0.0365105 7.48299 1.90838
C 1.02479 5.20103 -0.124577
H 12.4023 7.93041 4.9435
H 9.54223 3.88639 5.91805
H 7.45988 3.75048 7.59226
C 0.531653 2.02185 8.00079
H 11.0961 5.08361 8.04221
H 3.3599 5.95521 7.7353
H 2.10696 3.17221 6.39697
204
Atoms. Timestep: 20000
Ni 1.99207 8.95257 9.18774
Ni 6.21754 3.93043 4.16514
O -0.479245 4.33497 4.10749
O 3.42757 7.94905 9.28497
O 4.74691 3.04294 4.30096
O 0.52854 9.94787 9.3083
O 5.87181 5.21033 5.40297
O 1.88148 7.7267 -0.240509
O 13.9896 2.36915 5.00306
O 2.59648 10.1342 -0.215259
N 2.88121 10.2357 7.86697
N -1.34397 2.35112 2.33153
N 1.14916 7.71119 7.82196
N 5.51561 5.1466 2.67128
C 3.25996 11.3374 5.73621
C 0.303147 2.20927 0.473728
H 3.28614 11.0201 4.70673
H 7.01861 2.17507 10.3156
C 4.30781 1.522 6.23289
C 0.427839 11.4416 0.584349
C 4.4921 1.41629 7.59149
C -0.581758 10.8668 1.38119
H 11.406 3.14721 6.95341
H -0.795159 9.81282 1.31748
C 0.368179 7.14885 5.5732
C 4.90914 5.42873 0.283323
H 0.146498 7.52626 4.59468
H 11.3333 5.31857 -0.108736
C 1.20396 7.91186 6.46339
C 5.78692 4.90673 1.33265
H 1.96084 8.49185 6.04779
C 2.36727 10.6816 6.67749
C -0.706676 2.92635 1.23669
H 1.32534 10.5394 6.44526
C 4.17692 10.7555 8.13876
C -0.985893 0.988288 2.53996
C 0.170703 6.763 8.20654
C 4.56065 6.16449 2.86583
C 0.0491633 5.63487 7.35374
C 4.33464 7.10023 1.81025
H 6.50273 6.19109 7.94621
H 3.95705 8.08611 2.03558
C -0.223812 5.94721 6.02449
C 4.08843 6.55256 0.57128
C 5.23395 2.34645 5.30334
C 1.07282 10.61 10.3185
C -1.03579 5.02249 5.09958
C 2.91643 7.2463 10.2658
Ni 10.1339 9.42671 9.551
Ni 13.9541 3.64202 3.76823
O 7.75302 4.85217 4.32232
O 11.6831 8.58158 9.68612
O 12.3042 2.92873 3.70162
O 8.60263 10.2825 9.72516
O 13.622 4.82703 5.11071
O 10.151 8.38619 0.237256
O 6.52025 2.7598 5.54859
O 10.7409 10.7606 -0.0308645
N 10.68 10.6074 7.95324
N 6.95165 2.57951 2.89686
N 9.40523 7.95004 8.35803
N 13.564 5.03241 2.4355
C 11.2212 10.7626 5.55793
C 7.44127 1.93034 0.612856
H 11.2642 10.2654 4.59926
H 0.909226 2.72623 -0.240845
C 11.6929 1.45777 5.68851
C 8.63324 1.27801 0.945446
C 11.3498 2.07474 6.8787
C 9.01075 1.34548 2.29355
H 5.20535 2.0655 8.07553
H 9.95204 11.5409 2.61401
C 9.35584 6.7474 6.2193
C 12.0055 5.63801 0.663007
H 9.87287 6.47649 5.31189
H 4.84297 5.14526 9.99406
C 10.0707 7.4587 7.2538
C 12.7192 4.67967 1.42143
H 11.1219 7.66398 7.12407
H 6.75711 4.56108 1.05823
C 10.4746 10.1807 6.64608
C 6.46281 2.24421 1.64082
H 9.5663 9.66277 6.39449
H -0.848472 3.96254 1.03114
C 11.3046 1.26059 8.05318
C 8.19853 2.06492 3.23458
H 8.60766 2.26823 4.21174
C 8.2522 7.25045 8.7113
C 13.699 6.38468 2.71059
H -1.65406 6.72478 3.47155
C 7.4548 6.62897 7.68065
C 12.9781 7.3708 1.97513
H -0.23123 4.67047 7.75447
H 13.1084 8.4196 2.21282
C 7.99673 6.36683 6.40247
C 12.141 6.99025 0.917388
C 12.689 2.10979 4.69752
C 9.42906 11.0938 -0.121902
C 7.17397 5.60584 5.28128
C 11.4164 8.00496 0.0520919
C 5.40865 9.80997 8.14597
C 5.64793 9.25569 9.55776
H 5.85199 8.17823 9.50839
H 6.45066 9.76774 10.087
H 4.80498 9.43731 10.2438
C 6.73004 10.5144 7.68443
H 6.66096 10.8667 6.63479
H 6.99096 11.3803 8.32395
H 7.57169 9.79879 7.67346
C 5.20851 8.7182 7.08716
H 6.13466 8.44038 6.55146
H 4.79163 7.78047 7.47668
H 4.58667 9.12895 6.28291
C -0.192642 11.1843 3.81147
C 0.576607 1.79085 4.34323
H 0.691585 2.54662 3.57002
H 1.62724 1.65717 4.40963
H 0.24407 2.1831 5.31721
C -1.12908 10.4956 4.85024
H 13.8486 10.4353 4.48585
H -1.08583 10.9679 5.85228
H -0.874572 9.44284 5.03086
C 0.913179 10.1236 3.4753
H 0.462653 9.21933 3.0416
H 1.43364 9.77349 4.36646
H 1.68913 10.5161 2.7835
C -1.24185 7.2579 8.6791
C -1.28128 7.73238 10.1367
H -0.461862 8.33324 10.4599
H 13.8829 8.38049 10.3306
H -1.09843 6.86841 0.0866833
C 13.7056 6.11749 8.63149
H 13.5013 5.76838 7.5992
H -2.00668 5.25528 9.26055
H 12.7287 6.46662 9.00143
C -1.75985 8.33904 7.69639
H -1.20047 9.2892 7.76596
H -1.73622 7.99603 6.65236
H 13.1832 8.51332 7.81645
C 3.42272 6.13288 3.90101
C 3.0397 4.90629 4.74631
H 3.71814 4.65758 5.56874
H 2.14577 5.14059 5.34382
H 2.71696 4.05594 4.11914
C 2.08805 6.46139 3.14064
H 1.91834 7.54676 3.05212
H 2.08504 6.05688 2.1199
H 1.18806 5.97295 3.52563
C 3.82226 7.27184 4.82402
H 4.92368 7.39427 4.87707
H 3.44972 8.25517 4.46781
H 3.51215 7.06244 5.85154
C 12.3989 1.60714 9.10408
C 13.1157 11.0029 9.67721
H 13.046 10.2275 8.93812
H -1.81824 11.1344 9.7572
H 13.0242 10.6759 -0.0587862
C 11.7889 2.50253 10.1897
H 12.3938 2.24059 0.465956
H 12.0451 3.54033 9.95753
H 10.6855 2.52008 10.1937
C 13.5555 2.43359 8.43993
H 14.0005 1.84948 7.60983
H 13.2354 3.40737 8.02876
H -1.69356 2.69998 9.1881
C 5.02184 1.66783 1.43559
C 3.75813 2.34459 2.03097
H 3.84034 3.43267 2.10794
H 2.8497 2.18179 1.42173
H 3.41852 1.86197 2.96061
C 5.05471 10.8342 1.94423
H 5.19089 10.8208 3.04646
H 4.10345 10.3178 1.72142
H 5.89751 10.2595 1.51029
C 4.7543 1.73269 -0.0675368
H 5.18563 1.04284 10.1743
H 3.4889 1.50456 10.3566
H 4.73551 2.74868 10.2907
C 8.19596 6.57865 10.0383
C 7.80422 7.24833 0.502887
H 7.91192 8.34392 0.515719
H 6.73482 7.10021 0.512759
H 8.22687 6.83309 1.44086
C 8.46424 5.10151 10.0925
H 9.23985 4.82051 9.35594
H 9.03891 4.79188 0.364673
H 7.54085 4.55455 9.82715
C 9.38122 8.60803 3.33084
H 6.83327 9.58084 4.41166
H 8.88034 2.47115 8.66286
H 5.00904 4.40102 7.68198
C 10.1824 4.95612 3.05922
C 2.69807 3.75048 8.92899
H 8.6121 1.57995 6.45327
H 1.55636 3.95242 2.15208
H -0.0100137 7.42285 1.8863
C 0.979803 5.20485 -0.100221
H 12.3649 7.88156 4.94867
H 9.26345 3.8496 6.29826
H 7.19721 3.66937 7.75123
C 0.504081 1.96778 7.97005
H 11.1015 5.05455 8.06733
H 3.22598 5.94403 7.70476
H 2.09962 3.14627 6.40218
204
Atoms. Timestep: 21274
Ni 1.99426 8.94926 9.18398
Ni 6.2176 3.9333 4.16604
O -0.475897 4.33734 4.10845
O 3.42905 7.94697 9.28113
O 4.74769 3.0469 4.30173
O 0.531443 9.94333 9.30444
O 5.87206 5.21162 5.40272
O 1.64598 7.7249 10.4927
O 13.9858 2.37393 5.00318
O 2.59828 10.1294 -0.210303
N 2.88294 10.2308 7.86444
N -1.34021 2.35593 2.33413
N 1.15174 7.7094 7.81947
N 5.516 5.14797 2.67356
C 3.26149 11.3312 5.73565
C 0.306072 2.21425 0.478041
H 3.28765 11.0143 4.70713
H 7.01834 2.1801 10.3108
C 4.30884 1.52782 6.23187
C 0.430708 11.4353 0.588563
C 4.49304 1.42224 7.58921
C -0.578384 10.8611 1.38467
H 11.4035 3.15104 6.95171
H -0.79168 9.80845 1.32102
C 0.371126 7.14776 5.5728
C 4.9098 5.42976 0.287819
H 0.149545 7.5247 4.59518
H 11.3308 5.31973 -0.103879
C 1.2065 7.90983 6.46216
C 5.78717 4.9084 1.33617
H 1.96301 8.48911 6.04695
C 2.36924 10.6762 6.67606
C -0.703247 2.93046 1.24029
H 1.32783 10.5342 6.44405
C 4.17802 10.7499 8.13598
C -0.98231 0.994774 2.54236
C 0.173769 6.76238 8.2037
C 4.56151 6.16461 2.86794
C 0.0522799 5.63564 7.35169
C 4.3356 7.0992 1.81334
H 6.50269 6.19117 7.94361
H 3.9582 8.08386 2.03845
C -0.220572 5.94759 6.02367
C 4.0895 6.5522 0.575509
C 5.2345 2.35126 5.30319
C 1.07547 10.6047 10.3137
C -1.03216 5.02401 5.09961
C 2.91817 7.24509 10.261
Ni 10.1321 9.42282 9.54691
Ni 13.9504 3.64524 3.7695
O 7.75234 4.8539 4.32307
O 11.6805 8.57874 9.68191
O 12.3012 2.93283 3.70295
O 8.60157 10.2775 9.72091
O 13.6184 4.8288 5.11073
O 10.1491 8.38359 0.241793
O 6.52018 2.76411 5.54821
O 10.7387 10.7551 -0.0260839
N 10.6779 10.602 7.95063
N 6.95134 2.58404 2.89894
N 9.40377 7.94796 8.35504
N 13.5605 5.03392 2.438
C 11.2189 10.757 5.55754
C 7.4407 1.93567 0.617044
H 11.2618 10.2605 4.59975
H 0.674192 2.73058 10.4924
C 11.6903 1.46367 5.68799
C 8.63208 1.28414 0.949324
C 11.3474 2.07989 6.87708
C 9.00943 1.35153 2.29618
H 5.20595 2.07066 8.07281
H 9.95026 11.5344 2.61634
C 9.35439 6.7468 6.2183
C 12.0027 5.63878 0.66715
H 9.87115 6.47623 5.31174
H 4.84376 5.14663 9.98956
C 10.0689 7.45722 7.25185
C 12.716 4.68162 1.42487
H 11.1196 7.66225 7.12223
H 6.75688 4.56317 1.06201
C 10.4726 10.1759 6.64467
C 6.46273 2.24915 1.64406
H 9.56474 9.65858 6.39332
H -0.84498 3.96536 1.03494
C 11.3022 1.26674 8.05048
C 8.19762 2.07008 3.23634
H 8.60655 2.27315 4.21259
C 8.25131 7.24923 8.70799
C 13.6954 6.38453 2.71283
H -1.65014 6.72421 3.47309
C 7.45429 6.62851 7.67829
C 12.9749 7.36944 1.97805
H -0.227973 4.67242 7.75205
H 13.1051 8.41695 2.21553
C 7.99594 6.3667 6.4013
C 12.1381 6.98936 0.921295
C 12.6858 2.11489 4.69792
C 9.42751 11.0878 -0.117037
C 7.17358 5.60664 5.28115
C 11.4139 8.00282 0.0568018
C 5.40914 9.8056 8.14318
C 5.64832 9.252 9.55367
H 5.85229 8.17587 9.50434
H 6.45067 9.76343 10.0824
H 4.8058 9.4334 10.2391
C 6.72988 10.5092 7.68207
H 6.66082 10.861 6.6334
H 6.99068 11.374 8.32099
H 7.57112 9.79443 7.67111
C 5.20909 8.71517 7.08536
H 6.13478 8.43769 6.55016
H 4.79242 7.7786 7.47452
H 4.58755 9.12541 6.28186
C -0.189433 11.1782 3.8127
C 0.579442 1.79636 4.34396
H 0.694359 2.55119 3.57147
H 1.62956 1.66284 4.41031
H 0.247074 2.18812 5.31704
C -1.1254 10.4904 4.85051
H 13.845 10.4302 4.48646
H -1.08216 10.9622 5.85162
H -0.871012 9.43893 5.03096
C 0.915842 10.1188 3.47684
H 0.465534 9.2157 3.04354
H 1.43605 9.76917 4.36717
H 1.6914 10.5109 2.78567
C -1.23808 7.25668 8.67582
C -1.27749 7.73058 10.1321
H -0.45846 8.33069 10.455
H 13.8792 8.3779 10.3258
H -1.09482 6.86767 0.0913577
C 13.7021 6.11767 8.62826
H 13.4978 5.76899 7.59691
H 14.0101 5.25652 9.25673
H 12.7256 6.46637 8.99785
C -1.75584 8.33649 7.69402
H -1.19673 9.28548 7.76353
H -1.73223 7.9939 6.65096
H 13.1798 8.51056 7.81397
C 3.42415 6.13303 3.90216
C 3.04133 4.90795 4.74667
H 3.71944 4.65955 5.56834
H 2.14784 5.14196 5.34363
H 2.71874 4.05865 4.12008
C 2.09013 6.46114 3.14249
H 1.9205 7.54518 3.05406
H 2.08711 6.05714 2.1227
H 1.19058 5.9733 3.52712
C 3.8235 7.27059 4.82432
H 4.92439 7.39287 4.87732
H 3.45114 8.25271 4.46844
H 3.51355 7.06145 5.85088
C 12.3959 1.61288 9.1004
C 13.1124 10.997 9.673
H 13.0428 10.2226 8.9346
H -1.81418 11.1285 9.75292
H 13.0208 10.6705 -0.0539794
C 11.7863 2.50716 10.185
H 12.3907 2.24554 0.470274
H 12.0423 3.54369 9.95307
H 10.6834 2.52469 10.1891
C 13.552 2.43831 8.43687
H 13.9967 1.85492 7.60753
H 13.232 3.41089 8.02607
H -1.68958 2.70438 9.18434
C 5.02247 1.67348 1.43901
C 3.75938 2.3494 2.03384
H 3.84155 3.43615 2.11075
H 2.85139 2.18681 1.42517
H 3.41995 1.86738 2.96262
C 5.05532 10.8286 1.94719
H 5.19145 10.8152 3.04839
H 4.10453 10.3128 1.72459
H 5.8977 10.2546 1.51365
C 4.75504 1.73825 -0.0627167
H 5.18625 1.04925 10.1696
H 3.49036 1.51041 10.3518
H 4.73636 2.753 10.2859
C 8.19511 6.57826 10.0337
C 7.80347 7.24711 0.507181
H 7.91112 8.34136 0.519999
H 6.7346 7.09917 0.517045
H 8.22592 6.83239 1.44429
C 8.46326 5.10293 10.088
H 9.23848 4.82228 9.35204
H 9.03756 4.79369 0.369097
H 7.54032 4.55665 9.82281
C 9.37972 8.60515 3.33252
H 6.83298 9.57668 4.41231
H 8.87913 2.47581 8.65957
H 5.00967 4.40334 7.67961
C 10.1805 4.95773 3.06115
C 2.69989 3.75356 8.9255
H 8.61101 1.58566 6.45201
H 1.55869 3.95526 2.15484
H -0.00691281 7.42143 1.88931
C 0.982385 5.20616 -0.0953693
H 12.3619 7.87955 4.94884
H 9.26192 3.85256 6.29742
H 7.1967 3.67248 7.74889
C 0.506972 1.97305 7.96742
H 11.0992 5.05603 8.06462
H 3.22748 5.94442 7.70238
H 2.10173 3.1501 6.40102
204
Atoms. Timestep: 25598
Ni 1.99557 8.94545 9.18341
Ni 6.22107 3.93336 4.16874
O -0.477715 4.33217 4.10815
O 3.43091 7.94287 9.27883
O 4.75105 3.04735 4.30332
O 0.532431 9.93945 9.30395
O 5.87505 5.21342 5.40547
O 1.64842 7.71978 10.4928
O 13.9797 2.36879 4.9985
O 2.60016 10.1264 -0.209895
N 2.88364 10.2282 7.86415
N -1.34356 2.35354 2.33012
N 1.15215 7.70519 7.81893
N 5.52091 5.14809 2.67496
C 3.26453 11.3288 5.7343
C 0.304483 2.21253 0.474283
H 3.2904 11.0134 4.70425
H 7.01548 2.1803 10.3113
C 4.3107 1.52702 6.23276
C 0.431264 11.4325 0.587295
C 4.49252 1.42257 7.59141
C -0.579887 10.8571 1.38123
H 11.393 3.15501 6.93892
H -0.792281 9.8032 1.31761
C 0.370752 7.14251 5.57153
C 4.91683 5.42765 0.286775
H 0.149666 7.51918 4.59286
H 11.3321 5.32916 -0.105785
C 1.2068 7.90522 6.46064
C 5.79401 4.9077 1.33711
H 1.96293 8.48503 6.04478
C 2.37095 10.6732 6.67417
C -0.707294 2.92838 1.23478
H 1.32904 10.5319 6.44143
C 4.17836 10.7487 8.13788
C -0.985417 0.990915 2.53906
C 0.171974 6.75945 8.2043
C 4.56442 6.16418 2.86795
C 0.049673 5.63071 7.35345
C 4.33844 7.09875 1.8121
H 6.50705 6.1875 7.94932
H 3.95866 8.08389 2.03635
C -0.222434 5.9423 6.02421
C 4.09382 6.54952 0.574056
C 5.23728 2.3508 5.30542
C 1.07668 10.6018 10.3132
C -1.0341 5.01819 5.10085
C 2.92085 7.2397 10.2593
Ni 10.1349 9.42738 9.54755
Ni 13.9476 3.64311 3.76662
O 7.7565 4.85379 4.32571
O 11.6846 8.58553 9.68298
O 12.2971 2.9333 3.69608
O 8.60353 10.2808 9.72066
O 13.6155 4.8261 5.11017
O 10.1534 8.39098 0.245774
O 6.52334 2.76347 5.5522
O 10.7417 10.7639 -0.0286286
N 10.6773 10.6036 7.94743
N 6.95378 2.58312 2.90224
N 9.40807 7.94798 8.35927
N 13.5619 5.0355 2.4369
C 11.2156 10.753 5.55232
C 7.43971 1.93517 0.618044
H 11.2609 10.2528 4.59542
H 0.671935 2.72929 10.4873
C 11.6825 1.46285 5.67905
C 8.63448 1.28815 0.948661
C 11.3392 2.08228 6.86744
C 9.01472 1.35601 2.2956
H 5.20393 2.07286 8.07641
H 9.95819 11.5415 2.61388
C 9.35958 6.74444 6.22238
C 12.0042 5.64587 0.666802
H 9.87662 6.47301 5.31527
H 4.85207 5.144 9.98783
C 10.0744 7.45433 7.25693
C 12.7161 4.68564 1.42298
H 11.1257 7.65898 7.12765
H 6.76458 4.56272 1.06452
C 10.4714 10.1728 6.64192
C 6.46302 2.24712 1.64743
H 9.56285 9.65431 6.39231
H -0.853787 3.9627 1.02515
C 11.2985 1.27128 8.0436
C 8.20225 2.07184 3.23804
H 8.61301 2.2774 4.214
C 8.25524 7.24934 8.71338
C 13.698 6.38689 2.71527
H -1.64729 6.72471 3.47685
C 7.45817 6.62721 7.68334
C 12.9781 7.37477 1.98256
H -0.232617 4.66735 7.75521
H 13.1087 8.42297 2.22269
C 7.99989 6.36657 6.40497
C 12.1419 6.99677 0.923706
C 12.6797 2.11178 4.69021
C 9.42977 11.0948 -0.119346
C 7.17732 5.60794 5.28382
C 11.4192 8.01247 0.0612931
C 5.41124 9.80427 8.14579
C 5.65076 9.24934 9.55743
H 5.85536 8.17202 9.50785
H 6.453 9.76173 10.0872
H 4.80724 9.42934 10.2432
C 6.73154 10.5102 7.68429
H 6.66181 10.8617 6.63456
H 6.9911 11.3768 8.32316
H 7.57386 9.79553 7.67261
C 5.21352 8.71287 7.08667
H 6.13987 8.43697 6.55031
H 4.79873 7.7738 7.47522
H 4.59172 9.12414 6.28301
C -0.192871 11.1738 3.81092
C 0.574912 1.79334 4.34371
H 0.695994 2.54567 3.56788
H 1.62391 1.65788 4.41877
H 0.238544 2.18861 5.31503
C -1.12953 10.4841 4.84839
H 13.8404 10.4244 4.48381
H -1.08629 10.9553 5.85094
H -0.875385 9.43119 5.02688
C 0.914268 10.1145 3.47494
H 0.464717 9.21017 3.0405