ITEM: TIMESTEP
0
ITEM: NUMBER OF ATOMS
204
ITEM: BOX BOUNDS xy xz yz pp pp pp
-2.2759399999999999e-01 1.2505599999999999e+01 0.0000000000000000e+00
0.0000000000000000e+00 1.2523400000000001e+01 -2.2759399999999999e-01
0.0000000000000000e+00 1.0274279000000000e+01 0.0000000000000000e+00
ITEM: ATOMS id type x y z
1 1 2.39921 9.62503 8.48384
2 1 5.75604 3.01908 3.0776
3 2 2.02752 4.28681 3.94129
4 2 3.73142 8.48206 8.55056
5 2 4.46439 3.29426 4.39596
6 2 1.03558 10.8137 8.83029
7 2 6.97064 4.30773 3.80831
8 2 1.8553 8.33182 9.67151
9 2 0.809544 2.04852 5.05769
10 2 2.91359 10.5002 9.77215
11 3 3.17761 11.0171 7.19345
12 3 1.33175 2.18548 2.28326
13 3 1.69117 8.6029 6.99199
14 3 5.05013 4.43266 1.80799
15 4 2.84564 0.428342 5.69887
16 4 1.40443 1.36834 10.2398
17 5 2.36563 0.600192 4.83404
18 5 6.13612 12.0611 10.2509
19 4 4.16346 0.97661 5.87707
20 4 1.92413 0.0604339 0.469222
21 4 4.9536 0.167382 6.68894
22 4 2.39658 0.0676715 1.84365
23 5 0.345866 0.132212 7.35897
24 4 2.44618 7.17032 5.17468
25 4 4.55506 5.51659 9.8764
26 5 3.02628 7.06046 4.28979
27 5 0.405596 7.89626 1.22538
28 4 2.48589 8.40286 5.88612
29 4 5.20311 4.40731 0.451725
30 5 3.24722 9.11503 5.63283
31 5 1.46636 6.09759 2.58099
32 4 2.39488 11.7181 6.32706
33 4 1.38255 2.46604 0.918677
34 5 1.56132 11.2049 5.87825
35 5 5.51151 1.7203 0.737037
36 4 4.48498 11.3412 7.14439
37 4 2.19424 1.24377 2.64351
38 5 5.181 10.5334 7.26093
39 5 2.98398 1.60302 3.2458
40 4 0.818347 7.60158 7.28633
41 4 4.2392 5.42322 2.31781
42 5 0.0631947 7.79463 7.94113
43 5 4.12015 5.48285 3.37908
44 4 1.07746 6.26224 6.89947
45 4 3.65771 6.46152 1.48623
46 5 5.81907 7.53631 5.86864
47 5 3.16851 7.29941 1.95897
48 4 1.71513 6.0808 5.68271
49 4 3.87019 6.51033 0.0994663
50 4 4.93589 2.10964 4.93164
51 4 1.84189 11.2668 9.80697
52 4 1.26649 4.96391 4.8182
53 4 3.04446 7.72604 9.46768
54 1 9.41999 9.32548 8.87666
55 1 0.528967 3.34332 3.72132
56 2 6.97134 4.30779 3.80787
57 2 10.919 8.42812 9.06577
58 2 11.5061 2.319 3.92945
59 2 7.89455 10.2414 9.07179
60 2 0.0541892 4.43465 4.92409
61 2 8.97802 8.0231 10.0382
62 2 6.10422 1.82813 4.30931
63 2 9.71 10.3426 10.1907
64 3 10.217 10.6928 7.67722
65 3 7.17587 2.19489 1.72977
66 3 8.7919 8.22436 7.32659
67 3 12.4144 4.67798 2.34119
68 4 9.90678 12.1909 5.84887
69 4 6.98079 0.11393 0.509574
70 5 1.1854 1.49313 9.19752
71 4 11.3032 0.276317 5.9037
72 4 8.26925 12.1909 0.579599
73 4 12.0357 12.1377 6.88982
74 4 9.15032 0.534853 1.17051
75 4 9.02514 6.5675 5.55657
76 4 12.4229 6.94095 1.34064
77 4 9.51765 7.24588 6.74954
78 4 0.55683 5.88048 2.09122
79 5 10.5649 7.26851 6.94458
80 5 5.85797 3.70356 0.0553078
81 4 9.43367 11.2596 6.81484
82 4 6.51064 1.40513 0.932916
83 5 8.6393 10.6596 6.58304
84 5 0.97832 3.36305 0.566167
85 4 11.5367 10.8744 7.44688
86 4 8.56808 1.87523 1.75236
87 5 12.1299 9.99536 7.30993
88 5 9.19004 2.5183 2.2838
89 4 7.55592 8.47061 6.76356
90 4 11.1578 4.58138 1.8595
91 5 6.99254 9.32011 7.08554
92 5 10.501 3.93996 2.31663
93 4 6.88696 7.47751 5.96262
94 4 10.6545 5.45765 0.878265
95 4 7.57873 6.3899 5.4145
96 4 11.2195 6.68278 0.65286
97 4 12.0413 1.55243 4.94514
98 4 8.49946 10.8546 10.1108
99 4 6.71002 5.05852 4.90747
100 4 10.2917 7.67815 9.97703
101 6 5.98958 0.877548 7.49221
102 6 6.91095 12.3604 7.94977
103 5 7.14193 11.8118 7.06546
104 5 7.84341 0.193714 8.41346
105 5 6.38873 11.5978 8.46017
106 6 5.18896 1.65691 8.49318
107 5 4.4915 1.04407 9.07263
108 5 5.92684 2.18309 9.05658
109 5 4.56125 2.43044 8.00482
110 6 6.97064 1.8445 6.85554
111 5 7.54938 1.30888 6.11451
112 5 6.52102 2.76928 6.50388
113 5 7.74217 2.21318 7.54338
114 6 3.51941 11.6397 2.24858
115 6 4.53015 12.1154 3.28965
116 5 4.73403 0.637406 3.06797
117 5 5.53913 11.725 3.14513
118 5 4.32909 11.7365 4.26714
119 6 2.94783 10.3104 2.67998
120 5 2.31518 10.4671 3.57823
121 5 3.76982 9.65304 2.96814
122 5 2.36136 9.83422 1.87635
123 6 4.4393 11.5723 1.11445
124 5 4.63737 0.0615566 1.03388
125 5 4.34955 12.0182 0.11798
126 5 5.23666 10.8428 1.17251
127 6 0.503963 5.05426 7.70638
128 6 0.593281 5.34841 9.18633
129 5 0.377091 6.37966 9.38341
130 5 -0.164826 4.74193 9.69414
131 5 1.58241 5.15935 9.62752
132 6 1.26063 3.68379 7.5421
133 5 1.98216 3.47592 8.3581
134 5 0.550382 2.83168 7.5461
135 5 1.89989 3.57931 6.66237
136 6 11.5071 4.88775 7.36137
137 5 10.8489 5.32888 8.12587
138 5 11.2658 5.41218 6.44052
139 5 11.1897 3.84551 7.19851
140 6 5.33641 5.82483 8.62664
141 6 6.50032 4.91044 8.33671
142 5 7.16982 4.78804 9.15205
143 5 7.10949 5.31788 7.54625
144 5 6.14078 3.9608 8.06248
145 6 4.37322 5.6379 7.43794
146 5 3.90782 4.63225 7.47596
147 5 4.85458 5.69505 6.45811
148 5 3.58543 6.37421 7.4486
149 6 5.97416 7.21816 8.80158
150 5 5.6589 7.83905 9.64544
151 5 5.67282 7.82318 7.98269
152 5 7.06439 7.19713 8.91733
153 6 9.16773 12.0756 4.61015
154 6 7.68192 11.5449 4.55233
155 5 7.36751 10.6556 5.09227
156 5 7.48187 11.3085 3.50959
157 5 6.92115 12.2566 4.86102
158 6 9.13097 0.944414 4.21916
159 5 9.46698 1.69558 4.9418
160 5 8.15814 1.25084 3.91685
161 5 9.832 0.981503 3.48275
162 6 9.99611 11.1059 3.79219
163 5 10.0093 10.0944 4.23358
164 5 11.0633 11.382 3.7529
165 5 9.52077 11.0726 2.8114
166 6 10.7064 0.209022 0.900515
167 6 11.4187 1.09537 1.71422
168 5 11.2326 2.13922 1.58087
169 5 12.3285 0.938987 1.35647
170 5 11.6219 0.646713 2.67852
171 6 11.5941 11.3377 1.24886
172 5 -0.0287919 11.4206 1.92356
173 5 12.0841 10.9212 0.353047
174 5 11.1486 10.4706 1.72307
175 6 10.7622 0.591898 9.6889
176 5 11.0168 1.64849 9.51855
177 5 9.93393 0.341538 9.01707
178 5 11.667 0.0903614 9.34557
179 7 9.7502 6.9243 4.31972
180 6 11.1408 7.51702 4.31238
181 5 11.3908 8.14197 5.18554
182 5 11.8609 6.70013 4.23683
183 5 11.2746 8.17729 3.43495
184 6 9.00906 6.83341 3.07399
185 5 8.09134 7.40603 3.17343
186 5 9.53052 7.22647 2.23916
187 5 8.77559 5.79178 2.93053
188 8 9.97855 4.17073 4.64089
189 9 10.0309 2.00331 7.37065
190 9 9.32958 3.76592 8.55556
191 9 10.1632 3.15025 0.0959179
192 8 6.7383 6.82567 1.33117
193 8 5.37002 7.92494 3.5279
194 9 8.08428 3.021 5.19461
195 9 1.24703 8.34842 3.22829
196 9 8.69187 4.27141 6.71845
197 8 7.12203 9.54153 1.8544
198 9 8.24583 9.01434 4.3678
199 9 5.26158 9.94874 5.01501
200 9 9.54412 9.19261 1.96395
201 8 8.13425 4.52956 1.0315
202 9 8.11571 2.34009 9.56044
203 9 8.92346 5.889 8.92642
204 9 4.6923 8.84734 1.00118
