ITEM: TIMESTEP
0
ITEM: NUMBER OF ATOMS
204
ITEM: BOX BOUNDS xy xz yz pp pp pp
-2.3315529464624804e-01 1.5287254738131001e+01 0.0000000000000000e+00
0.0000000000000000e+00 1.1008976884488501e+01 -2.3315529464624804e-01
0.0000000000000000e+00 1.0525332598938300e+01 0.0000000000000000e+00
ITEM: ATOMS id type x y z
1 1 2.60434 9.11775 8.61664
2 1 6.57255 3.50506 3.25171
3 2 0.622195 4.33002 3.72683
4 2 4.06745 8.18057 8.72099
5 2 5.03105 2.60409 3.39285
6 2 1.10332 10.0541 8.82859
7 2 6.25579 4.69309 4.59541
8 2 2.25101 7.9075 9.89708
9 2 14.7925 2.07548 4.70723
10 2 3.05583 10.2778 9.87611
11 3 3.31481 10.3499 7.23303
12 3 15.1949 2.32154 2.04717
13 3 1.8636 7.90245 7.30013
14 3 5.83107 4.7802 1.95634
15 4 3.29868 0.896867 5.32643
16 4 1.89502 1.69529 0.792235
17 5 2.74537 1.36788 4.52537
18 5 7.41718 10.0761 0.751165
19 4 4.69861 1.17 5.49457
20 4 1.32557 0.482698 0.411609
21 4 5.23954 0.694345 6.70783
22 4 0.0573366 0.150693 1.00308
23 5 14.3804 0.440109 6.79905
24 4 1.52222 6.96457 5.0863
25 4 5.55617 5.98282 10.3389
26 5 1.708 7.01156 4.02084
27 5 14.0654 6.43103 9.90068
28 4 2.17983 7.88439 5.9672
29 4 6.48541 5.2423 0.850546
30 5 2.91598 8.55861 5.57681
31 5 0.191423 5.08484 1.12858
32 4 2.59726 0.0561123 6.29114
33 4 1.19819 2.58351 1.63402
34 5 1.52577 10.9649 6.23383
35 5 6.05938 0.611215 2.12159
36 4 4.67458 10.5214 7.22724
37 4 14.5823 1.22447 1.53647
38 5 5.27059 9.95481 7.90058
39 5 13.6005 1.03682 1.8098
40 4 0.88648 7.04857 7.72812
41 4 4.49965 5.09818 2.10813
42 5 0.358793 7.2556 8.63916
43 5 3.95222 4.71197 2.95542
44 4 0.614837 5.8667 7.01634
45 4 3.83164 5.97706 1.22645
46 5 6.82353 7.56104 5.54532
47 5 2.80721 6.25778 1.43727
48 4 0.668621 5.96395 5.61784
49 4 4.46483 6.45719 0.0762062
50 4 5.57805 1.88522 4.38586
51 4 1.76741 10.6937 9.81617
52 4 -0.014233 4.95523 4.71405
53 4 3.49366 7.45305 9.68478
54 1 10.5061 8.86084 8.75242
55 1 14.4309 3.38742 3.50155
56 2 8.11644 4.41254 3.43167
57 2 11.9854 7.88935 8.89012
58 2 12.9323 2.42252 3.57308
59 2 9.0239 9.82055 8.88818
60 2 14.0034 4.47927 4.85796
61 2 10.069 7.59705 9.94611
62 2 6.90646 2.24203 4.50987
63 2 10.8331 9.99809 10.1463
64 3 11.3245 10.1135 7.50415
65 3 7.27712 2.31554 1.77126
66 3 9.77924 7.76478 7.26046
67 3 13.7208 4.68209 2.23611
68 4 11.2321 0.416709 5.47833
69 4 7.75038 0.0865406 0.863405
70 5 2.88635 1.95386 0.452039
71 4 12.669 0.740943 5.54539
72 4 8.96485 0.496244 0.24065
73 4 13.3432 0.196477 6.64366
74 4 9.22075 1.90324 0.233096
75 4 9.79552 6.05676 5.56796
76 4 13.7435 6.01957 0.197209
77 4 10.2687 6.55789 6.83391
78 4 14.4136 5.20813 1.17655
79 5 11.1787 6.16619 7.25788
80 5 7.54444 5.19381 0.835436
81 4 10.6079 10.8079 6.60244
82 4 6.94583 0.989416 1.64436
83 5 9.55459 10.9103 6.75438
84 5 1.6923 3.49654 1.91336
85 4 12.6901 10.31 7.54153
86 4 8.39838 2.76045 1.07111
87 5 13.2716 9.86385 8.33381
88 5 8.84392 3.67279 1.38837
89 4 8.57036 8.15639 6.69257
90 4 12.3998 5.00431 2.37718
91 5 8.19508 9.15173 6.84022
92 5 11.8473 4.60634 3.20916
93 4 7.79199 7.26071 5.88513
94 4 11.7089 5.75475 1.4069
95 4 8.36664 6.07759 5.40262
96 4 12.3616 6.3072 0.322788
97 4 13.4911 1.65884 4.52649
98 4 9.55513 10.4746 9.91074
99 4 7.56027 5.10613 4.43641
100 4 11.3584 7.15198 9.80779
101 6 5.85623 1.66228 7.71923
102 6 5.31939 1.41741 9.15974
103 5 4.21503 1.52681 9.17642
104 5 5.58043 0.411855 9.54247
105 5 5.7516 2.14877 9.8726
106 6 5.53617 3.11608 7.38123
107 5 4.51533 3.24789 6.983
108 5 5.57229 3.72807 8.29245
109 5 6.27322 3.50294 6.66177
110 6 7.36227 1.45428 7.72356
111 5 7.57738 0.428444 8.04929
112 5 7.7965 1.58839 6.71807
113 5 7.83945 2.18053 8.4053
114 6 15.0572 9.78098 1.639
115 6 13.6589 9.30011 1.19272
116 5 12.888 10.0635 1.31646
117 5 13.3438 8.41163 1.77225
118 5 13.6583 9.05449 0.113026
119 6 0.741608 8.68953 1.23606
120 5 0.515674 8.44006 0.186986
121 5 0.594891 7.7502 1.79902
122 5 1.78409 9.00837 1.41831
123 6 15.1068 9.91906 3.19055
124 5 14.1056 10.1399 3.6099
125 5 0.513794 10.7263 3.50892
126 5 0.182931 9.0029 3.68719
127 6 0.757469 4.50547 7.73078
128 6 1.46208 4.66931 9.09803
129 5 0.946321 5.38678 9.75264
130 5 1.51125 3.70467 9.63013
131 5 2.49941 5.021 8.94729
132 6 1.67415 3.54539 6.91825
133 5 2.50106 4.11061 6.43866
134 5 2.14424 2.76582 7.55514
135 5 1.13286 3.01197 6.12747
136 6 14.6362 3.90367 7.96227
137 5 13.8733 4.69802 8.10237
138 5 14.3159 3.27178 7.11164
139 5 14.6013 3.27438 8.87478
140 6 6.31252 6.42374 9.06758
141 6 7.5835 5.57897 8.88947
142 5 8.38346 5.94245 9.53535
143 5 7.99065 5.6041 7.87971
144 5 7.39985 4.51311 9.12143
145 6 5.47579 6.22735 7.74718
146 5 4.49399 5.7441 7.91979
147 5 5.98228 5.62103 6.98824
148 5 5.32044 7.15798 7.17376
149 6 6.71556 7.90827 9.28196
150 5 6.06871 8.44744 10.0021
151 5 6.69702 8.47076 8.34714
152 5 7.7164 8.01814 9.69701
153 6 10.3815 0.510223 4.21694
154 6 9.06388 10.6862 4.29986
155 5 9.28092 9.65608 4.6278
156 5 8.5622 10.6088 3.32146
157 5 8.31998 0.122112 4.98783
158 6 9.94732 1.96332 4.03769
159 5 10.7352 2.6808 3.83157
160 5 9.43375 2.31889 4.95154
161 5 9.23754 2.01823 3.22601
162 6 11.1256 10.8885 3.05438
163 5 11.2995 9.80694 3.23693
164 5 12.0926 0.314549 2.93492
165 5 10.5699 10.9984 2.11892
166 6 10.3084 2.50331 10.1535
167 6 10.1577 3.96114 9.7023
168 5 9.75735 4.61871 10.4788
169 5 9.53698 3.99525 8.79579
170 5 11.1348 4.3826 9.38868
171 6 11.603 2.42005 0.70221
172 5 11.2263 2.84508 1.64326
173 5 12.5465 2.92137 0.39577
174 5 11.8028 1.35386 0.861834
175 6 10.8717 1.82773 8.89941
176 5 11.6704 2.43097 8.42557
177 5 10.0674 1.67884 8.16492
178 5 11.4372 0.934005 9.14107
179 7 10.5909 6.57416 4.4178
180 6 11.9544 7.15123 4.67401
181 5 11.8624 8.07867 5.27797
182 5 12.5798 6.41498 5.20309
183 5 12.4469 7.43363 3.72935
184 6 9.87178 7.08365 3.21908
185 5 9.07776 7.77876 3.51946
186 5 10.5471 7.65596 2.55854
187 5 9.45723 6.22396 2.67486
188 8 11.6266 3.7112 6.22515
189 9 0.493512 1.40252 8.23682
190 9 8.7954 3.67378 6.6734
191 9 13.4638 6.96717 7.2251
192 8 6.77745 7.76503 2.44216
193 8 4.56973 6.97223 4.40525
194 9 8.63524 7.05237 0.926087
195 9 14.515 6.98231 3.29277
196 9 13.725 1.1822 9.37017
197 8 5.97475 9.75875 4.39885
198 9 14.2254 8.17688 5.35237
199 9 -0.0399835 9.41096 6.74438
200 9 3.63903 0.675751 2.49567
201 8 4.45214 9.33349 1.68596
202 9 3.96332 3.6529 10.1813
203 9 9.29401 9.10493 1.58297
204 9 2.65067 9.71603 3.61916
