Created on Tue Aug 25 11:51:15 2020 

         180 atoms
         200 bonds
         388 angles
         448 dihedrals
         168 impropers

           6 atom types
          10 bond types
          20 angle types
           5 dihedral types
           1 improper types
           0.000000  12.505600 xlo xhi
           0.000000  12.523400 ylo yhi
           0.000000  10.274279 zlo zhi
           0.000000  -0.227594   0.000000 xy xz yz

Masses

    1    58.693400000 # Ni4+2
    2    15.999400000 # O_R
    3    14.006700000 # N_R
    4    12.010700000 # C_R
    5     1.007940000 # H_
    6    12.010700000 # C_3

Bond Coeffs

    1      321.720028        1.793457  # Ni4+2 O_R
    2      328.673665        1.841585  # Ni4+2 N_R
    3      646.680887        1.311940  # O_R C_R
    4      663.718927        1.345073  # N_R C_R
    5      462.655054        1.379256  # C_R C_R
    6      357.440381        1.081418  # C_R H_
    7      391.669513        1.458000  # C_R C_R
    8      369.943935        1.486000  # C_R C_3
    9      349.795899        1.514000  # C_3 C_3
   10      331.069389        1.109401  # C_3 H_

Angle Coeffs

    1              cosine/periodic      322.980216               1               4 # O_R Ni4+2 O_R
    2              cosine/periodic      343.030950               1               4 # O_R Ni4+2 N_R
    3              cosine/periodic      364.965660               1               4 # N_R Ni4+2 N_R
    4              cosine/periodic      238.346347              -1               3 # C_R O_R Ni4+2
    5              cosine/periodic      177.809033              -1               3 # Ni4+2 N_R C_R
    6              cosine/periodic      240.001032              -1               3 # C_R N_R C_R
    7              cosine/periodic      114.578032              -1               3 # C_R C_R H_
    8              cosine/periodic      222.595017              -1               3 # C_R C_R C_R
    9              cosine/periodic      204.366560              -1               3 # C_R C_R C_R
   10              cosine/periodic      307.398705              -1               3 # N_R C_R C_R
   11              cosine/periodic      159.573934              -1               3 # N_R C_R H_
   12              cosine/periodic      273.097456              -1               3 # N_R C_R C_3
   13              cosine/periodic      198.274298              -1               3 # C_R C_R C_3
   14              cosine/periodic      263.511421              -1               3 # O_R C_R C_R
   15              cosine/periodic      374.272657              -1               3 # O_R C_R O_R
   16                      fourier      220.229931        0.343737        0.374972        0.281246 # C_R C_3 C_3
   17                      fourier      121.777217        0.343737        0.374972        0.281246 # C_R C_3 H_
   18                      fourier      117.318683        0.343737        0.374972        0.281246 # C_3 C_3 H_
   19                      fourier       75.498766        0.343737        0.374972        0.281246 # H_ C_3 H_
   20                      fourier      214.211821        0.343737        0.374972        0.281246 # C_3 C_3 C_3

Dihedral Coeffs

    1        2.245703              -1               2 # Ni4+2 O_R C_R C_R
    2        1.497136              -1               2 # Ni4+2 N_R C_R C_R
    3        0.555556              -1               2 # C_R C_R C_R O_R
    4        0.083333               1               3 # N_R C_R C_3 C_3
    5        0.066219               1               3 # C_R C_3 C_3 C_3

Improper Coeffs

    1        2.000000        1.000000       -1.000000        0.000000               0 # Ni4+2 N_R C_R C_R

Pair Coeffs

    1        0.015000        2.524807 # Ni4+2 Ni4+2
    2        0.060000        3.118146 # O_R O_R
    3        0.069000        3.260689 # N_R N_R
    4        0.105000        3.430851 # C_R C_R
    5        0.044000        2.571134 # H_ H_
    6        0.105000        3.430851 # C_3 C_3

Atoms

       1      444        1     0.00000    2.89857    9.41116    8.59265
       2      444        1     0.00000    6.17525    3.10579    3.48481
       3      444        2     0.00000    1.44827    4.35425    3.93374
       4      444        2     0.00000    4.44160    8.15245    9.05464
       5      444        2     0.00000    4.63665    1.84729    3.87523
       6      444        2     0.00000    1.36499   10.67435    9.00295
       7      444        2     0.00000    5.80609    4.46033    4.96242
       8      444        2     0.00000    2.54244    8.03270   10.06753
       9      444        2     0.00000    0.25117    1.69264    4.94273
      10      444        2     0.00000    3.23722   10.80466   10.06262
      11      444        3     0.00000    3.69677   10.66058    7.24160
      12      444        3     0.00000    0.71256    1.86420    2.11704
      13      444        3     0.00000    2.17217    8.14409    7.25198
      14      444        3     0.00000    5.44023    4.39481    2.13747
      15      444        4     0.00000    3.48546   12.14832    5.36301
      16      444        4     0.00000    0.47488    0.38955    0.22920
      17      444        5     0.00000    2.86453   12.51808    4.55267
      18      444        5     0.00000    5.86971    0.03371    9.69377
      19      444        4     0.00000    4.76073    0.14740    5.61481
      20      444        4     0.00000    1.74333   12.36991    0.47412
      21      444        4     0.00000    5.50345   12.15023    6.68209
      22      444        4     0.00000    2.49852    0.35508    1.54004
      23      444        5     0.00000    0.24768   12.50843    6.91993
      24      444        5     0.00000    3.49155   12.50668    1.77336
      25      444        4     0.00000    2.48363    6.63370    5.40822
      26      444        4     0.00000    5.72803    5.90364    0.28669
      27      444        5     0.00000    3.13294    6.27291    4.61605
      28      444        5     0.00000   -0.10828    6.26667    9.76620
      29      444        4     0.00000    2.92756    7.68099    6.23068
      30      444        4     0.00000    6.18830    4.86756    1.11596
      31      444        5     0.00000    3.89994    8.14655    6.08890
      32      444        5     0.00000    0.91589    4.41889    0.97634
      33      444        4     0.00000    2.98256   11.13588    6.19748
      34      444        4     0.00000   -0.01036    1.40553    1.07106
      35      444        5     0.00000    1.99392   10.70905    6.04703
      36      444        5     0.00000    5.26093    1.85011    0.92351
      37      444        4     0.00000    4.93641   11.13810    7.47507
      38      444        4     0.00000    1.94823    1.37190    2.34060
      39      444        5     0.00000    2.50886    1.79214    3.17267
      40      444        4     0.00000    0.94573    7.62654    7.47302
      41      444        4     0.00000    4.21083    4.90458    2.35686
      42      444        5     0.00000    3.63605    4.47744    3.17528
      43      444        4     0.00000    0.43859    6.57577    6.69176
      44      444        4     0.00000    3.68763    5.94500    1.56944
      45      444        5     0.00000    5.70774    6.17693    6.91975
      46      444        5     0.00000    2.69824    6.32683    1.80071
      47      444        4     0.00000    1.22745    6.06471    5.65205
      48      444        4     0.00000    4.46338    6.45777    0.52027
      49      444        4     0.00000    5.31260    1.24381    4.79419
      50      444        4     0.00000    2.05020   11.26755    9.92158
      51      444        4     0.00000    0.73548    4.94016    4.83586
      52      444        4     0.00000    3.73174    7.56629    9.95688
      53      444        1     0.00000    9.15137    9.41116    8.59265
      54      444        1     0.00000   12.42805    3.10579    3.48481
      55      444        2     0.00000    7.70109    4.35425    3.93374
      56      444        2     0.00000   10.69440    8.15245    9.05464
      57      444        2     0.00000   10.88945    1.84729    3.87523
      58      444        2     0.00000    7.61779   10.67435    9.00295
      59      444        2     0.00000   12.05889    4.46033    4.96242
      60      444        2     0.00000    8.79524    8.03270   10.06753
      61      444        2     0.00000    6.50397    1.69264    4.94273
      62      444        2     0.00000    9.49002   10.80466   10.06262
      63      444        3     0.00000    9.94957   10.66058    7.24160
      64      444        3     0.00000    6.96536    1.86420    2.11704
      65      444        3     0.00000    8.42499    8.14409    7.25198
      66      444        3     0.00000   11.69303    4.39481    2.13747
      67      444        4     0.00000    9.73826   12.14832    5.36301
      68      444        4     0.00000    6.72768    0.38955    0.22920
      69      444        5     0.00000    9.11733   12.51808    4.55267
      70      444        5     0.00000   12.12251    0.03371    9.69377
      71      444        4     0.00000   11.01353    0.14740    5.61481
      72      444        4     0.00000    7.99613   12.36991    0.47412
      73      444        4     0.00000   11.75625   12.15023    6.68209
      74      444        4     0.00000    8.75132    0.35508    1.54004
      75      444        5     0.00000    6.50047   12.50843    6.91993
      76      444        5     0.00000    9.74435   12.50668    1.77336
      77      444        4     0.00000    8.73644    6.63370    5.40822
      78      444        4     0.00000   11.98084    5.90364    0.28669
      79      444        5     0.00000    9.38574    6.27291    4.61605
      80      444        5     0.00000    6.14452    6.26667    9.76620
      81      444        4     0.00000    9.18036    7.68099    6.23068
      82      444        4     0.00000   12.44110    4.86756    1.11596
      83      444        4     0.00000    9.23536   11.13588    6.19748
      84      444        4     0.00000    6.24244    1.40553    1.07106
      85      444        5     0.00000    8.24672   10.70905    6.04703
      86      444        4     0.00000   11.18921   11.13810    7.47507
      87      444        4     0.00000    8.20102    1.37190    2.34060
      88      444        4     0.00000    7.19853    7.62654    7.47302
      89      444        4     0.00000   10.46363    4.90458    2.35686
      90      444        5     0.00000    6.61608    8.05184    8.28732
      91      444        4     0.00000    6.69139    6.57577    6.69176
      92      444        4     0.00000    9.94043    5.94500    1.56944
      93      444        5     0.00000   11.96054    6.17693    6.91975
      94      444        5     0.00000    8.95104    6.32683    1.80071
      95      444        4     0.00000    7.48025    6.06471    5.65205
      96      444        4     0.00000   10.71618    6.45777    0.52027
      97      444        4     0.00000   11.56540    1.24381    4.79419
      98      444        4     0.00000    8.30300   11.26755    9.92158
      99      444        4     0.00000    6.98827    4.94016    4.83586
     100      444        4     0.00000    9.98454    7.56629    9.95688
     101      444        6     0.00000    5.78083   10.55599    8.66279
     102      444        6     0.00000    5.10454    9.45113    9.49265
     103      444        5     0.00000    6.02502   11.38872    9.35772
     104      444        5     0.00000    6.71937   10.12930    8.24680
     105      444        6     0.00000    6.24746    8.96638    0.34005
     106      444        5     0.00000    4.86367    8.58416    8.83956
     107      444        5     0.00000    4.16975    9.84280    9.94975
     108      444        5     0.00000    6.95958    8.54915   10.19368
     109      444        5     0.00000    5.73496    8.17109    0.92135
     110      444        5     0.00000    6.49532    9.80407    1.02630
     111      444        6     0.00000   11.08070    2.01245    0.77888
     112      444        6     0.00000   10.61044    3.11974    1.73777
     113      444        5     0.00000   10.86454    2.44493   10.02904
     114      444        5     0.00000   10.33248    1.19171    0.82936
     115      444        6     0.00000    9.22396    3.62982    1.35250
     116      444        5     0.00000   10.56041    2.72285    2.77515
     117      444        5     0.00000   11.31960    3.97525    1.70124
     118      444        5     0.00000    8.48210    2.80408    1.39612
     119      444        5     0.00000    8.91046    4.42637    2.05980
     120      444        5     0.00000    9.23905    4.05279    0.32537
     121      444        6     0.00000    0.05520    8.20317    8.62684
     122      444        6     0.00000    0.67054    9.35241    9.44374
     123      444        5     0.00000   -0.17252    7.37821    9.33647
     124      444        5     0.00000   11.61616    8.58353    8.18078
     125      444        6     0.00000   12.44607    9.82779    0.25934
     126      444        5     0.00000    0.89270   10.21242    8.77502
     127      444        5     0.00000    1.60918    9.00784    9.92995
     128      444        5     0.00000   11.27313   10.19856   10.08312
     129      444        5     0.00000    0.40941   10.65565    0.83187
     130      444        5     0.00000   12.21506    8.99754    0.96036
     131      444        6     0.00000    7.60300    4.25425    0.84011
     132      444        6     0.00000    8.04468    3.12384    1.78554
     133      444        5     0.00000    8.35686    5.06724    0.92214
     134      444        5     0.00000    7.38098    3.84258   10.08169
     135      444        6     0.00000    9.43435    2.60956    1.41771
     136      444        5     0.00000    7.32932    2.27543    1.71752
     137      444        5     0.00000    8.07712    3.49934    2.83154
     138      444        5     0.00000    9.43641    2.20747    0.38213
     139      444        5     0.00000    9.72694    1.79627    2.11484
     140      444        5     0.00000   10.18199    3.42778    1.49284
     141      444        6     0.00000   12.03363   10.55599    8.66279
     142      444        6     0.00000   11.35734    9.45113    9.49265
     143      444        5     0.00000   12.27782   11.38872    9.35772
     144      444        5     0.00000    0.46657   10.12930    8.24680
     145      444        6     0.00000   -0.00534    8.96638    0.34005
     146      444        5     0.00000   11.11647    8.58416    8.83956
     147      444        5     0.00000   10.42255    9.84280    9.94975
     148      444        5     0.00000    0.70678    8.54915   10.19368
     149      444        5     0.00000   11.98776    8.17109    0.92135
     150      444        5     0.00000    0.24252    9.80407    1.02630
     151      444        6     0.00000    9.06044    1.94024    3.52394
     152      444        6     0.00000    8.40268    3.05016    4.36187
     153      444        5     0.00000    9.29985    1.10257    4.21459
     154      444        5     0.00000   10.00094    2.35740    3.10273
     155      444        6     0.00000    9.33127    3.52084    5.47863
     156      444        5     0.00000    8.16728    3.92189    3.71313
     157      444        5     0.00000    7.46664    2.66782    4.82427
     158      444        5     0.00000   10.27280    3.92857    5.05272
     159      444        5     0.00000    8.83201    4.32012    6.06591
     160      444        5     0.00000    9.57423    2.67820    6.16056
     161      444        6     0.00000   10.58245    8.31882    5.94959
     162      444        6     0.00000   11.00544    9.46123    6.88913
     163      444        5     0.00000   11.35118    7.52006    6.03351
     164      444        5     0.00000   10.57836    8.72599    4.91510
     165      444        6     0.00000   -0.12087    9.99912    6.51605
     166      444        5     0.00000   10.27459   10.29616    6.81898
     167      444        5     0.00000   11.04691    9.09097    7.93668
     168      444        5     0.00000   12.37730   10.39663    5.47873
     169      444        5     0.00000    0.15831   10.82066    7.20899
     170      444        5     0.00000    0.64173    9.19499    6.59311
     171      444        6     0.00000    9.58155    4.32982    3.52019
     172      444        6     0.00000   10.21055    3.19334    4.34450
     173      444        5     0.00000    8.63867    3.93703    3.08126
     174      444        5     0.00000    9.34912    5.15880    4.22357
     175      444        6     0.00000    9.26158    2.71874    5.44231
     176      444        5     0.00000   11.14793    3.55061    4.82395
     177      444        5     0.00000   10.43793    2.32962    3.68233
     178      444        5     0.00000    9.02579    3.55290    6.13705
     179      444        5     0.00000    9.74030    1.90016    6.02005
     180      444        5     0.00000    8.31788    2.33554    4.99882

Bonds

       1        1        1        4
       2        1        1        6
       3        1        1        8
       4        1        1       10
       5        2        1       11
       6        2        1       13
       7        1        2        5
       8        1        2        7
       9        2        2       14
      10        1        2       55
      11        1        2       61
      12        2        2       64
      13        3        3       51
      14        1        3       54
      15        3        4       52
      16        3        5       49
      17        3        6       50
      18        3        7       99
      19        3        8       52
      20        1        9       54
      21        3        9       97
      22        3       10       50
      23        4       11       33
      24        4       11       37
      25        4       12       34
      26        4       12       38
      27        2       12       54
      28        4       13       29
      29        4       13       40
      30        4       14       30
      31        4       14       41
      32        6       15       17
      33        5       15       19
      34        5       15       33
      35        5       16       20
      36        5       16       34
      37        6       16       70
      38        6       18       68
      39        5       19       21
      40        7       19       49
      41        5       20       22
      42        7       20       50
      43        5       21       37
      44        6       21       75
      45        6       22       24
      46        5       22       38
      47        6       23       73
      48        6       25       27
      49        5       25       29
      50        5       25       47
      51        5       26       30
      52        5       26       48
      53        6       26       80
      54        6       28       78
      55        6       29       31
      56        8       30      131
      57        6       32       82
      58        6       33       35
      59        8       34      111
      60        6       36       84
      61        8       37      101
      62        6       38       39
      63        5       40       43
      64        8       40      121
      65        6       41       42
      66        5       41       44
      67        5       43       47
      68        6       43       93
      69        6       44       46
      70        5       44       48
      71        6       45       91
      72        7       47       51
      73        7       48       52
      74        3       49       61
      75        3       51       59
      76        1       53       56
      77        1       53       58
      78        1       53       60
      79        1       53       62
      80        2       53       63
      81        2       53       65
      82        1       54       57
      83        1       54       59
      84        2       54       66
      85        3       55       99
      86        3       56      100
      87        3       57       97
      88        3       58       98
      89        3       60      100
      90        3       62       98
      91        4       63       83
      92        4       63       86
      93        4       64       84
      94        4       64       87
      95        4       65       81
      96        4       65       88
      97        4       66       82
      98        4       66       89
      99        6       67       69
     100        5       67       71
     101        5       67       83
     102        5       68       72
     103        5       68       84
     104        5       71       73
     105        7       71       97
     106        5       72       74
     107        7       72       98
     108        5       73       86
     109        6       74       76
     110        5       74       87
     111        6       77       79
     112        5       77       81
     113        5       77       95
     114        5       78       82
     115        5       78       96
     116        8       81      161
     117        6       83       85
     118        8       86      141
     119        8       87      151
     120        6       88       90
     121        5       88       91
     122        5       89       92
     123        8       89      171
     124        5       91       95
     125        6       92       94
     126        5       92       96
     127        7       95       99
     128        7       96      100
     129        9      101      102
     130       10      101      103
     131       10      101      104
     132        9      102      105
     133       10      102      106
     134       10      102      107
     135       10      105      108
     136       10      105      109
     137       10      105      110
     138        9      111      112
     139       10      111      113
     140       10      111      114
     141        9      112      115
     142       10      112      116
     143       10      112      117
     144       10      115      118
     145       10      115      119
     146       10      115      120
     147        9      121      122
     148       10      121      123
     149       10      121      124
     150        9      122      125
     151       10      122      126
     152       10      122      127
     153       10      125      128
     154       10      125      129
     155       10      125      130
     156        9      131      132
     157       10      131      133
     158       10      131      134
     159        9      132      135
     160       10      132      136
     161       10      132      137
     162       10      135      138
     163       10      135      139
     164       10      135      140
     165        9      141      142
     166       10      141      143
     167       10      141      144
     168        9      142      145
     169       10      142      146
     170       10      142      147
     171       10      145      148
     172       10      145      149
     173       10      145      150
     174        9      151      152
     175       10      151      153
     176       10      151      154
     177        9      152      155
     178       10      152      156
     179       10      152      157
     180       10      155      158
     181       10      155      159
     182       10      155      160
     183        9      161      162
     184       10      161      163
     185       10      161      164
     186        9      162      165
     187       10      162      166
     188       10      162      167
     189       10      165      168
     190       10      165      169
     191       10      165      170
     192        9      171      172
     193       10      171      173
     194       10      171      174
     195        9      172      175
     196       10      172      176
     197       10      172      177
     198       10      175      178
     199       10      175      179
     200       10      175      180

Angles

       1        1        4        1        6
       2        1        4        1        8
       3        1        4        1       10
       4        2        4        1       11
       5        2        4        1       13
       6        1        6        1        8
       7        1        6        1       10
       8        2        6        1       11
       9        2        6        1       13
      10        1        8        1       10
      11        2        8        1       11
      12        2        8        1       13
      13        2       10        1       11
      14        2       10        1       13
      15        3       11        1       13
      16        2       14        2        5
      17        2       14        2        7
      18        2       14        2       55
      19        2       14        2       61
      20        3       14        2       64
      21        1        5        2        7
      22        1        5        2       55
      23        1        5        2       61
      24        2        5        2       64
      25        1        7        2       55
      26        1        7        2       61
      27        2        7        2       64
      28        1       55        2       61
      29        2       55        2       64
      30        2       61        2       64
      31        4       51        3       54
      32        4        1        4       52
      33        4        2        5       49
      34        4        1        6       50
      35        4        2        7       99
      36        4        1        8       52
      37        4       54        9       97
      38        4        1       10       50
      39        5        1       11       33
      40        5        1       11       37
      41        6       33       11       37
      42        6       34       12       38
      43        5       34       12       54
      44        5       38       12       54
      45        5        1       13       29
      46        5        1       13       40
      47        6       29       13       40
      48        5        2       14       30
      49        5        2       14       41
      50        6       30       14       41
      51        7       19       15       17
      52        8       19       15       33
      53        7       17       15       33
      54        8       20       16       34
      55        7       20       16       70
      56        7       34       16       70
      57        8       15       19       21
      58        9       15       19       49
      59        9       21       19       49
      60        8       16       20       22
      61        9       16       20       50
      62        9       22       20       50
      63        8       19       21       37
      64        7       19       21       75
      65        7       37       21       75
      66        8       20       22       38
      67        7       20       22       24
      68        7       38       22       24
      69        8       29       25       47
      70        7       29       25       27
      71        7       47       25       27
      72        8       30       26       48
      73        7       30       26       80
      74        7       48       26       80
      75       10       13       29       25
      76       11       13       29       31
      77        7       25       29       31
      78       10       14       30       26
      79       12       14       30      131
      80       13       26       30      131
      81       10       11       33       15
      82       11       11       33       35
      83        7       15       33       35
      84       10       12       34       16
      85       12       12       34      111
      86       13       16       34      111
      87       10       21       37       11
      88       13       21       37      101
      89       12       11       37      101
      90       10       12       38       22
      91       11       12       38       39
      92        7       22       38       39
      93       10       13       40       43
      94       12       13       40      121
      95       13       43       40      121
      96       10       14       41       44
      97       11       14       41       42
      98        7       44       41       42
      99        8       40       43       47
     100        7       40       43       93
     101        7       47       43       93
     102        8       41       44       48
     103        7       41       44       46
     104        7       48       44       46
     105        8       25       47       43
     106        9       25       47       51
     107        9       43       47       51
     108        8       26       48       44
     109        9       26       48       52
     110        9       44       48       52
     111       14        5       49       19
     112       15        5       49       61
     113       14       19       49       61
     114       14       10       50       20
     115       15       10       50        6
     116       14       20       50        6
     117       14        3       51       47
     118       15        3       51       59
     119       14       47       51       59
     120       14        8       52       48
     121       15        8       52        4
     122       14       48       52        4
     123        1       56       53       58
     124        1       56       53       60
     125        1       56       53       62
     126        2       56       53       63
     127        2       56       53       65
     128        1       58       53       60
     129        1       58       53       62