Created on Tue Aug 25 11:51:13 2020 

         180 atoms
         200 bonds
         388 angles
         448 dihedrals
         168 impropers

           6 atom types
          10 bond types
          19 angle types
           5 dihedral types
           1 improper types
           0.000000  12.505600 xlo xhi
           0.000000  12.523400 ylo yhi
           0.000000  10.274279 zlo zhi
           0.000000  -0.227594   0.000000 xy xz yz

Masses

    1    58.693400000 # Ni4+2
    2    15.999400000 # O_R
    3    14.006700000 # N_R
    4    12.010700000 # C_R
    5     1.007940000 # H_
    6    12.010700000 # C_3

Bond Coeffs

    1      321.720028        1.793457  # Ni4+2 O_R
    2      328.673665        1.841585  # Ni4+2 N_R
    3      646.680887        1.311940  # O_R C_R
    4      663.718927        1.345073  # N_R C_R
    5      462.655054        1.379256  # C_R C_R
    6      369.943935        1.486000  # C_R C_3
    7      357.440381        1.081418  # C_R H_
    8      391.669513        1.458000  # C_R C_R
    9      349.795899        1.514000  # C_3 C_3
   10      331.069389        1.109401  # C_3 H_

Angle Coeffs

    1              cosine/periodic      322.980216               1               4 # O_R Ni4+2 O_R
    2              cosine/periodic      343.030950               1               4 # O_R Ni4+2 N_R
    3              cosine/periodic      364.965660               1               4 # N_R Ni4+2 N_R
    4              cosine/periodic      238.346347              -1               3 # C_R O_R Ni4+2
    5              cosine/periodic      177.809033              -1               3 # Ni4+2 N_R C_R
    6              cosine/periodic      240.001032              -1               3 # C_R N_R C_R
    7              cosine/periodic      222.595017              -1               3 # C_R C_R C_R
    8              cosine/periodic      198.274298              -1               3 # C_R C_R C_3
    9              cosine/periodic      114.578032              -1               3 # C_R C_R H_
   10              cosine/periodic      204.366560              -1               3 # C_R C_R C_R
   11              cosine/periodic      307.398705              -1               3 # N_R C_R C_R
   12              cosine/periodic      159.573934              -1               3 # N_R C_R H_
   13              cosine/periodic      263.511421              -1               3 # O_R C_R C_R
   14              cosine/periodic      374.272657              -1               3 # O_R C_R O_R
   15                      fourier      220.229931        0.343737        0.374972        0.281246 # C_R C_3 C_3
   16                      fourier      121.777217        0.343737        0.374972        0.281246 # C_R C_3 H_
   17                      fourier      117.318683        0.343737        0.374972        0.281246 # C_3 C_3 H_
   18                      fourier       75.498766        0.343737        0.374972        0.281246 # H_ C_3 H_
   19                      fourier      214.211821        0.343737        0.374972        0.281246 # C_3 C_3 C_3

Dihedral Coeffs

    1        2.245703              -1               2 # Ni4+2 O_R C_R C_R
    2        1.497136              -1               2 # Ni4+2 N_R C_R C_R
    3        0.083333               1               3 # C_R C_R C_3 C_3
    4        0.555556              -1               2 # C_R C_R C_R O_R
    5        0.066219               1               3 # C_R C_3 C_3 C_3

Improper Coeffs

    1        2.000000        1.000000       -1.000000        0.000000               0 # Ni4+2 N_R C_R C_R

Pair Coeffs

    1        0.015000        2.524807 # Ni4+2 Ni4+2
    2        0.060000        3.118146 # O_R O_R
    3        0.069000        3.260689 # N_R N_R
    4        0.105000        3.430851 # C_R C_R
    5        0.044000        2.571134 # H_ H_
    6        0.105000        3.430851 # C_3 C_3

Atoms

       1      444        1     0.00000    2.89857    9.41116    8.59265
       2      444        1     0.00000    6.17525    3.10579    3.48481
       3      444        2     0.00000    1.44827    4.35425    3.93374
       4      444        2     0.00000    4.44160    8.15245    9.05464
       5      444        2     0.00000    4.63665    1.84729    3.87523
       6      444        2     0.00000    1.36499   10.67435    9.00295
       7      444        2     0.00000    5.80609    4.46033    4.96242
       8      444        2     0.00000    2.54244    8.03270   10.06753
       9      444        2     0.00000    0.25117    1.69264    4.94273
      10      444        2     0.00000    3.23722   10.80466   10.06262
      11      444        3     0.00000    3.69677   10.66058    7.24160
      12      444        3     0.00000    0.71256    1.86420    2.11704
      13      444        3     0.00000    2.17217    8.14409    7.25198
      14      444        3     0.00000    5.44023    4.39481    2.13747
      15      444        4     0.00000    3.48546   12.14832    5.36301
      16      444        4     0.00000    0.47488    0.38955    0.22920
      17      444        4     0.00000    4.76073    0.14740    5.61481
      18      444        4     0.00000    1.74333   12.36991    0.47412
      19      444        4     0.00000    5.50345   12.15023    6.68209
      20      444        4     0.00000    2.49852    0.35508    1.54004
      21      444        4     0.00000    2.48363    6.63370    5.40822
      22      444        4     0.00000    5.72803    5.90364    0.28669
      23      444        5     0.00000    3.13294    6.27291    4.61605
      24      444        4     0.00000    2.92756    7.68099    6.23068
      25      444        4     0.00000    6.18830    4.86756    1.11596
      26      444        5     0.00000    3.89994    8.14655    6.08890
      27      444        5     0.00000    0.91589    4.41889    0.97634
      28      444        4     0.00000    2.98256   11.13588    6.19748
      29      444        4     0.00000   -0.01036    1.40553    1.07106
      30      444        5     0.00000    1.99392   10.70905    6.04703
      31      444        5     0.00000    5.26093    1.85011    0.92351
      32      444        4     0.00000    4.93641   11.13810    7.47507
      33      444        4     0.00000    1.94823    1.37190    2.34060
      34      444        5     0.00000    5.48559   10.70967    8.30944
      35      444        5     0.00000    2.50886    1.79214    3.17267
      36      444        4     0.00000    0.94573    7.62654    7.47302
      37      444        4     0.00000    4.21083    4.90458    2.35686
      38      444        5     0.00000    0.36328    8.05184    8.28732
      39      444        5     0.00000    3.63605    4.47744    3.17528
      40      444        4     0.00000    0.43859    6.57577    6.69176
      41      444        4     0.00000    3.68763    5.94500    1.56944
      42      444        5     0.00000    2.69824    6.32683    1.80071
      43      444        4     0.00000    1.22745    6.06471    5.65205
      44      444        4     0.00000    4.46338    6.45777    0.52027
      45      444        4     0.00000    5.31260    1.24381    4.79419
      46      444        4     0.00000    2.05020   11.26755    9.92158
      47      444        4     0.00000    0.73548    4.94016    4.83586
      48      444        4     0.00000    3.73174    7.56629    9.95688
      49      444        1     0.00000    9.15137    9.41116    8.59265
      50      444        1     0.00000   12.42805    3.10579    3.48481
      51      444        2     0.00000    7.70109    4.35425    3.93374
      52      444        2     0.00000   10.69440    8.15245    9.05464
      53      444        2     0.00000   10.88945    1.84729    3.87523
      54      444        2     0.00000    7.61779   10.67435    9.00295
      55      444        2     0.00000   12.05889    4.46033    4.96242
      56      444        2     0.00000    8.79524    8.03270   10.06753
      57      444        2     0.00000    6.50397    1.69264    4.94273
      58      444        2     0.00000    9.49002   10.80466   10.06262
      59      444        3     0.00000    9.94957   10.66058    7.24160
      60      444        3     0.00000    6.96536    1.86420    2.11704
      61      444        3     0.00000    8.42499    8.14409    7.25198
      62      444        3     0.00000   11.69303    4.39481    2.13747
      63      444        4     0.00000    9.73826   12.14832    5.36301
      64      444        4     0.00000    6.72768    0.38955    0.22920
      65      444        5     0.00000    9.11733   12.51808    4.55267
      66      444        5     0.00000   12.12251    0.03371    9.69377
      67      444        4     0.00000   11.01353    0.14740    5.61481
      68      444        4     0.00000    7.99613   12.36991    0.47412
      69      444        4     0.00000   11.75625   12.15023    6.68209
      70      444        4     0.00000    8.75132    0.35508    1.54004
      71      444        5     0.00000    6.50047   12.50843    6.91993
      72      444        5     0.00000    9.74435   12.50668    1.77336
      73      444        4     0.00000    8.73644    6.63370    5.40822
      74      444        4     0.00000   11.98084    5.90364    0.28669
      75      444        5     0.00000    9.38574    6.27291    4.61605
      76      444        4     0.00000    9.18036    7.68099    6.23068
      77      444        4     0.00000   12.44110    4.86756    1.11596
      78      444        5     0.00000   10.15274    8.14655    6.08890
      79      444        5     0.00000    7.16869    4.41889    0.97634
      80      444        4     0.00000    9.23536   11.13588    6.19748
      81      444        4     0.00000    6.24244    1.40553    1.07106
      82      444        5     0.00000    8.24672   10.70905    6.04703
      83      444        5     0.00000   11.51373    1.85011    0.92351
      84      444        4     0.00000   11.18921   11.13810    7.47507
      85      444        4     0.00000    8.20102    1.37190    2.34060
      86      444        5     0.00000   11.73839   10.70967    8.30944
      87      444        5     0.00000    8.76167    1.79214    3.17267
      88      444        4     0.00000    7.19853    7.62654    7.47302
      89      444        4     0.00000   10.46363    4.90458    2.35686
      90      444        5     0.00000    6.61608    8.05184    8.28732
      91      444        5     0.00000    9.88885    4.47744    3.17528
      92      444        4     0.00000    6.69139    6.57577    6.69176
      93      444        4     0.00000    9.94043    5.94500    1.56944
      94      444        5     0.00000    8.95104    6.32683    1.80071
      95      444        4     0.00000    7.48025    6.06471    5.65205
      96      444        4     0.00000   10.71618    6.45777    0.52027
      97      444        4     0.00000   11.56540    1.24381    4.79419
      98      444        4     0.00000    8.30300   11.26755    9.92158
      99      444        4     0.00000    6.98827    4.94016    4.83586
     100      444        4     0.00000    9.98454    7.56629    9.95688
     101      444        6     0.00000    2.63205    0.14397    4.18859
     102      444        6     0.00000    1.24681   12.02469    4.00204
     103      444        5     0.00000    3.20394   12.49828    3.25033
     104      444        5     0.00000    2.47326    1.23416    4.33785
     105      444        6     0.00000    0.51452    0.10790    2.80758
     106      444        5     0.00000    0.62918   12.19139    4.91138
     107      444        5     0.00000    1.35943   10.93292    3.82457
     108      444        5     0.00000    0.36626    1.19855    2.95793
     109      444        5     0.00000   12.02563   12.14985    2.69686
     110      444        5     0.00000    1.09435   12.46721    1.87434
     111      444        6     0.00000    3.91006   12.34269    1.84260
     112      444        6     0.00000    4.64897    0.44919    3.03591
     113      444        5     0.00000    4.53830   12.50775    0.94033
     114      444        5     0.00000    3.82526   11.25269    2.04434
     115      444        6     0.00000    6.03053   12.34927    3.21957
     116      444        5     0.00000    4.06572    0.28591    3.96828
     117      444        5     0.00000    4.77828    1.54017    2.86496
     118      444        5     0.00000    5.94045   11.25890    3.41211
     119      444        5     0.00000    6.54000    0.29836    4.08573
     120      444        5     0.00000    6.65090   12.50944    2.31205
     121      444        6     0.00000   11.54467    6.00542    6.98398
     122      444        6     0.00000   10.76716    6.64229    8.14873
     123      444        5     0.00000   11.65811    4.92378    7.21456
     124      444        5     0.00000   10.92741    6.12920    6.06766
     125      444        6     0.00000    9.40166    5.98263    8.32541
     126      444        5     0.00000   10.60865    7.72433    7.94819
     127      444        5     0.00000   11.33892    6.51967    9.09435
     128      444        5     0.00000    8.79246    6.10165    7.40411
     129      444        5     0.00000    8.86371    6.46095    9.17091
     130      444        5     0.00000    9.52057    4.90054    8.54688
     131      444        6     0.00000    6.39051    6.41467    9.40929
     132      444        6     0.00000    7.76131    5.73708    9.24038
     133      444        5     0.00000    5.83246    6.27323    8.45821
     134      444        5     0.00000    6.57565    7.49812    9.57610
     135      444        6     0.00000    8.53253    6.33891    8.06821
     136      444        5     0.00000    8.36557    5.87524   10.16339
     137      444        5     0.00000    7.62281    4.65113    9.04622
     138      444        5     0.00000    8.70713    7.42312    8.23591
     139      444        5     0.00000    9.51564    5.83211    7.96988
     140      444        5     0.00000    7.96656    6.20263    7.12205
     141      444        6     0.00000    0.66689    0.14446    6.99457
     142      444        6     0.00000    1.39135   12.02496    8.18980
     143      444        5     0.00000    0.59410    1.23469    7.19968
     144      444        5     0.00000    1.29819   12.49835    6.09529
     145      444        6     0.00000    2.77924    0.10751    8.38347
     146      444        5     0.00000    1.50847   10.93309    8.01576
     147      444        5     0.00000    0.80479   12.19204    9.11943
     148      444        5     0.00000    3.40281   12.46639    7.47893
     149      444        5     0.00000    3.27804   12.14933    9.25084
     150      444        5     0.00000    2.70121    1.19821    8.57933
     151      444        6     0.00000    5.63518   12.41317    9.32934
     152      444        6     0.00000    4.25917    0.55417    9.15078
     153      444        5     0.00000    6.20651    0.05525    8.39010
     154      444        5     0.00000    5.46050   11.32472    9.47339
     155      444        6     0.00000    3.51396   12.48838    7.95558
     156      444        5     0.00000    3.64204    0.39193   10.06128
     157      444        5     0.00000    4.38761    1.64507    8.97869
     158      444        5     0.00000    3.34981   11.39930    8.10068
     159      444        5     0.00000    2.52648    0.46190    7.85071
     160      444        5     0.00000    4.09318    0.12532    7.02130
     161      444        6     0.00000    5.29187    6.00542    6.98398
     162      444        6     0.00000    4.51436    6.64229    8.14873
     163      444        5     0.00000    5.40531    4.92378    7.21456
     164      444        5     0.00000    4.67461    6.12920    6.06766
     165      444        6     0.00000    3.14886    5.98263    8.32541
     166      444        5     0.00000    4.35585    7.72433    7.94819
     167      444        5     0.00000    5.08612    6.51967    9.09435
     168      444        5     0.00000    2.53966    6.10165    7.40411
     169      444        5     0.00000    2.61091    6.46095    9.17091
     170      444        5     0.00000    3.26777    4.90054    8.54688
     171      444        6     0.00000    0.13773    6.41470    9.40932
     172      444        6     0.00000    1.50856    5.73716    9.24045
     173      444        5     0.00000    0.32285    7.49816    9.57614
     174      444        5     0.00000   12.08531    6.27326    8.45822
     175      444        6     0.00000    2.27980    6.33902    8.06831
     176      444        5     0.00000    1.37012    4.65120    9.04628
     177      444        5     0.00000    2.11277    5.87533   10.16349
     178      444        5     0.00000    1.71389    6.20271    7.12212
     179      444        5     0.00000    3.26295    5.83227    7.97004
     180      444        5     0.00000    2.45434    7.42323    8.23604

Bonds

       1        1        1        4
       2        1        1        6
       3        1        1        8
       4        1        1       10
       5        2        1       11
       6        2        1       13
       7        1        2        5
       8        1        2        7
       9        2        2       14
      10        1        2       51
      11        1        2       57
      12        2        2       60
      13        3        3       47
      14        1        3       50
      15        3        4       48
      16        3        5       45
      17        3        6       46
      18        3        7       99
      19        3        8       48
      20        1        9       50
      21        3        9       97
      22        3       10       46
      23        4       11       28
      24        4       11       32
      25        4       12       29
      26        4       12       33
      27        2       12       50
      28        4       13       24
      29        4       13       36
      30        4       14       25
      31        4       14       37
      32        5       15       17
      33        5       15       28
      34        6       15      101
      35        5       16       18
      36        5       16       29
      37        7       16       66
      38        5       17       19
      39        8       17       45
      40        5       18       20
      41        8       18       46
      42        5       19       32
      43        7       19       71
      44        5       20       33
      45        6       20      111
      46        7       21       23
      47        5       21       24
      48        5       21       43
      49        5       22       25
      50        5       22       44
      51        6       22      131
      52        7       24       26
      53        7       25       79
      54        7       27       77
      55        7       28       30
      56        7       29       83
      57        7       31       81
      58        7       32       34
      59        7       33       35
      60        7       36       38
      61        5       36       40
      62        7       37       39
      63        5       37       41
      64        5       40       43
      65        6       40      121
      66        7       41       42
      67        5       41       44
      68        8       43       47
      69        8       44       48
      70        3       45       57
      71        3       47       55
      72        1       49       52
      73        1       49       54
      74        1       49       56
      75        1       49       58
      76        2       49       59
      77        2       49       61
      78        1       50       53
      79        1       50       55
      80        2       50       62
      81        3       51       99
      82        3       52      100
      83        3       53       97
      84        3       54       98
      85        3       56      100
      86        3       58       98
      87        4       59       80
      88        4       59       84
      89        4       60       81
      90        4       60       85
      91        4       61       76
      92        4       61       88
      93        4       62       77
      94        4       62       89
      95        7       63       65
      96        5       63       67
      97        5       63       80
      98        5       64       68
      99        5       64       81
     100        6       64      151
     101        5       67       69
     102        8       67       97
     103        5       68       70
     104        8       68       98
     105        5       69       84
     106        6       69      141
     107        7       70       72
     108        5       70       85
     109        7       73       75
     110        5       73       76
     111        5       73       95
     112        5       74       77
     113        5       74       96
     114        6       74      171
     115        7       76       78
     116        7       80       82
     117        7       84       86
     118        7       85       87
     119        7       88       90
     120        5       88       92
     121        7       89       91
     122        5       89       93
     123        5       92       95
     124        6       92      161
     125        7       93       94
     126        5       93       96
     127        8       95       99
     128        8       96      100
     129        9      101      102
     130       10      101      103
     131       10      101      104
     132        9      102      105
     133       10      102      106
     134       10      102      107
     135       10      105      108
     136       10      105      109
     137       10      105      110
     138        9      111      112
     139       10      111      113
     140       10      111      114
     141        9      112      115
     142       10      112      116
     143       10      112      117
     144       10      115      118
     145       10      115      119
     146       10      115      120
     147        9      121      122
     148       10      121      123
     149       10      121      124
     150        9      122      125
     151       10      122      126
     152       10      122      127
     153       10      125      128
     154       10      125      129
     155       10      125      130
     156        9      131      132
     157       10      131      133
     158       10      131      134
     159        9      132      135
     160       10      132      136
     161       10      132      137
     162       10      135      138
     163       10      135      139
     164       10      135      140
     165        9      141      142
     166       10      141      143
     167       10      141      144
     168        9      142      145
     169       10      142      146
     170       10      142      147
     171       10      145      148
     172       10      145      149
     173       10      145      150
     174        9      151      152
     175       10      151      153
     176       10      151      154
     177        9      152      155
     178       10      152      156
     179       10      152      157
     180       10      155      158
     181       10      155      159
     182       10      155      160
     183        9      161      162
     184       10      161      163
     185       10      161      164
     186        9      162      165
     187       10      162      166
     188       10      162      167
     189       10      165      168
     190       10      165      169
     191       10      165      170
     192        9      171      172
     193       10      171      173
     194       10      171      174
     195        9      172      175
     196       10      172      176
     197       10      172      177
     198       10      175      178
     199       10      175      179
     200       10      175      180

Angles

       1        1        4        1        6
       2        1        4        1        8
       3        1        4        1       10
       4        2        4        1       11
       5        2        4        1       13
       6        1        6        1        8
       7        1        6        1       10
       8        2        6        1       11
       9        2        6        1       13
      10        1        8        1       10
      11        2        8        1       11
      12        2        8        1       13
      13        2       10        1       11
      14        2       10        1       13
      15        3       11        1       13
      16        2       14        2        5
      17        2       14        2        7
      18        2       14        2       51
      19        2       14        2       57
      20        3       14        2       60
      21        1        5        2        7
      22        1        5        2       51
      23        1        5        2       57
      24        2        5        2       60
      25        1        7        2       51
      26        1        7        2       57
      27        2        7        2       60
      28        1       51        2       57
      29        2       51        2       60
      30        2       57        2       60
      31        4       47        3       50
      32        4        1        4       48
      33        4        2        5       45
      34        4        1        6       46
      35        4        2        7       99
      36        4        1        8       48
      37        4       50        9       97
      38        4        1       10       46
      39        5        1       11       28
      40        5        1       11       32
      41        6       28       11       32
      42        6       29       12       33
      43        5       29       12       50
      44        5       33       12       50
      45        5        1       13       24
      46        5        1       13       36
      47        6       24       13       36
      48        5        2       14       25
      49        5        2       14       37
      50        6       25       14       37
      51        7       17       15       28
      52        8       17       15      101
      53        8       28       15      101
      54        7       18       16       29
      55        9       18       16       66
      56        9       29       16       66
      57        7       15       17       19
      58       10       15       17       45
      59       10       19       17       45
      60        7       16       18       20
      61       10       16       18       46
      62       10       20       18       46
      63        7       17       19       32
      64        9       17       19       71
      65        9       32       19       71
      66        7       18       20       33
      67        8       18       20      111
      68        8       33       20      111
      69        7       24       21       43
      70        9       24       21       23
      71        9       43       21       23
      72        7       25       22       44
      73        8       25       22      131
      74        8       44       22      131
      75       11       13       24       21
      76       12       13       24       26
      77        9       21       24       26
      78       11       14       25       22
      79       12       14       25       79
      80        9       22       25       79
      81       11       11       28       15
      82       12       11       28       30
      83        9       15       28       30
      84       11       12       29       16
      85       12       12       29       83
      86        9       16       29       83
      87       11       19       32       11
      88        9       19       32       34
      89       12       11       32       34
      90       11       12       33       20
      91       12       12       33       35
      92        9       20       33       35
      93       11       13       36       40
      94       12       13       36       38
      95        9       40       36       38
      96       11       14       37       41
      97       12       14       37       39
      98        9       41       37       39
      99        7       36       40       43
     100        8       36       40      121
     101        8       43       40      121
     102        7       37       41       44
     103        9       37       41       42
     104        9       44       41       42
     105        7       21       43       40
     106       10       21       43       47
     107       10       40       43       47
     108        7       22       44       41
     109       10       22       44       48
     110       10       41       44       48
     111       13        5       45       17
     112       14        5       45       57
     113       13       17       45       57
     114       13       10       46       18
     115       14       10       46        6
     116       13       18       46        6
     117       13        3       47       43
     118       14        3       47       55
     119       13       43       47       55
     120       13        8       48       44
     121       14        8       48        4
     122       13       44       48        4
     123        1       52       49       54
     124        1       52       49       56
     125        1       52       49       58
     126        2       52       49       59
     127        2       52       49       61
     128        1       54       49       56
     129        1       54       49       58
     130        2       54       49       59
     131        2       54       49       61