units           real
atom_style      full
boundary        p p p

pair_style      lj/cut 5.000
bond_style      harmonic
angle_style     hybrid cosine/periodic fourier
dihedral_style  harmonic
improper_style  fourier

pair_modify     tail yes mix arithmetic
special_bonds   lj/coul 0.0 0.0 1.0
dielectric      1.0
box tilt        large
read_data       data.NiPyC2_relax_sc211_ortho_functionalized_CH2-CH2-CH3
  triclinic box = (0 0 0) to (12.5056 12.5234 10.2743) with tilt (0 -0.227594 0)
  1 by 1 by 1 MPI processor grid
  reading atoms ...
  180 atoms
  scanning bonds ...
  6 = max bonds/atom
  scanning angles ...
  15 = max angles/atom
  scanning dihedrals ...
  10 = max dihedrals/atom
  scanning impropers ...
  3 = max impropers/atom
  reading bonds ...
  200 bonds
  reading angles ...
  388 angles
  reading dihedrals ...
  448 dihedrals
  reading impropers ...
  168 impropers
  6 = max # of 1-2 neighbors
  9 = max # of 1-3 neighbors
  12 = max # of special neighbors
  special bonds CPU = 0.000109566 secs
  read_data CPU = 0.00776605 secs

#### Atom Groupings ####
group           fram     id   1:180
180 atoms in group fram
#### END Atom Groupings ####

dump            NiPyC2_relax_sc211_ortho_functionalized_CH2-CH2-CH3_xyzmov all xyz 20000 NiPyC2_relax_sc211_ortho_functionalized_CH2-CH2-CH3_mov.xyz
dump_modify     NiPyC2_relax_sc211_ortho_functionalized_CH2-CH2-CH3_xyzmov element Ni O N C H C
min_style       cg
print           "MinStep,CellMinStep,AtomMinStep,FinalStep,Energy,EDiff" file NiPyC2_relax_sc211_ortho_functionalized_CH2-CH2-CH3.min.csv screen no
variable        min_eval   equal 1.00e-06
variable        prev_E     equal 50000.00
variable        iter       loop 100000
label           loop_min
min_style       cg
fix             1 all box/relax aniso 0.0 vmax 0.01
minimize        1.0e-15 1.0e-15 10000 100000
WARNING: Using 'neigh_modify every 1 delay 0 check yes' setting during minimization (src/min.cpp:190)
Neighbor list info ...
  update every 1 steps, delay 0 steps, check yes
  max neighbors/atom: 2000, page size: 100000
  master list distance cutoff = 7
  ghost atom cutoff = 7
  binsize = 3.5, bins = 4 4 3
  1 neighbor lists, perpetual/occasional/extra = 1 0 0
  (1) pair lj/cut, perpetual
      attributes: half, newton on
      pair build: half/bin/newton/tri
      stencil: half/bin/3d/newton/tri
      bin: standard
WARNING: Inconsistent image flags (src/domain.cpp:785)
WARNING: Bond/angle/dihedral extent > half of periodic box length (src/domain.cpp:906)
Per MPI rank memory allocation (min/avg/max) = 17.56 | 17.56 | 17.56 Mbytes
Step Temp E_pair E_mol TotEng Press Volume 
       0            0 2.367986e+08    2234.6319 2.3680083e+08 4.0366012e+10    1609.0819 
     759            0    182.45732    1948.3644    2130.8217     593.6778    1739.1004 
WARNING: Bond/angle/dihedral extent > half of periodic box length (src/domain.cpp:906)
Loop time of 0.32433 on 1 procs for 759 steps with 180 atoms

99.8% CPU use with 1 MPI tasks x 1 OpenMP threads

Minimization stats:
  Stopping criterion = linesearch alpha is zero
  Energy initial, next-to-last, final = 
         236800831.639      2130.82173918      2130.82173918
  Force two-norm initial, final = 3.41353e+09 51.2161
  Force max component initial, final = 1.46647e+09 36.443
  Final line search alpha, max atom move = 2.72375e-12 9.92614e-11
  Iterations, force evaluations = 759 1255

MPI task timing breakdown:
Section |  min time  |  avg time  |  max time  |%varavg| %total
---------------------------------------------------------------
Pair    | 0.16683    | 0.16683    | 0.16683    |   0.0 | 51.44
Bond    | 0.095266   | 0.095266   | 0.095266   |   0.0 | 29.37
Neigh   | 0.024584   | 0.024584   | 0.024584   |   0.0 |  7.58
Comm    | 0.0087648  | 0.0087648  | 0.0087648  |   0.0 |  2.70
Output  | 0          | 0          | 0          |   0.0 |  0.00
Modify  | 0          | 0          | 0          |   0.0 |  0.00
Other   |            | 0.02888    |            |       |  8.90

Nlocal:    180 ave 180 max 180 min
Histogram: 1 0 0 0 0 0 0 0 0 0
Nghost:    1749 ave 1749 max 1749 min
Histogram: 1 0 0 0 0 0 0 0 0 0
Neighs:    13063 ave 13063 max 13063 min
Histogram: 1 0 0 0 0 0 0 0 0 0

Total # of neighbors = 13063
Ave neighs/atom = 72.5722
Ave special neighs/atom = 6.35556
Neighbor list builds = 36
Dangerous builds = 0
unfix           1
min_style       fire
variable        tempstp    equal $(step)
variable        tempstp    equal 759
variable        CellMinStep equal ${tempstp}
variable        CellMinStep equal 759
minimize        1.0e-15 1.0e-15 10000 100000
WARNING: Using 'neigh_modify every 1 delay 0 check yes' setting during minimization (src/min.cpp:190)
  Parameters for fire: 
    dmax delaystep dtgrow dtshrink alpha0 alphashrink tmax tmin    integrator halfstepback 
     0.1        20    1.1      0.5   0.25        0.99   10 0.02 eulerimplicit          yes 
WARNING: Inconsistent image flags (src/domain.cpp:785)
WARNING: Bond/angle/dihedral extent > half of periodic box length (src/domain.cpp:906)
Per MPI rank memory allocation (min/avg/max) = 16.44 | 16.44 | 16.44 Mbytes
Step Temp E_pair E_mol TotEng Press 
     759            0    182.45732    1948.3644    2130.8217     593.6778 
    4787 1.0558254e-10    166.88425    1895.0123    2061.8966    1118.6879 
WARNING: Bond/angle/dihedral extent > half of periodic box length (src/domain.cpp:906)
Loop time of 0.903319 on 1 procs for 4028 steps with 180 atoms

99.8% CPU use with 1 MPI tasks x 1 OpenMP threads

Minimization stats:
  Stopping criterion = energy tolerance
  Energy initial, next-to-last, final = 
         2130.82173918       2061.8965928       2061.8965928
  Force two-norm initial, final = 35.2566 7.47689e-05
  Force max component initial, final = 6.32615 2.19842e-05
  Final line search alpha, max atom move = 0 0
  Iterations, force evaluations = 4028 4028

MPI task timing breakdown:
Section |  min time  |  avg time  |  max time  |%varavg| %total
---------------------------------------------------------------
Pair    | 0.5708     | 0.5708     | 0.5708     |   0.0 | 63.19
Bond    | 0.28211    | 0.28211    | 0.28211    |   0.0 | 31.23
Neigh   | 0.0018621  | 0.0018621  | 0.0018621  |   0.0 |  0.21
Comm    | 0.02747    | 0.02747    | 0.02747    |   0.0 |  3.04
Output  | 0          | 0          | 0          |   0.0 |  0.00
Modify  | 0          | 0          | 0          |   0.0 |  0.00
Other   |            | 0.02108    |            |       |  2.33

Nlocal:    180 ave 180 max 180 min
Histogram: 1 0 0 0 0 0 0 0 0 0
Nghost:    1705 ave 1705 max 1705 min
Histogram: 1 0 0 0 0 0 0 0 0 0
Neighs:    12871 ave 12871 max 12871 min
Histogram: 1 0 0 0 0 0 0 0 0 0

Total # of neighbors = 12871
Ave neighs/atom = 71.5056
Ave special neighs/atom = 6.35556
Neighbor list builds = 2
Dangerous builds = 0
variable        AtomMinStep equal ${tempstp}
variable        AtomMinStep equal 759
variable        temppe     equal $(pe)
variable        temppe     equal 2061.8965928026741494
variable        min_E      equal abs(${prev_E}-${temppe})
variable        min_E      equal abs(50000-${temppe})
variable        min_E      equal abs(50000-2061.89659280267)
print           "${iter},${CellMinStep},${AtomMinStep},${AtomMinStep},$(pe),${min_E}" append NiPyC2_relax_sc211_ortho_functionalized_CH2-CH2-CH3.min.csv screen no
if              "${min_E} < ${min_eval}" then "jump SELF break_min"
variable        prev_E     equal ${temppe}
variable        prev_E     equal 2061.89659280267
next            iter
jump            SELF loop_min
min_style       cg
fix             1 all box/relax aniso 0.0 vmax 0.01
minimize        1.0e-15 1.0e-15 10000 100000
WARNING: Using 'neigh_modify every 1 delay 0 check yes' setting during minimization (src/min.cpp:190)
WARNING: Inconsistent image flags (src/domain.cpp:785)
WARNING: Bond/angle/dihedral extent > half of periodic box length (src/domain.cpp:906)
Per MPI rank memory allocation (min/avg/max) = 17.56 | 17.56 | 17.56 Mbytes
Step Temp E_pair E_mol TotEng Press Volume 
    4787 1.0558254e-10    166.88425    1895.0123    2061.8966    1118.6879    1739.1004 
    4789 1.0558254e-10    166.09409     1895.459    2061.5531     193.0106    1740.5516 
WARNING: Bond/angle/dihedral extent > half of periodic box length (src/domain.cpp:906)
Loop time of 0.0156114 on 1 procs for 2 steps with 180 atoms

99.9% CPU use with 1 MPI tasks x 1 OpenMP threads

Minimization stats:
  Stopping criterion = linesearch alpha is zero
  Energy initial, next-to-last, final = 
          2061.8965928      2061.55308712      2061.55308712
  Force two-norm initial, final = 266.411 51.9074
  Force max component initial, final = 182.994 40.4352
  Final line search alpha, max atom move = 3.32107e-12 1.34288e-10
  Iterations, force evaluations = 2 55

MPI task timing breakdown:
Section |  min time  |  avg time  |  max time  |%varavg| %total
---------------------------------------------------------------
Pair    | 0.0090292  | 0.0090292  | 0.0090292  |   0.0 | 57.84
Bond    | 0.0046418  | 0.0046418  | 0.0046418  |   0.0 | 29.73
Neigh   | 0          | 0          | 0          |   0.0 |  0.00
Comm    | 0.00040026 | 0.00040026 | 0.00040026 |   0.0 |  2.56
Output  | 0          | 0          | 0          |   0.0 |  0.00
Modify  | 0          | 0          | 0          |   0.0 |  0.00
Other   |            | 0.00154    |            |       |  9.86

Nlocal:    180 ave 180 max 180 min
Histogram: 1 0 0 0 0 0 0 0 0 0
Nghost:    1705 ave 1705 max 1705 min
Histogram: 1 0 0 0 0 0 0 0 0 0
Neighs:    12859 ave 12859 max 12859 min
Histogram: 1 0 0 0 0 0 0 0 0 0

Total # of neighbors = 12859
Ave neighs/atom = 71.4389
Ave special neighs/atom = 6.35556
Neighbor list builds = 0
Dangerous builds = 0
unfix           1
min_style       fire
variable        tempstp    equal $(step)
variable        tempstp    equal 4789
variable        CellMinStep equal ${tempstp}
variable        CellMinStep equal 4789
minimize        1.0e-15 1.0e-15 10000 100000
WARNING: Using 'neigh_modify every 1 delay 0 check yes' setting during minimization (src/min.cpp:190)
  Parameters for fire: 
    dmax delaystep dtgrow dtshrink alpha0 alphashrink tmax tmin    integrator halfstepback 
     0.1        20    1.1      0.5   0.25        0.99   10 0.02 eulerimplicit          yes 
WARNING: Inconsistent image flags (src/domain.cpp:785)
WARNING: Bond/angle/dihedral extent > half of periodic box length (src/domain.cpp:906)
Per MPI rank memory allocation (min/avg/max) = 16.44 | 16.44 | 16.44 Mbytes
Step Temp E_pair E_mol TotEng Press 
    4789            0    166.09409     1895.459    2061.5531     193.0106 
    8272 9.3936313e-11    166.53699    1894.7185    2061.2555    383.29946 
WARNING: Bond/angle/dihedral extent > half of periodic box length (src/domain.cpp:906)
Loop time of 0.776918 on 1 procs for 3483 steps with 180 atoms

99.9% CPU use with 1 MPI tasks x 1 OpenMP threads

Minimization stats:
  Stopping criterion = energy tolerance
  Energy initial, next-to-last, final = 
         2061.55308712      2061.25549585      2061.25549585
  Force two-norm initial, final = 18.3029 3.62561e-05
  Force max component initial, final = 2.91222 6.60557e-06
  Final line search alpha, max atom move = 0 0
  Iterations, force evaluations = 3483 3483

MPI task timing breakdown:
Section |  min time  |  avg time  |  max time  |%varavg| %total
---------------------------------------------------------------
Pair    | 0.49174    | 0.49174    | 0.49174    |   0.0 | 63.29
Bond    | 0.2435     | 0.2435     | 0.2435     |   0.0 | 31.34
Neigh   | 0          | 0          | 0          |   0.0 |  0.00
Comm    | 0.023525   | 0.023525   | 0.023525   |   0.0 |  3.03
Output  | 0          | 0          | 0          |   0.0 |  0.00
Modify  | 0          | 0          | 0          |   0.0 |  0.00
Other   |            | 0.01816    |            |       |  2.34

Nlocal:    180 ave 180 max 180 min
Histogram: 1 0 0 0 0 0 0 0 0 0
Nghost:    1709 ave 1709 max 1709 min
Histogram: 1 0 0 0 0 0 0 0 0 0
Neighs:    12835 ave 12835 max 12835 min
Histogram: 1 0 0 0 0 0 0 0 0 0

Total # of neighbors = 12835
Ave neighs/atom = 71.3056
Ave special neighs/atom = 6.35556
Neighbor list builds = 0
Dangerous builds = 0
variable        AtomMinStep equal ${tempstp}
variable        AtomMinStep equal 4789
variable        temppe     equal $(pe)
variable        temppe     equal 2061.2554958463229013
variable        min_E      equal abs(${prev_E}-${temppe})
variable        min_E      equal abs(2061.89659280267-${temppe})
variable        min_E      equal abs(2061.89659280267-2061.25549584632)
print           "${iter},${CellMinStep},${AtomMinStep},${AtomMinStep},$(pe),${min_E}" append NiPyC2_relax_sc211_ortho_functionalized_CH2-CH2-CH3.min.csv screen no
if              "${min_E} < ${min_eval}" then "jump SELF break_min"
variable        prev_E     equal ${temppe}
variable        prev_E     equal 2061.25549584632
next            iter
jump            SELF loop_min
min_style       cg
fix             1 all box/relax aniso 0.0 vmax 0.01
minimize        1.0e-15 1.0e-15 10000 100000
WARNING: Using 'neigh_modify every 1 delay 0 check yes' setting during minimization (src/min.cpp:190)
WARNING: Inconsistent image flags (src/domain.cpp:785)
WARNING: Bond/angle/dihedral extent > half of periodic box length (src/domain.cpp:906)
Per MPI rank memory allocation (min/avg/max) = 17.56 | 17.56 | 17.56 Mbytes
Step Temp E_pair E_mol TotEng Press Volume 
    8272 9.3936313e-11    166.53699    1894.7185    2061.2555    383.29946    1740.5516 
    8275 9.3936313e-11    165.83416    1895.1857    2061.0199   -212.42351    1741.8606 
WARNING: Bond/angle/dihedral extent > half of periodic box length (src/domain.cpp:906)
Loop time of 0.0160101 on 1 procs for 3 steps with 180 atoms

89.4% CPU use with 1 MPI tasks x 1 OpenMP threads

Minimization stats:
  Stopping criterion = linesearch alpha is zero
  Energy initial, next-to-last, final = 
         2061.25549585      2061.01986516      2061.01986516
  Force two-norm initial, final = 221.756 18.8054
  Force max component initial, final = 169.749 7.1606
  Final line search alpha, max atom move = 2.57317e-11 1.84255e-10
  Iterations, force evaluations = 3 57

MPI task timing breakdown:
Section |  min time  |  avg time  |  max time  |%varavg| %total
---------------------------------------------------------------
Pair    | 0.009362   | 0.009362   | 0.009362   |   0.0 | 58.48
Bond    | 0.004684   | 0.004684   | 0.004684   |   0.0 | 29.26
Neigh   | 0          | 0          | 0          |   0.0 |  0.00
Comm    | 0.00040752 | 0.00040752 | 0.00040752 |   0.0 |  2.55
Output  | 0          | 0          | 0          |   0.0 |  0.00
Modify  | 0          | 0          | 0          |   0.0 |  0.00
Other   |            | 0.001557   |            |       |  9.72

Nlocal:    180 ave 180 max 180 min
Histogram: 1 0 0 0 0 0 0 0 0 0
Nghost:    1709 ave 1709 max 1709 min
Histogram: 1 0 0 0 0 0 0 0 0 0
Neighs:    12841 ave 12841 max 12841 min
Histogram: 1 0 0 0 0 0 0 0 0 0

Total # of neighbors = 12841
Ave neighs/atom = 71.3389
Ave special neighs/atom = 6.35556
Neighbor list builds = 0
Dangerous builds = 0
unfix           1
min_style       fire
variable        tempstp    equal $(step)
variable        tempstp    equal 8275
variable        CellMinStep equal ${tempstp}
variable        CellMinStep equal 8275
minimize        1.0e-15 1.0e-15 10000 100000
WARNING: Using 'neigh_modify every 1 delay 0 check yes' setting during minimization (src/min.cpp:190)
  Parameters for fire: 
    dmax delaystep dtgrow dtshrink alpha0 alphashrink tmax tmin    integrator halfstepback 
     0.1        20    1.1      0.5   0.25        0.99   10 0.02 eulerimplicit          yes 
WARNING: Inconsistent image flags (src/domain.cpp:785)
WARNING: Bond/angle/dihedral extent > half of periodic box length (src/domain.cpp:906)
Per MPI rank memory allocation (min/avg/max) = 16.44 | 16.44 | 16.44 Mbytes
Step Temp E_pair E_mol TotEng Press 
    8275            0    165.83416    1895.1857    2061.0199   -212.42351 
   11626 1.3225382e-10    166.20734    1894.6279    2060.8352    -292.0206 
WARNING: Bond/angle/dihedral extent > half of periodic box length (src/domain.cpp:906)
Loop time of 0.749591 on 1 procs for 3351 steps with 180 atoms

99.8% CPU use with 1 MPI tasks x 1 OpenMP threads

Minimization stats:
  Stopping criterion = energy tolerance
  Energy initial, next-to-last, final = 
         2061.01986516      2060.83519574      2060.83519574
  Force two-norm initial, final = 16.0714 4.56462e-05
  Force max component initial, final = 2.75958 8.28799e-06
  Final line search alpha, max atom move = 0 0
  Iterations, force evaluations = 3351 3351

MPI task timing breakdown:
Section |  min time  |  avg time  |  max time  |%varavg| %total
---------------------------------------------------------------
Pair    | 0.47411    | 0.47411    | 0.47411    |   0.0 | 63.25
Bond    | 0.23516    | 0.23516    | 0.23516    |   0.0 | 31.37
Neigh   | 0          | 0          | 0          |   0.0 |  0.00
Comm    | 0.022791   | 0.022791   | 0.022791   |   0.0 |  3.04
Output  | 0          | 0          | 0          |   0.0 |  0.00
Modify  | 0          | 0          | 0          |   0.0 |  0.00
Other   |            | 0.01752    |            |       |  2.34

Nlocal:    180 ave 180 max 180 min
Histogram: 1 0 0 0 0 0 0 0 0 0
Nghost:    1715 ave 1715 max 1715 min
Histogram: 1 0 0 0 0 0 0 0 0 0
Neighs:    12829 ave 12829 max 12829 min
Histogram: 1 0 0 0 0 0 0 0 0 0

Total # of neighbors = 12829
Ave neighs/atom = 71.2722
Ave special neighs/atom = 6.35556
Neighbor list builds = 0
Dangerous builds = 0
variable        AtomMinStep equal ${tempstp}
variable        AtomMinStep equal 8275
variable        temppe     equal $(pe)
variable        temppe     equal 2060.8351957351860619
variable        min_E      equal abs(${prev_E}-${temppe})
variable        min_E      equal abs(2061.25549584632-${temppe})
variable        min_E      equal abs(2061.25549584632-2060.83519573519)
print           "${iter},${CellMinStep},${AtomMinStep},${AtomMinStep},$(pe),${min_E}" append NiPyC2_relax_sc211_ortho_functionalized_CH2-CH2-CH3.min.csv screen no
if              "${min_E} < ${min_eval}" then "jump SELF break_min"
variable        prev_E     equal ${temppe}
variable        prev_E     equal 2060.83519573519
next            iter
jump            SELF loop_min
min_style       cg
fix             1 all box/relax aniso 0.0 vmax 0.01
minimize        1.0e-15 1.0e-15 10000 100000
WARNING: Using 'neigh_modify every 1 delay 0 check yes' setting during minimization (src/min.cpp:190)
WARNING: Inconsistent image flags (src/domain.cpp:785)
WARNING: Bond/angle/dihedral extent > half of periodic box length (src/domain.cpp:906)
Per MPI rank memory allocation (min/avg/max) = 17.56 | 17.56 | 17.56 Mbytes
Step Temp E_pair E_mol TotEng Press Volume 
   11626 1.3225382e-10    166.20734    1894.6279    2060.8352    -292.0206    1741.8606 
   11631 1.3225382e-10    167.38926    1893.1277    2060.5169    6.2609612    1741.8874 
WARNING: Bond/angle/dihedral extent > half of periodic box length (src/domain.cpp:906)
Loop time of 0.0158193 on 1 procs for 5 steps with 180 atoms

99.9% CPU use with 1 MPI tasks x 1 OpenMP threads

Minimization stats:
  Stopping criterion = linesearch alpha is zero
  Energy initial, next-to-last, final = 
         2060.83519574      2060.51694286      2060.51694286
  Force two-norm initial, final = 188.923 24.9101
  Force max component initial, final = 160.665 14.2123
  Final line search alpha, max atom move = 1.13158e-11 1.60824e-10
  Iterations, force evaluations = 5 61

MPI task timing breakdown:
Section |  min time  |  avg time  |  max time  |%varavg| %total
---------------------------------------------------------------
Pair    | 0.0091406  | 0.0091406  | 0.0091406  |   0.0 | 57.78
Bond    | 0.0047534  | 0.0047534  | 0.0047534  |   0.0 | 30.05
Neigh   | 0          | 0          | 0          |   0.0 |  0.00
Comm    | 0.0004186  | 0.0004186  | 0.0004186  |   0.0 |  2.65
Output  | 0          | 0          | 0          |   0.0 |  0.00
Modify  | 0          | 0          | 0          |   0.0 |  0.00
Other   |            | 0.001507   |            |       |  9.52

Nlocal:    180 ave 180 max 180 min
Histogram: 1 0 0 0 0 0 0 0 0 0
Nghost:    1715 ave 1715 max 1715 min
Histogram: 1 0 0 0 0 0 0 0 0 0
Neighs:    12835 ave 12835 max 12835 min
Histogram: 1 0 0 0 0 0 0 0 0 0

Total # of neighbors = 12835
Ave neighs/atom = 71.3056
Ave special neighs/atom = 6.35556
Neighbor list builds = 0
Dangerous builds = 0
unfix           1
min_style       fire
variable        tempstp    equal $(step)
variable        tempstp    equal 11631
variable        CellMinStep equal ${tempstp}
variable        CellMinStep equal 11631
minimize        1.0e-15 1.0e-15 10000 100000
WARNING: Using 'neigh_modify every 1 delay 0 check yes' setting during minimization (src/min.cpp:190)
  Parameters for fire: 
    dmax delaystep dtgrow dtshrink alpha0 alphashrink tmax tmin    integrator halfstepback 
     0.1        20    1.1      0.5   0.25        0.99   10 0.02 eulerimplicit          yes 
WARNING: Inconsistent image flags (src/domain.cpp:785)
WARNING: Bond/angle/dihedral extent > half of periodic box length (src/domain.cpp:906)
Per MPI rank memory allocation (min/avg/max) = 16.44 | 16.44 | 16.44 Mbytes
Step Temp E_pair E_mol TotEng Press 
   11631            0    167.38926    1893.1277    2060.5169    6.2609612 
   14958 1.1987121e-10     166.6529    1893.7374    2060.3903   -497.97413 
WARNING: Bond/angle/dihedral extent > half of periodic box length (src/domain.cpp:906)
Loop time of 0.738099 on 1 procs for 3327 steps with 180 atoms

99.8% CPU use with 1 MPI tasks x 1 OpenMP threads

Minimization stats:
  Stopping criterion = energy tolerance
  Energy initial, next-to-last, final = 
         2060.51694286      2060.39025578      2060.39025578
  Force two-norm initial, final = 16.2764 4.09041e-05
  Force max component initial, final = 2.98274 7.56283e-06
  Final line search alpha, max atom move = 0 0
  Iterations, force evaluations = 3327 3327

MPI task timing breakdown:
Section |  min time  |  avg time  |  max time  |%varavg| %total
---------------------------------------------------------------
Pair    | 0.46692    | 0.46692    | 0.46692    |   0.0 | 63.26
Bond    | 0.23153    | 0.23153    | 0.23153    |   0.0 | 31.37
Neigh   | 0          | 0          | 0          |   0.0 |  0.00
Comm    | 0.022437   | 0.022437   | 0.022437   |   0.0 |  3.04
Output  | 0          | 0          | 0          |   0.0 |  0.00
Modify  | 0          | 0          | 0          |   0.0 |  0.00
Other   |            | 0.01722    |            |       |  2.33

Nlocal:    180 ave 180 max 180 min
Histogram: 1 0 0 0 0 0 0 0 0 0
Nghost:    1715 ave 1715 max 1715 min
Histogram: 1 0 0 0 0 0 0 0 0 0
Neighs:    12818 ave 12818 max 12818 min
Histogram: 1 0 0 0 0 0 0 0 0 0

Total # of neighbors = 12818
Ave neighs/atom = 71.2111
Ave special neighs/atom = 6.35556
Neighbor list builds = 0
Dangerous builds = 0
variable        AtomMinStep equal ${tempstp}
variable        AtomMinStep equal 11631
variable        temppe     equal $(pe)
variable        temppe     equal 2060.3902557777405491
variable        min_E      equal abs(${prev_E}-${temppe})
variable        min_E      equal abs(2060.83519573519-${temppe})
variable        min_E      equal abs(2060.83519573519-2060.39025577774)
print           "${iter},${CellMinStep},${AtomMinStep},${AtomMinStep},$(pe),${min_E}" append NiPyC2_relax_sc211_ortho_functionalized_CH2-CH2-CH3.min.csv screen no
if              "${min_E} < ${min_eval}" then "jump SELF break_min"
variable        prev_E     equal ${temppe}
variable        prev_E     equal 2060.39025577774
next            iter
jump            SELF loop_min
min_style       cg
fix             1 all box/relax aniso 0.0 vmax 0.01
minimize        1.0e-15 1.0e-15 10000 100000
WARNING: Using 'neigh_modify every 1 delay 0 check yes' setting during minimization (src/min.cpp:190)
WARNING: Inconsistent image flags (src/domain.cpp:785)
WARNING: Bond/angle/dihedral extent > half of periodic box length (src/domain.cpp:906)
Per MPI rank memory allocation (min/avg/max) = 17.56 | 17.56 | 17.56 Mbytes
Step Temp E_pair E_mol TotEng Press Volume 
   14958 1.1987121e-10     166.6529    1893.7374    2060.3903   -497.97413    1741.8874 
   14961 1.1987121e-10     166.8891    1893.4055    2060.2946   -243.49677    1742.1146 
WARNING: Bond/angle/dihedral extent > half of periodic box length (src/domain.cpp:906)
Loop time of 0.0150232 on 1 procs for 3 steps with 180 atoms

99.9% CPU use with 1 MPI tasks x 1 OpenMP threads

Minimization stats:
  Stopping criterion = linesearch alpha is zero
  Energy initial, next-to-last, final = 
         2060.39025578       2060.2946053       2060.2946053
  Force two-norm initial, final = 151.541 16.2008
  Force max component initial, final = 134.947 9.83547
  Final line search alpha, max atom move = 3.12182e-11 3.07046e-10
  Iterations, force evaluations = 3 55

MPI task timing breakdown:
Section |  min time  |  avg time  |  max time  |%varavg| %total
---------------------------------------------------------------
Pair    | 0.0085461  | 0.0085461  | 0.0085461  |   0.0 | 56.89
Bond    | 0.0045374  | 0.0045374  | 0.0045374  |   0.0 | 30.20
Neigh   | 0          | 0          | 0          |   0.0 |  0.00
Comm    | 0.0003919  | 0.0003919  | 0.0003919  |   0.0 |  2.61
Output  | 0          | 0          | 0          |   0.0 |  0.00
Modify  | 0          | 0          | 0          |   0.0 |  0.00
Other   |            | 0.001548   |            |       | 10.30

Nlocal:    180 ave 180 max 180 min
Histogram: 1 0 0 0 0 0 0 0 0 0
Nghost:    1715 ave 1715 max 1715 min
Histogram: 1 0 0 0 0 0 0 0 0 0
Neighs:    12830 ave 12830 max 12830 min
Histogram: 1 0 0 0 0 0 0 0 0 0

Total # of neighbors = 12830
Ave neighs/atom = 71.2778
Ave special neighs/atom = 6.35556
Neighbor list builds = 0
Dangerous builds = 0
unfix           1
min_style       fire
variable        tempstp    equal $(step)
variable        tempstp    equal 14961
variable        CellMinStep equal ${tempstp}
variable        CellMinStep equal 14961
minimize        1.0e-15 1.0e-15 10000 100000
WARNING: Using 'neigh_modify every 1 delay 0 check yes' setting during minimization (src/min.cpp:190)
  Parameters for fire: 
    dmax delaystep dtgrow dtshrink alpha0 alphashrink tmax tmin    integrator halfstepback 
     0.1        20    1.1      0.5   0.25        0.99   10 0.02 eulerimplicit          yes 
WARNING: Inconsistent image flags (src/domain.cpp:785)
WARNING: Bond/angle/dihedral extent > half of periodic box length (src/domain.cpp:906)
Per MPI rank memory allocation (min/avg/max) = 16.44 | 16.44 | 16.44 Mbytes
Step Temp E_pair E_mol TotEng Press 
   14961            0     166.8891    1893.4055    2060.2946   -243.49677 
   18252 7.9639958e-11    166.79727    1893.3987    2060.1959   -700.20012 
WARNING: Bond/angle/dihedral extent > half of periodic box length (src/domain.cpp:906)
Loop time of 0.732585 on 1 procs for 3291 steps with 180 atoms

99.9% CPU use with 1 MPI tasks x 1 OpenMP threads

Minimization stats:
  Stopping criterion = energy tolerance
  Energy initial, next-to-last, final = 
          2060.2946053      2060.19594889      2060.19594889
  Force two-norm initial, final = 11.2201 3.23323e-05
  Force max component initial, final = 2.03089 6.20965e-06
  Final line search alpha, max atom move = 0 0
  Iterations, force evaluations = 3291 3291

MPI task timing breakdown:
Section |  min time  |  avg time  |  max time  |%varavg| %total
---------------------------------------------------------------
Pair    | 0.46294    | 0.46294    | 0.46294    |   0.0 | 63.19
Bond    | 0.23019    | 0.23019    | 0.23019    |   0.0 | 31.42
Neigh   | 0          | 0          | 0          |   0.0 |  0.00
Comm    | 0.02223    | 0.02223    | 0.02223    |   0.0 |  3.03
Output  | 0          | 0          | 0          |   0.0 |  0.00
Modify  | 0          | 0          | 0          |   0.0 |  0.00
Other   |            | 0.01723    |            |       |  2.35

Nlocal:    180 ave 180 max 180 min
Histogram: 1 0 0 0 0 0 0 0 0 0
Nghost:    1715 ave 1715 max 1715 min
Histogram: 1 0 0 0 0 0 0 0 0 0
Neighs:    12822 ave 12822 max 12822 min
Histogram: 1 0 0 0 0 0 0 0 0 0

Total # of neighbors = 12822
Ave neighs/atom = 71.2333
Ave special neighs/atom = 6.35556
Neighbor list builds = 0
Dangerous builds = 0
variable        AtomMinStep equal ${tempstp}
variable        AtomMinStep equal 14961
variable        temppe     equal $(pe)
variable        temppe     equal 2060.1959488900970427
variable        min_E      equal abs(${prev_E}-${temppe})
variable        min_E      equal abs(2060.39025577774-${temppe})
variable        min_E      equal abs(2060.39025577774-2060.1959488901)
print           "${iter},${CellMinStep},${AtomMinStep},${AtomMinStep},$(pe),${min_E}" append NiPyC2_relax_sc211_ortho_functionalized_CH2-CH2-CH3.min.csv screen no
if              "${min_E} < ${min_eval}" then "jump SELF break_min"
variable        prev_E     equal ${temppe}
variable        prev_E     equal 2060.1959488901
next            iter
jump            SELF loop_min
min_style       cg
fix             1 all box/relax aniso 0.0 vmax 0.01
minimize        1.0e-15 1.0e-15 10000 100000
WARNING: Using 'neigh_modify every 1 delay 0 check yes' setting during minimization (src/min.cpp:190)
WARNING: Inconsistent image flags (src/domain.cpp:785)
WARNING: Bond/angle/dihedral extent > half of periodic box length (src/domain.cpp:906)
Per MPI rank memory allocation (min/avg/max) = 17.56 | 17.56 | 17.56 Mbytes
Step Temp E_pair E_mol TotEng Press Volume 
   18252 7.9639958e-11    166.79727    1893.3987    2060.1959   -700.20012    1742.1146 
   18260 7.9639958e-11    168.44801    1891.4311    2059.8791   -331.43763    1741.6366 
WARNING: Bond/angle/dihedral extent > half of periodic box length (src/domain.cpp:906)
Loop time of 0.0182728 on 1 procs for 8 steps with 180 atoms

99.9% CPU use with 1 MPI tasks x 1 OpenMP threads

Minimization stats:
  Stopping criterion = linesearch alpha is zero
  Energy initial, next-to-last, final = 
         2060.19594889      2059.87908773      2059.87908773
  Force two-norm initial, final = 132.099 29.8924
  Force max component initial, final = 122.657 27.2593
  Final line search alpha, max atom move = 7.80274e-12 2.12697e-10
  Iterations, force evaluations = 8 67

MPI task timing breakdown:
Section |  min time  |  avg time  |  max time  |%varavg| %total
---------------------------------------------------------------
Pair    | 0.010512   | 0.010512   | 0.010512   |   0.0 | 57.53
Bond    | 0.0054764  | 0.0054764  | 0.0054764  |   0.0 | 29.97
Neigh   | 0          | 0          | 0          |   0.0 |  0.00
Comm    | 0.00048308 | 0.00048308 | 0.00048308 |   0.0 |  2.64
Output  | 0          | 0          | 0          |   0.0 |  0.00
Modify  | 0          | 0          | 0          |   0.0 |  0.00
Other   |            | 0.001802   |            |       |  9.86

Nlocal:    180 ave 180 max 180 min
Histogram: 1 0 0 0 0 0 0 0 0 0
Nghost:    1715 ave 1715 max 1715 min
Histogram: 1 0 0 0 0 0 0 0 0 0
Neighs:    12828 ave 12828 max 12828 min
Histogram: 1 0 0 0 0 0 0 0 0 0

Total # of neighbors = 12828
Ave neighs/atom = 71.2667
Ave special neighs/atom = 6.35556
Neighbor list builds = 0
Dangerous builds = 0
unfix           1
min_style       fire
variable        tempstp    equal $(step)
variable        tempstp    equal 18260
variable        CellMinStep equal ${tempstp}
variable        CellMinStep equal 18260
minimize        1.0e-15 1.0e-15 10000 100000
WARNING: Using 'neigh_modify every 1 delay 0 check yes' setting during minimization (src/min.cpp:190)
  Parameters for fire: 
    dmax delaystep dtgrow dtshrink alpha0 alphashrink tmax tmin    integrator halfstepback 
     0.1        20    1.1      0.5   0.25        0.99   10 0.02 eulerimplicit          yes 
WARNING: Inconsistent image flags (src/domain.cpp:785)
WARNING: Bond/angle/dihedral extent > half of periodic box length (src/domain.cpp:906)
Per MPI rank memory allocation (min/avg/max) = 16.44 | 16.44 | 16.44 Mbytes
Step Temp E_pair E_mol TotEng Press 
   18260            0    168.44801    1891.4311    2059.8791   -331.43763 
   22334 1.0748272e-10    167.46653    1892.3701    2059.8366   -692.80922 
WARNING: Bond/angle/dihedral extent > half of periodic box length (src/domain.cpp:906)
Loop time of 0.907406 on 1 procs for 4074 steps with 180 atoms

99.8% CPU use with 1 MPI tasks x 1 OpenMP threads

Minimization stats:
  Stopping criterion = energy tolerance
  Energy initial, next-to-last, final = 
         2059.87908773      2059.83663687      2059.83663687
  Force two-norm initial, final = 9.5092 3.95114e-05
  Force max component initial, final = 1.31272 7.9271e-06
  Final line search alpha, max atom move = 0 0
  Iterations, force evaluations = 4074 4074

MPI task timing breakdown:
Section |  min time  |  avg time  |  max time  |%varavg| %total
---------------------------------------------------------------
Pair    | 0.57376    | 0.57376    | 0.57376    |   0.0 | 63.23
Bond    | 0.28496    | 0.28496    | 0.28496    |   0.0 | 31.40
Neigh   | 0          | 0          | 0          |   0.0 |  0.00
Comm    | 0.027385   | 0.027385   | 0.027385   |   0.0 |  3.02
Output  | 0.00016943 | 0.00016943 | 0.00016943 |   0.0 |  0.02
Modify  | 0          | 0          | 0          |   0.0 |  0.00
Other   |            | 0.02114    |            |       |  2.33

Nlocal:    180 ave 180 max 180 min
Histogram: 1 0 0 0 0 0 0 0 0 0
Nghost:    1711 ave 1711 max 1711 min
Histogram: 1 0 0 0 0 0 0 0 0 0
Neighs:    12824 ave 12824 max 12824 min
Histogram: 1 0 0 0 0 0 0 0 0 0

Total # of neighbors = 12824
Ave neighs/atom = 71.2444
Ave special neighs/atom = 6.35556
Neighbor list builds = 0
Dangerous builds = 0
variable        AtomMinStep equal ${tempstp}
variable        AtomMinStep equal 18260
variable        temppe     equal $(pe)
variable        temppe     equal 2059.836636873471889
variable        min_E      equal abs(${prev_E}-${temppe})
variable        min_E      equal abs(2060.1959488901-${temppe})
variable        min_E      equal abs(2060.1959488901-2059.83663687347)
print           "${iter},${CellMinStep},${AtomMinStep},${AtomMinStep},$(pe),${min_E}" append NiPyC2_relax_sc211_ortho_functionalized_CH2-CH2-CH3.min.csv screen no
if              "${min_E} < ${min_eval}" then "jump SELF break_min"
variable        prev_E     equal ${temppe}
variable        prev_E     equal 2059.83663687347
next            iter
jump            SELF loop_min
min_style       cg
fix             1 all box/relax aniso 0.0 vmax 0.01
minimize        1.0e-15 1.0e-15 10000 100000
WARNING: Using 'neigh_modify every 1 delay 0 check yes' setting during minimization (src/min.cpp:190)
WARNING: Inconsistent image flags (src/domain.cpp:785)
WARNING: Bond/angle/dihedral extent > half of periodic box length (src/domain.cpp:906)
Per MPI rank memory allocation (min/avg/max) = 17.56 | 17.56 | 17.56 Mbytes
Step Temp E_pair E_mol TotEng Press Volume 
   22334 1.0748272e-10    167.46653    1892.3701    2059.8366   -692.80922    1741.6366 
   22336 1.0748272e-10    168.54647    1891.1475    2059.6939    410.01768    1740.7825 
WARNING: Bond/angle/dihedral extent > half of periodic box length (src/domain.cpp:906)
Loop time of 0.0141063 on 1 procs for 2 steps with 180 atoms

99.9% CPU use with 1 MPI tasks x 1 OpenMP threads

Minimization stats:
  Stopping criterion = linesearch alpha is zero
  Energy initial, next-to-last, final = 
         2059.83663687      2059.69394361      2059.69394361
  Force two-norm initial, final = 100.046 24.5493
  Force max component initial, final = 95.3258 22.5735
  Final line search alpha, max atom move = 1.24972e-11 2.82106e-10
  Iterations, force evaluations = 2 53

MPI task timing breakdown:
Section |  min time  |  avg time  |  max time  |%varavg| %total
---------------------------------------------------------------
Pair    | 0.0080523  | 0.0080523  | 0.0080523  |   0.0 | 57.08
Bond    | 0.0042621  | 0.0042621  | 0.0042621  |   0.0 | 30.21
Neigh   | 0          | 0          | 0          |   0.0 |  0.00
Comm    | 0.00039546 | 0.00039546 | 0.00039546 |   0.0 |  2.80
Output  | 0          | 0          | 0          |   0.0 |  0.00
Modify  | 0          | 0          | 0          |   0.0 |  0.00
Other   |            | 0.001396   |            |       |  9.90

Nlocal:    180 ave 180 max 180 min
Histogram: 1 0 0 0 0 0 0 0 0 0
Nghost:    1711 ave 1711 max 1711 min
Histogram: 1 0 0 0 0 0 0 0 0 0
Neighs:    12823 ave 12823 max 12823 min
Histogram: 1 0 0 0 0 0 0 0 0 0

Total # of neighbors = 12823
Ave neighs/atom = 71.2389
Ave special neighs/atom = 6.35556
Neighbor list builds = 0
Dangerous builds = 0
unfix           1
min_style       fire
variable        tempstp    equal $(step)
variable        tempstp    equal 22336
variable        CellMinStep equal ${tempstp}
variable        CellMinStep equal 22336
minimize        1.0e-15 1.0e-15 10000 100000
WARNING: Using 'neigh_modify every 1 delay 0 check yes' setting during minimization (src/min.cpp:190)
  Parameters for fire: 
    dmax delaystep dtgrow dtshrink alpha0 alphashrink tmax tmin    integrator halfstepback 
     0.1        20    1.1      0.5   0.25        0.99   10 0.02 eulerimplicit          yes 
WARNING: Inconsistent image flags (src/domain.cpp:785)
WARNING: Bond/angle/dihedral extent > half of periodic box length (src/domain.cpp:906)
Per MPI rank memory allocation (min/avg/max) = 16.44 | 16.44 | 16.44 Mbytes
Step Temp E_pair E_mol TotEng Press 
   22336            0    168.54647    1891.1475    2059.6939    410.01768 
   25583 9.9070635e-11    167.97996    1891.6727    2059.6526   -433.82442 
WARNING: Bond/angle/dihedral extent > half of periodic box length (src/domain.cpp:906)
Loop time of 0.727144 on 1 procs for 3247 steps with 180 atoms

99.9% CPU use with 1 MPI tasks x 1 OpenMP threads

Minimization stats:
  Stopping criterion = energy tolerance
  Energy initial, next-to-last, final = 
         2059.69394361      2059.65262843      2059.65262843
  Force two-norm initial, final = 7.26275 3.70309e-05
  Force max component initial, final = 1.4621 7.63495e-06
  Final line search alpha, max atom move = 0 0
  Iterations, force evaluations = 3247 3247

MPI task timing breakdown:
Section |  min time  |  avg time  |  max time  |%varavg| %total
---------------------------------------------------------------
Pair    | 0.46037    | 0.46037    | 0.46037    |   0.0 | 63.31
Bond    | 0.22784    | 0.22784    | 0.22784    |   0.0 | 31.33
Neigh   | 0          | 0          | 0          |   0.0 |  0.00
Comm    | 0.021947   | 0.021947   | 0.021947   |   0.0 |  3.02
Output  | 0          | 0          | 0          |   0.0 |  0.00
Modify  | 0          | 0          | 0          |   0.0 |  0.00
Other   |            | 0.01699    |            |       |  2.34

Nlocal:    180 ave 180 max 180 min
Histogram: 1 0 0 0 0 0 0 0 0 0
Nghost:    1711 ave 1711 max 1711 min
Histogram: 1 0 0 0 0 0 0 0 0 0
Neighs:    12830 ave 12830 max 12830 min
Histogram: 1 0 0 0 0 0 0 0 0 0

Total # of neighbors = 12830
Ave neighs/atom = 71.2778
Ave special neighs/atom = 6.35556
Neighbor list builds = 0
Dangerous builds = 0
variable        AtomMinStep equal ${tempstp}
variable        AtomMinStep equal 22336
variable        temppe     equal $(pe)
variable        temppe     equal 2059.6526284265405593
variable        min_E      equal abs(${prev_E}-${temppe})
variable        min_E      equal abs(2059.83663687347-${temppe})
variable        min_E      equal abs(2059.83663687347-2059.65262842654)
print           "${iter},${CellMinStep},${AtomMinStep},${AtomMinStep},$(pe),${min_E}" append NiPyC2_relax_sc211_ortho_functionalized_CH2-CH2-CH3.min.csv screen no
if              "${min_E} < ${min_eval}" then "jump SELF break_min"
variable        prev_E     equal ${temppe}
variable        prev_E     equal 2059.65262842654
next            iter
jump            SELF loop_min
min_style       cg
fix             1 all box/relax aniso 0.0 vmax 0.01
minimize        1.0e-15 1.0e-15 10000 100000
WARNING: Using 'neigh_modify every 1 delay 0 check yes' setting during minimization (src/min.cpp:190)
WARNING: Inconsistent image flags (src/domain.cpp:785)
WARNING: Bond/angle/dihedral extent > half of periodic box length (src/domain.cpp:906)
Per MPI rank memory allocation (min/avg/max) = 17.56 | 17.56 | 17.56 Mbytes
Step Temp E_pair E_mol TotEng Press Volume 
   25583 9.9070635e-11    167.97996    1891.6727    2059.6526   -433.82442    1740.7825 
   25584 9.9070635e-11    167.97996    1891.6727    2059.6526   -433.82442    1740.7825 
WARNING: Bond/angle/dihedral extent > half of periodic box length (src/domain.cpp:906)
Loop time of 0.0145891 on 1 procs for 1 steps with 180 atoms

85.5% CPU use with 1 MPI tasks x 1 OpenMP threads

Minimization stats:
  Stopping criterion = linesearch alpha is zero
  Energy initial, next-to-last, final = 
         2059.65262843      2059.65262843      2059.65262843
  Force two-norm initial, final = 86.9817 86.9817
  Force max component initial, final = 79.9759 79.9759
  Final line search alpha, max atom move = 9.31603e-13 7.45058e-11
  Iterations, force evaluations = 1 55

MPI task timing breakdown:
Section |  min time  |  avg time  |  max time  |%varavg| %total
---------------------------------------------------------------
Pair    | 0.0084249  | 0.0084249  | 0.0084249  |   0.0 | 57.75
Bond    | 0.0043648  | 0.0043648  | 0.0043648  |   0.0 | 29.92
Neigh   | 0          | 0          | 0          |   0.0 |  0.00
Comm    | 0.00038205 | 0.00038205 | 0.00038205 |   0.0 |  2.62
Output  | 0          | 0          | 0          |   0.0 |  0.00
Modify  | 0          | 0          | 0          |   0.0 |  0.00
Other   |            | 0.001417   |            |       |  9.72

Nlocal:    180 ave 180 max 180 min
Histogram: 1 0 0 0 0 0 0 0 0 0
Nghost:    1711 ave 1711 max 1711 min
Histogram: 1 0 0 0 0 0 0 0 0 0
Neighs:    12831 ave 12831 max 12831 min
Histogram: 1 0 0 0 0 0 0 0 0 0

Total # of neighbors = 12831
Ave neighs/atom = 71.2833
Ave special neighs/atom = 6.35556
Neighbor list builds = 0
Dangerous builds = 0
unfix           1
min_style       fire
variable        tempstp    equal $(step)
variable        tempstp    equal 25584
variable        CellMinStep equal ${tempstp}
variable        CellMinStep equal 25584
minimize        1.0e-15 1.0e-15 10000 100000
WARNING: Using 'neigh_modify every 1 delay 0 check yes' setting during minimization (src/min.cpp:190)
  Parameters for fire: 
    dmax delaystep dtgrow dtshrink alpha0 alphashrink tmax tmin    integrator halfstepback 
     0.1        20    1.1      0.5   0.25        0.99   10 0.02 eulerimplicit          yes 
WARNING: Inconsistent image flags (src/domain.cpp:785)
WARNING: Bond/angle/dihedral extent > half of periodic box length (src/domain.cpp:906)
Per MPI rank memory allocation (min/avg/max) = 16.44 | 16.44 | 16.44 Mbytes
Step Temp E_pair E_mol TotEng Press 
   25584            0    167.97996    1891.6727    2059.6526   -433.82442 
   25640 8.4741737e-11    167.97997    1891.6727    2059.6526   -433.82141 
WARNING: Bond/angle/dihedral extent > half of periodic box length (src/domain.cpp:906)
Loop time of 0.0133803 on 1 procs for 56 steps with 180 atoms

99.9% CPU use with 1 MPI tasks x 1 OpenMP threads

Minimization stats:
  Stopping criterion = energy tolerance
  Energy initial, next-to-last, final = 
         2059.65262843      2059.65262843      2059.65262843
  Force two-norm initial, final = 3.70309e-05 3.38173e-05
  Force max component initial, final = 7.63495e-06 6.95186e-06
  Final line search alpha, max atom move = 0 0
  Iterations, force evaluations = 56 56

MPI task timing breakdown:
Section |  min time  |  avg time  |  max time  |%varavg| %total
---------------------------------------------------------------
Pair    | 0.0084006  | 0.0084006  | 0.0084006  |   0.0 | 62.78
Bond    | 0.004082   | 0.004082   | 0.004082   |   0.0 | 30.51
Neigh   | 0          | 0          | 0          |   0.0 |  0.00
Comm    | 0.00040624 | 0.00040624 | 0.00040624 |   0.0 |  3.04
Output  | 0          | 0          | 0          |   0.0 |  0.00
Modify  | 0          | 0          | 0          |   0.0 |  0.00
Other   |            | 0.0004914  |            |       |  3.67

Nlocal:    180 ave 180 max 180 min
Histogram: 1 0 0 0 0 0 0 0 0 0
Nghost:    1711 ave 1711 max 1711 min
Histogram: 1 0 0 0 0 0 0 0 0 0
Neighs:    12831 ave 12831 max 12831 min
Histogram: 1 0 0 0 0 0 0 0 0 0

Total # of neighbors = 12831
Ave neighs/atom = 71.2833
Ave special neighs/atom = 6.35556
Neighbor list builds = 0
Dangerous builds = 0
variable        AtomMinStep equal ${tempstp}
variable        AtomMinStep equal 25584
variable        temppe     equal $(pe)
variable        temppe     equal 2059.6526284264009519
variable        min_E      equal abs(${prev_E}-${temppe})
variable        min_E      equal abs(2059.65262842654-${temppe})
variable        min_E      equal abs(2059.65262842654-2059.6526284264)
print           "${iter},${CellMinStep},${AtomMinStep},${AtomMinStep},$(pe),${min_E}" append NiPyC2_relax_sc211_ortho_functionalized_CH2-CH2-CH3.min.csv screen no
if              "${min_E} < ${min_eval}" then "jump SELF break_min"
jump SELF break_min
undump          NiPyC2_relax_sc211_ortho_functionalized_CH2-CH2-CH3_xyzmov

# Dump last snapshot for restart
variable curr_lx equal lx
variable curr_ly equal ly
variable curr_lz equal lz
change_box all x final 0 ${curr_lx} y final 0 ${curr_ly} z final 0 ${curr_lz}
change_box all x final 0 16.1050193750378 y final 0 ${curr_ly} z final 0 ${curr_lz}
change_box all x final 0 16.1050193750378 y final 0 10.8375197529937 z final 0 ${curr_lz}
change_box all x final 0 16.1050193750378 y final 0 10.8375197529937 z final 0 9.9736326554456
  triclinic box = (0 0.84294 0.150323) to (16.105 11.6805 10.124) with tilt (0 -0.220934 0)
  triclinic box = (0 0 0.150323) to (16.105 10.8375 10.124) with tilt (0 -0.220934 0)
  triclinic box = (0 0 0) to (16.105 10.8375 9.97363) with tilt (0 -0.220934 0)

reset_timestep 0
dump            NiPyC2_relax_sc211_ortho_functionalized_CH2-CH2-CH3_restart all atom 1 NiPyC2_relax_sc211_ortho_functionalized_CH2-CH2-CH3_restart.lammpstrj
dump_modify     NiPyC2_relax_sc211_ortho_functionalized_CH2-CH2-CH3_restart scale no sort id
run 0
WARNING: No fixes defined, atoms won't move (src/verlet.cpp:52)
WARNING: Inconsistent image flags (src/domain.cpp:785)
WARNING: Bond/angle/dihedral extent > half of periodic box length (src/domain.cpp:906)
Per MPI rank memory allocation (min/avg/max) = 16.44 | 16.44 | 16.44 Mbytes
Step Temp E_pair E_mol TotEng Press 
       0 8.4741737e-11    167.97997    1891.6727    2059.6526   -433.82141 
WARNING: Bond/angle/dihedral extent > half of periodic box length (src/domain.cpp:906)
Loop time of 7.67002e-07 on 1 procs for 0 steps with 180 atoms

130.4% CPU use with 1 MPI tasks x 1 OpenMP threads

MPI task timing breakdown:
Section |  min time  |  avg time  |  max time  |%varavg| %total
---------------------------------------------------------------
Pair    | 0          | 0          | 0          |   0.0 |  0.00
Bond    | 0          | 0          | 0          |   0.0 |  0.00
Neigh   | 0          | 0          | 0          |   0.0 |  0.00
Comm    | 0          | 0          | 0          |   0.0 |  0.00
Output  | 0          | 0          | 0          |   0.0 |  0.00
Modify  | 0          | 0          | 0          |   0.0 |  0.00
Other   |            | 7.67e-07   |            |       |100.00

Nlocal:    180 ave 180 max 180 min
Histogram: 1 0 0 0 0 0 0 0 0 0
Nghost:    1601 ave 1601 max 1601 min
Histogram: 1 0 0 0 0 0 0 0 0 0
Neighs:    12831 ave 12831 max 12831 min
Histogram: 1 0 0 0 0 0 0 0 0 0

Total # of neighbors = 12831
Ave neighs/atom = 71.2833
Ave special neighs/atom = 6.35556
Neighbor list builds = 0
Dangerous builds = 0
undump          NiPyC2_relax_sc211_ortho_functionalized_CH2-CH2-CH3_restart
Total wall time: 0:00:06
units           real
atom_style      full
boundary        p p p

pair_style      lj/cut 5.000
bond_style      harmonic
angle_style     hybrid cosine/periodic fourier
dihedral_style  harmonic
improper_style  fourier

pair_modify     tail yes mix arithmetic
dielectric      1.0
special_bonds   lj/coul 0.0 0.0 1.0
box tilt        large
read_data       data.NiPyC2_relax_sc211_ortho_functionalized_CH2-CH2-CH3
  triclinic box = (0 0 0) to (12.5056 12.5234 10.2743) with tilt (0 -0.227594 0)
  1 by 1 by 1 MPI processor grid
  reading atoms ...
  180 atoms
  scanning bonds ...
  6 = max bonds/atom
  scanning angles ...
  15 = max angles/atom
  scanning dihedrals ...
  10 = max dihedrals/atom
  scanning impropers ...
  3 = max impropers/atom
  reading bonds ...
  200 bonds
  reading angles ...
  388 angles
  reading dihedrals ...
  448 dihedrals
  reading impropers ...
  168 impropers
  6 = max # of 1-2 neighbors
  9 = max # of 1-3 neighbors
  12 = max # of special neighbors
  special bonds CPU = 0.000124414 secs
  read_data CPU = 0.00656792 secs

#### Atom Groupings ####
group           fram     id   1:180
180 atoms in group fram
#### END Atom Groupings ####

dump            NiPyC2_relax_sc211_ortho_functionalized_CH2-CH2-CH3_xyzmov all xyz 20000 NiPyC2_relax_sc211_ortho_functionalized_CH2-CH2-CH3_mov.xyz
dump_modify     NiPyC2_relax_sc211_ortho_functionalized_CH2-CH2-CH3_xyzmov element Ni O N C H C
min_style       cg
print           "MinStep,CellMinStep,AtomMinStep,FinalStep,Energy,EDiff,vol,lx,ly,lz,xy,xz,yz" file NiPyC2_relax_sc211_ortho_functionalized_CH2-CH2-CH3.min.csv screen no
variable        min_eval   equal 1.00e-06
variable        prev_E     equal 50000.00
variable        iter       loop 100000
label           loop_min
min_style       cg
variable        tempstp    equal $(step)
variable        tempstp    equal 0
variable        CellMinStep equal ${tempstp}
variable        CellMinStep equal 0
minimize        1.0e-15 1.0e-15 10000 100000
WARNING: Using 'neigh_modify every 1 delay 0 check yes' setting during minimization (src/min.cpp:190)
Neighbor list info ...
  update every 1 steps, delay 0 steps, check yes
  max neighbors/atom: 2000, page size: 100000
  master list distance cutoff = 7
  ghost atom cutoff = 7
  binsize = 3.5, bins = 4 4 3
  1 neighbor lists, perpetual/occasional/extra = 1 0 0
  (1) pair lj/cut, perpetual
      attributes: half, newton on
      pair build: half/bin/newton/tri
      stencil: half/bin/3d/newton/tri
      bin: standard
WARNING: Inconsistent image flags (src/domain.cpp:785)
WARNING: Bond/angle/dihedral extent > half of periodic box length (src/domain.cpp:906)
Per MPI rank memory allocation (min/avg/max) = 17.56 | 17.56 | 17.56 Mbytes
Step Temp E_pair E_mol TotEng Press 
       0            0 2.367986e+08    2234.6319 2.3680083e+08 4.0366012e+10 
     393            0    302.82376    2291.9934    2594.8172   -15279.193 
WARNING: Bond/angle/dihedral extent > half of periodic box length (src/domain.cpp:906)
Loop time of 0.226351 on 1 procs for 393 steps with 180 atoms

99.9% CPU use with 1 MPI tasks x 1 OpenMP threads

Minimization stats:
  Stopping criterion = linesearch alpha is zero
  Energy initial, next-to-last, final = 
         236800831.639      2594.81715999      2594.81715999
  Force two-norm initial, final = 2.98178e+09 10.0086
  Force max component initial, final = 1.46647e+09 1.89978
  Final line search alpha, max atom move = 7.76647e-11 1.47546e-10
  Iterations, force evaluations = 393 757

MPI task timing breakdown:
Section |  min time  |  avg time  |  max time  |%varavg| %total
---------------------------------------------------------------
Pair    | 0.1314     | 0.1314     | 0.1314     |   0.0 | 58.05
Bond    | 0.059267   | 0.059267   | 0.059267   |   0.0 | 26.18
Neigh   | 0.024199   | 0.024199   | 0.024199   |   0.0 | 10.69
Comm    | 0.0067796  | 0.0067796  | 0.0067796  |   0.0 |  3.00
Output  | 0          | 0          | 0          |   0.0 |  0.00
Modify  | 0          | 0          | 0          |   0.0 |  0.00
Other   |            | 0.004704   |            |       |  2.08

Nlocal:    180 ave 180 max 180 min
Histogram: 1 0 0 0 0 0 0 0 0 0
Nghost:    1708 ave 1708 max 1708 min
Histogram: 1 0 0 0 0 0 0 0 0 0
Neighs:    13881 ave 13881 max 13881 min
Histogram: 1 0 0 0 0 0 0 0 0 0

Total # of neighbors = 13881
Ave neighs/atom = 77.1167
Ave special neighs/atom = 6.35556
Neighbor list builds = 21
Dangerous builds = 0
variable        AtomMinStep equal ${tempstp}
variable        AtomMinStep equal 0
variable        temppe     equal $(pe)
variable        temppe     equal 2594.8171599943334513
variable        min_E      equal abs(${prev_E}-${temppe})
variable        min_E      equal abs(50000-${temppe})
variable        min_E      equal abs(50000-2594.81715999433)
print           "${iter},${CellMinStep},${AtomMinStep},${AtomMinStep},$(pe),${min_E},$(vol),$(lx),$(ly),$(lz),$(xy),$(xz),$(yz)" append NiPyC2_relax_sc211_ortho_functionalized_CH2-CH2-CH3.min.csv screen no
if              "${min_E} < ${min_eval}" then "jump SELF break_min"
variable        prev_E     equal ${temppe}
variable        prev_E     equal 2594.81715999433
next            iter
jump            SELF loop_min
min_style       cg
variable        tempstp    equal $(step)
variable        tempstp    equal 393
variable        CellMinStep equal ${tempstp}
variable        CellMinStep equal 393
minimize        1.0e-15 1.0e-15 10000 100000
WARNING: Using 'neigh_modify every 1 delay 0 check yes' setting during minimization (src/min.cpp:190)
WARNING: Inconsistent image flags (src/domain.cpp:785)
WARNING: Bond/angle/dihedral extent > half of periodic box length (src/domain.cpp:906)
Per MPI rank memory allocation (min/avg/max) = 17.56 | 17.56 | 17.56 Mbytes
Step Temp E_pair E_mol TotEng Press 
     393            0    302.82376    2291.9934    2594.8172   -15279.193 
     404            0    301.05823    2293.1031    2594.1613   -15892.678 
WARNING: Bond/angle/dihedral extent > half of periodic box length (src/domain.cpp:906)
Loop time of 0.0211748 on 1 procs for 11 steps with 180 atoms

100.0% CPU use with 1 MPI tasks x 1 OpenMP threads

Minimization stats:
  Stopping criterion = linesearch alpha is zero
  Energy initial, next-to-last, final = 
         2594.81715999      2594.16134159      2594.16134159
  Force two-norm initial, final = 10.0086 9.95337
  Force max component initial, final = 1.89978 1.86214
  Final line search alpha, max atom move = 1.10181e-10 2.05173e-10
  Iterations, force evaluations = 11 75

MPI task timing breakdown:
Section |  min time  |  avg time  |  max time  |%varavg| %total
---------------------------------------------------------------
Pair    | 0.013819   | 0.013819   | 0.013819   |   0.0 | 65.26
Bond    | 0.0061923  | 0.0061923  | 0.0061923  |   0.0 | 29.24
Neigh   | 0          | 0          | 0          |   0.0 |  0.00
Comm    | 0.00063058 | 0.00063058 | 0.00063058 |   0.0 |  2.98
Output  | 0          | 0          | 0          |   0.0 |  0.00
Modify  | 0          | 0          | 0          |   0.0 |  0.00
Other   |            | 0.0005328  |            |       |  2.52

Nlocal:    180 ave 180 max 180 min
Histogram: 1 0 0 0 0 0 0 0 0 0
Nghost:    1699 ave 1699 max 1699 min
Histogram: 1 0 0 0 0 0 0 0 0 0
Neighs:    13885 ave 13885 max 13885 min
Histogram: 1 0 0 0 0 0 0 0 0 0

Total # of neighbors = 13885
Ave neighs/atom = 77.1389
Ave special neighs/atom = 6.35556
Neighbor list builds = 0
Dangerous builds = 0
variable        AtomMinStep equal ${tempstp}
variable        AtomMinStep equal 393
variable        temppe     equal $(pe)
variable        temppe     equal 2594.1613415888400596
variable        min_E      equal abs(${prev_E}-${temppe})
variable        min_E      equal abs(2594.81715999433-${temppe})
variable        min_E      equal abs(2594.81715999433-2594.16134158884)
print           "${iter},${CellMinStep},${AtomMinStep},${AtomMinStep},$(pe),${min_E},$(vol),$(lx),$(ly),$(lz),$(xy),$(xz),$(yz)" append NiPyC2_relax_sc211_ortho_functionalized_CH2-CH2-CH3.min.csv screen no
if              "${min_E} < ${min_eval}" then "jump SELF break_min"
variable        prev_E     equal ${temppe}
variable        prev_E     equal 2594.16134158884
next            iter
jump            SELF loop_min
min_style       cg
variable        tempstp    equal $(step)
variable        tempstp    equal 404
variable        CellMinStep equal ${tempstp}
variable        CellMinStep equal 404
minimize        1.0e-15 1.0e-15 10000 100000
WARNING: Using 'neigh_modify every 1 delay 0 check yes' setting during minimization (src/min.cpp:190)
WARNING: Inconsistent image flags (src/domain.cpp:785)
WARNING: Bond/angle/dihedral extent > half of periodic box length (src/domain.cpp:906)
Per MPI rank memory allocation (min/avg/max) = 17.56 | 17.56 | 17.56 Mbytes
Step Temp E_pair E_mol TotEng Press 
     404            0    301.05823    2293.1031    2594.1613   -15892.678 
     406            0    301.14904    2292.9975    2594.1466   -15901.067 
WARNING: Bond/angle/dihedral extent > half of periodic box length (src/domain.cpp:906)
Loop time of 0.0156069 on 1 procs for 2 steps with 180 atoms

100.0% CPU use with 1 MPI tasks x 1 OpenMP threads

Minimization stats:
  Stopping criterion = linesearch alpha is zero
  Energy initial, next-to-last, final = 
         2594.16134159      2594.14657151      2594.14657151
  Force two-norm initial, final = 9.95337 7.02528
  Force max component initial, final = 1.86214 1.56828
  Final line search alpha, max atom move = 1.57898e-10 2.47627e-10
  Iterations, force evaluations = 2 61

MPI task timing breakdown:
Section |  min time  |  avg time  |  max time  |%varavg| %total
---------------------------------------------------------------
Pair    | 0.010152   | 0.010152   | 0.010152   |   0.0 | 65.05
Bond    | 0.0045889  | 0.0045889  | 0.0045889  |   0.0 | 29.40
Neigh   | 0          | 0          | 0          |   0.0 |  0.00
Comm    | 0.00045778 | 0.00045778 | 0.00045778 |   0.0 |  2.93
Output  | 0          | 0          | 0          |   0.0 |  0.00
Modify  | 0          | 0          | 0          |   0.0 |  0.00
Other   |            | 0.000408   |            |       |  2.61

Nlocal:    180 ave 180 max 180 min
Histogram: 1 0 0 0 0 0 0 0 0 0
Nghost:    1705 ave 1705 max 1705 min
Histogram: 1 0 0 0 0 0 0 0 0 0
Neighs:    13885 ave 13885 max 13885 min
Histogram: 1 0 0 0 0 0 0 0 0 0

Total # of neighbors = 13885
Ave neighs/atom = 77.1389
Ave special neighs/atom = 6.35556
Neighbor list builds = 0
Dangerous builds = 0
variable        AtomMinStep equal ${tempstp}
variable        AtomMinStep equal 404
variable        temppe     equal $(pe)
variable        temppe     equal 2594.1465715138233463
variable        min_E      equal abs(${prev_E}-${temppe})
variable        min_E      equal abs(2594.16134158884-${temppe})
variable        min_E      equal abs(2594.16134158884-2594.14657151382)
print           "${iter},${CellMinStep},${AtomMinStep},${AtomMinStep},$(pe),${min_E},$(vol),$(lx),$(ly),$(lz),$(xy),$(xz),$(yz)" append NiPyC2_relax_sc211_ortho_functionalized_CH2-CH2-CH3.min.csv screen no
if              "${min_E} < ${min_eval}" then "jump SELF break_min"
variable        prev_E     equal ${temppe}
variable        prev_E     equal 2594.14657151382
next            iter
jump            SELF loop_min
min_style       cg
variable        tempstp    equal $(step)
variable        tempstp    equal 406
variable        CellMinStep equal ${tempstp}
variable        CellMinStep equal 406
minimize        1.0e-15 1.0e-15 10000 100000
WARNING: Using 'neigh_modify every 1 delay 0 check yes' setting during minimization (src/min.cpp:190)
WARNING: Inconsistent image flags (src/domain.cpp:785)
WARNING: Bond/angle/dihedral extent > half of periodic box length (src/domain.cpp:906)
Per MPI rank memory allocation (min/avg/max) = 17.56 | 17.56 | 17.56 Mbytes
Step Temp E_pair E_mol TotEng Press 
     406            0    301.14904    2292.9975    2594.1466   -15901.067 
     407            0    301.14904    2292.9975    2594.1466   -15901.067 
WARNING: Bond/angle/dihedral extent > half of periodic box length (src/domain.cpp:906)
Loop time of 0.0149479 on 1 procs for 1 steps with 180 atoms

100.0% CPU use with 1 MPI tasks x 1 OpenMP threads

Minimization stats:
  Stopping criterion = linesearch alpha is zero
  Energy initial, next-to-last, final = 
         2594.14657151      2594.14657151      2594.14657151
  Force two-norm initial, final = 7.02528 7.02528
  Force max component initial, final = 1.56828 1.56828
  Final line search alpha, max atom move = 2.3754e-10 3.72529e-10
  Iterations, force evaluations = 1 56

MPI task timing breakdown:
Section |  min time  |  avg time  |  max time  |%varavg| %total
---------------------------------------------------------------
Pair    | 0.0097716  | 0.0097716  | 0.0097716  |   0.0 | 65.37
Bond    | 0.0043443  | 0.0043443  | 0.0043443  |   0.0 | 29.06
Neigh   | 0          | 0          | 0          |   0.0 |  0.00
Comm    | 0.00044012 | 0.00044012 | 0.00044012 |   0.0 |  2.94
Output  | 0          | 0          | 0          |   0.0 |  0.00
Modify  | 0          | 0          | 0          |   0.0 |  0.00
Other   |            | 0.0003918  |            |       |  2.62

Nlocal:    180 ave 180 max 180 min
Histogram: 1 0 0 0 0 0 0 0 0 0
Nghost:    1705 ave 1705 max 1705 min
Histogram: 1 0 0 0 0 0 0 0 0 0
Neighs:    13885 ave 13885 max 13885 min
Histogram: 1 0 0 0 0 0 0 0 0 0

Total # of neighbors = 13885
Ave neighs/atom = 77.1389
Ave special neighs/atom = 6.35556
Neighbor list builds = 0
Dangerous builds = 0
variable        AtomMinStep equal ${tempstp}
variable        AtomMinStep equal 406
variable        temppe     equal $(pe)
variable        temppe     equal 2594.1465715138238011
variable        min_E      equal abs(${prev_E}-${temppe})
variable        min_E      equal abs(2594.14657151382-${temppe})
variable        min_E      equal abs(2594.14657151382-2594.14657151382)
print           "${iter},${CellMinStep},${AtomMinStep},${AtomMinStep},$(pe),${min_E},$(vol),$(lx),$(ly),$(lz),$(xy),$(xz),$(yz)" append NiPyC2_relax_sc211_ortho_functionalized_CH2-CH2-CH3.min.csv screen no
if              "${min_E} < ${min_eval}" then "jump SELF break_min"
jump SELF break_min
undump          NiPyC2_relax_sc211_ortho_functionalized_CH2-CH2-CH3_xyzmov

# Dump last snapshot for restart
variable curr_lx equal lx
variable curr_ly equal ly
variable curr_lz equal lz
change_box all x final 0 ${curr_lx} y final 0 ${curr_ly} z final 0 ${curr_lz}
change_box all x final 0 12.5056 y final 0 ${curr_ly} z final 0 ${curr_lz}
change_box all x final 0 12.5056 y final 0 12.5234 z final 0 ${curr_lz}
change_box all x final 0 12.5056 y final 0 12.5234 z final 0 10.274279
  triclinic box = (0 0 0) to (12.5056 12.5234 10.2743) with tilt (0 -0.227594 0)
  triclinic box = (0 0 0) to (12.5056 12.5234 10.2743) with tilt (0 -0.227594 0)
  triclinic box = (0 0 0) to (12.5056 12.5234 10.2743) with tilt (0 -0.227594 0)

reset_timestep 0
dump            NiPyC2_relax_sc211_ortho_functionalized_CH2-CH2-CH3_restart all atom 1 NiPyC2_relax_sc211_ortho_functionalized_CH2-CH2-CH3_restart.lammpstrj
dump_modify     NiPyC2_relax_sc211_ortho_functionalized_CH2-CH2-CH3_restart scale no sort id
run 0
WARNING: No fixes defined, atoms won't move (src/verlet.cpp:52)
WARNING: Inconsistent image flags (src/domain.cpp:785)
WARNING: Bond/angle/dihedral extent > half of periodic box length (src/domain.cpp:906)
Per MPI rank memory allocation (min/avg/max) = 16.44 | 16.44 | 16.44 Mbytes
Step Temp E_pair E_mol TotEng Press 
       0            0    301.14904    2292.9975    2594.1466   -15901.067 
WARNING: Bond/angle/dihedral extent > half of periodic box length (src/domain.cpp:906)
Loop time of 1.06799e-06 on 1 procs for 0 steps with 180 atoms

374.5% CPU use with 1 MPI tasks x 1 OpenMP threads

MPI task timing breakdown:
Section |  min time  |  avg time  |  max time  |%varavg| %total
---------------------------------------------------------------
Pair    | 0          | 0          | 0          |   0.0 |  0.00
Bond    | 0          | 0          | 0          |   0.0 |  0.00
Neigh   | 0          | 0          | 0          |   0.0 |  0.00
Comm    | 0          | 0          | 0          |   0.0 |  0.00
Output  | 0          | 0          | 0          |   0.0 |  0.00
Modify  | 0          | 0          | 0          |   0.0 |  0.00
Other   |            | 1.068e-06  |            |       |100.00

Nlocal:    180 ave 180 max 180 min
Histogram: 1 0 0 0 0 0 0 0 0 0
Nghost:    1705 ave 1705 max 1705 min
Histogram: 1 0 0 0 0 0 0 0 0 0
Neighs:    13885 ave 13885 max 13885 min
Histogram: 1 0 0 0 0 0 0 0 0 0

Total # of neighbors = 13885
Ave neighs/atom = 77.1389
Ave special neighs/atom = 6.35556
Neighbor list builds = 0
Dangerous builds = 0
undump          NiPyC2_relax_sc211_ortho_functionalized_CH2-CH2-CH3_restart
Total wall time: 0:00:00
