ITEM: TIMESTEP
0
ITEM: NUMBER OF ATOMS
180
ITEM: BOX BOUNDS xy xz yz pp pp pp
-2.2759399999999999e-01 1.2505599999999999e+01 0.0000000000000000e+00
0.0000000000000000e+00 1.2523400000000001e+01 -2.2759399999999999e-01
0.0000000000000000e+00 1.0274279000000000e+01 0.0000000000000000e+00
ITEM: ATOMS id type x y z
1 1 2.92826 9.48827 8.59676
2 1 6.40518 3.3372 3.7592
3 2 1.49429 4.14675 3.62494
4 2 4.50997 8.5495 8.86829
5 2 4.85602 2.39825 3.86095
6 2 1.35076 10.4095 8.74784
7 2 5.98202 4.39938 5.02505
8 2 2.624 8.32686 9.95051
9 2 0.324495 1.87395 4.52183
10 2 3.27704 10.6523 9.79059
11 3 3.63337 10.7285 7.226
12 3 0.66072 2.00441 1.88244
13 3 2.18215 8.22391 7.14133
14 3 5.75931 4.72366 2.49048
15 4 3.30982 12.4636 5.62716
16 4 0.250806 0.0158892 0.48632
17 4 4.75006 0.246423 5.49665
18 4 1.62562 12.2772 0.319677
19 4 5.57171 11.8226 6.14854
20 4 2.48417 0.477365 1.13381
21 4 2.37508 6.94239 5.03231
22 4 6.20239 6.30867 0.750826
23 5 3.0517 6.58544 4.29774
24 4 2.82841 7.98968 5.93679
25 4 6.62257 5.57646 1.89899
26 5 3.77432 8.47228 5.73965
27 5 1.1194 5.63086 2.05003
28 4 2.92338 11.8101 6.81385
29 4 12.3031 1.21072 1.15406
30 5 1.92023 11.9351 7.14919
31 5 6.04044 2.88221 0.655674
32 4 4.98586 10.7448 6.91679
33 4 2.01619 1.67009 1.83802
34 5 5.63539 10.0074 7.3348
35 5 2.71622 2.23936 2.42803
36 4 0.851992 7.80687 7.17844
37 4 4.46743 5.19059 2.55385
38 5 0.146685 8.38301 7.73871
39 5 3.77455 4.71462 3.21974
40 4 0.367516 6.70761 6.34313
41 4 4.10068 6.43779 1.89878
42 5 3.19442 6.95215 2.18203
43 4 1.15436 6.23827 5.25511
44 4 4.86633 6.92652 0.800705
45 4 5.42447 1.59419 4.81394
46 4 1.99139 11.0946 9.71326
47 4 0.783351 4.81627 4.57396
48 4 3.92835 7.91809 9.93557
49 1 9.22995 9.75338 8.74367
50 1 -0.0451504 3.17918 3.35596
51 2 7.94488 4.28096 4.03486
52 2 10.6976 8.7387 9.02001
53 2 10.9291 2.19607 3.45256
54 2 7.76908 10.8203 8.86164
55 2 12.052 4.25004 4.64877
56 2 8.76525 8.64409 10.1128
57 2 6.72587 2.00322 4.97787
58 2 9.69769 10.9853 9.94603
59 3 9.94717 10.8994 7.26494
60 3 7.17394 2.17574 2.29605
61 3 8.51374 8.44514 7.39004
62 3 11.7793 4.59207 2.11607
63 4 9.87771 11.9499 5.03013
64 4 7.10835 1.02434 0.105038
65 5 9.55514 11.8435 4.01781
66 5 12.0462 11.8004 0.196161
67 4 10.8595 0.395962 5.38261
68 4 8.17503 0.167151 0.458211
69 4 11.2727 0.338688 6.72479
70 4 8.78911 0.421909 1.6935
71 5 6.64326 11.9194 6.09239
72 5 9.68676 12.4047 1.95143
73 4 8.76639 7.05449 5.36244
74 4 12.1791 6.56468 0.785708
75 5 9.34611 6.80722 4.48492
76 4 9.24116 8.07401 6.26943
77 4 0.0974602 5.61378 1.74379
78 5 10.2222 8.49828 6.10644
79 5 7.63966 5.44924 2.09311
80 4 9.31659 11.0726 6.04169
81 4 6.77325 2.16655 0.970705
82 5 8.4221 10.5163 5.81139
83 5 11.2581 1.46883 1.10795
84 4 11.0401 11.6759 7.4954
85 4 8.24022 1.3719 2.61933
86 5 11.6207 11.495 8.37026
87 5 8.65354 1.43432 3.608
88 4 7.25274 7.91362 7.53231
89 4 10.4405 4.94315 2.12306
90 5 6.6629 8.26542 8.34032
91 5 9.72836 4.27196 2.55408
92 4 6.78825 6.81636 6.69331
93 4 10.0029 6.25456 1.62626
94 5 9.16106 6.75851 2.06072
95 4 7.61671 6.30356 5.67404
96 4 10.8276 6.98856 0.757967
97 4 11.5692 1.3915 4.35147
98 4 8.48817 11.5428 9.78988
99 4 7.22524 4.93974 4.96773
100 4 10.0295 8.14765 10.0679
101 6 2.49777 11.9464 4.43679
102 6 1.25836 11.0665 4.72129
103 5 3.14548 11.248 3.87925
104 5 2.14757 0.28893 3.87399
105 6 0.522635 10.6567 3.45022
106 5 0.564568 11.6 5.37588
107 5 1.55882 10.143 5.24332
108 5 0.0302548 11.5388 3.00051
109 5 12.2428 9.91254 3.70095
110 5 1.22276 10.2 2.71871
111 6 3.78563 12.2901 1.41153
112 6 4.75144 0.16621 2.37695
113 5 4.36843 12.3633 0.500921
114 5 3.52644 11.243 1.6973
115 6 5.80313 11.5991 2.67051
116 5 4.17162 0.40358 3.18537
117 5 5.10069 1.09411 2.04441
118 5 5.33058 10.7229 3.16241
119 5 6.58103 11.975 3.3586
120 5 6.2786 11.243 1.73436
121 6 11.6264 5.8717 6.63618
122 6 10.554 5.76619 7.71017
123 5 12.0769 4.87407 6.731
124 5 11.0476 5.96387 5.70416
125 6 10.8023 4.62971 8.69461
126 5 9.60368 5.502 7.22262
127 5 10.3625 6.69818 8.17321
128 5 10.4032 3.74025 8.23926
129 5 10.3671 4.77224 9.68332
130 5 11.8463 4.42571 8.82923
131 6 6.3877 5.62251 9.80159
132 6 7.80766 5.07067 9.67707
133 5 5.712 4.75758 9.74487
134 5 6.24648 6.35546 9.07164
135 6 7.87375 3.84508 8.77085
136 5 8.44899 5.88602 9.30793
137 5 8.42662 4.68919 0.34915
138 5 7.94151 4.09539 7.69599
139 5 8.65272 3.13532 9.10164
140 5 7.0187 3.23153 8.94309
141 6 11.455 1.60218 7.45761
142 6 0.296188 1.63701 8.12722
143 5 10.6663 1.62658 8.24193
144 5 11.3231 2.47695 6.78576
145 6 1.37173 2.16707 7.23568
146 5 0.612958 0.630889 8.39791
147 5 0.218955 2.23122 9.04749
148 5 1.12112 3.16947 6.85145
149 5 1.53024 1.50465 6.39255
150 5 2.28354 2.15379 7.84234
151 6 6.04536 0.615694 9.19432
152 6 4.79147 1.42297 8.86928
153 5 6.72604 0.557838 8.31946
154 5 5.723 12.0903 9.35634
155 6 5.05362 2.39265 7.74546
156 5 4.00517 0.723124 8.55516
157 5 4.3391 1.93878 9.73785
158 5 4.26771 2.33327 6.98055
159 5 5.07969 3.38443 8.18599
160 5 6.02611 2.25643 7.2494
161 6 5.44285 6.11296 6.82487
162 6 4.20207 5.90234 7.65397
163 5 5.83475 5.11296 7.07429
164 5 5.01252 6.28862 5.8146
165 6 3.26301 4.88298 7.02416
166 5 3.74595 6.80915 7.74057
167 5 4.26257 5.60461 8.68474
168 5 3.5182 4.56053 5.99273
169 5 2.2397 5.20643 7.10046
170 5 3.19927 4.0358 7.67852
171 6 0.308468 6.80156 9.92974
172 6 1.56233 5.92123 9.83848
173 5 0.487354 7.88451 9.94917
174 5 12.2841 6.63561 9.04616
175 6 1.55857 4.40185 9.88037
176 5 2.36781 6.18509 0.394591
177 5 2.06775 6.2365 8.9468
178 5 1.00268 3.94365 0.220007
179 5 2.54394 4.02064 10.2271
180 5 1.41412 4.06391 8.86845
