ITEM: TIMESTEP
0
ITEM: NUMBER OF ATOMS
180
ITEM: BOX BOUNDS xy xz yz pp pp pp
-2.2759399999999999e-01 1.2505599999999999e+01 0.0000000000000000e+00
0.0000000000000000e+00 1.2523400000000001e+01 -2.2759399999999999e-01
0.0000000000000000e+00 1.0274279000000000e+01 0.0000000000000000e+00
ITEM: ATOMS id type x y z
1 1 2.99437 9.3821 8.42304
2 1 5.68633 3.40214 3.69114
3 2 1.79376 4.01379 3.61269
4 2 4.38437 8.15927 8.39849
5 2 4.17441 2.33519 3.69835
6 2 1.66315 10.5615 8.72115
7 2 5.0482 4.80781 4.70966
8 2 2.74559 8.37174 9.7986
9 2 0.896562 1.73078 4.848
10 2 3.60174 10.6197 9.54345
11 3 3.55319 10.4975 6.961
12 3 0.971513 1.6933 2.07333
13 3 2.05206 8.08192 7.22198
14 3 5.28618 4.4391 2.0325
15 4 2.96079 0.0997566 5.89513
16 4 1.72059 1.19962 10.1233
17 5 2.37704 0.910798 6.2793
18 5 6.47857 0.890235 9.66533
19 4 4.27057 0.382318 5.49799
20 4 2.36519 12.4351 0.23417
21 4 5.23339 11.9948 6.03224
22 4 2.36028 12.2036 1.59892
23 5 0.36208 0.380096 7.56231
24 5 2.81466 11.3037 1.9949
25 4 2.13217 6.99379 5.00284
26 4 5.63296 6.56877 0.978722
27 5 2.25258 7.10347 3.93454
28 5 11.1298 5.25156 9.53688
29 4 2.26327 8.14079 5.84576
30 4 6.17348 5.34366 1.48225
31 5 2.53674 9.05244 5.36756
32 5 0.700765 4.4285 0.881789
33 4 2.61971 11.3015 6.3239
34 4 0.965409 1.88753 0.663748
35 5 1.58264 11.0051 6.31712
36 5 5.24843 2.00734 1.05676
37 4 4.83034 10.9809 7.0005
38 4 1.78814 0.630183 2.49347
39 5 2.03225 0.490342 3.51061
40 4 1.66127 6.83105 7.73169
41 4 4.06417 4.35446 1.39817
42 5 3.39653 3.53757 1.62038
43 4 1.81133 5.6508 6.9305
44 4 3.75697 5.24732 0.30673
45 5 5.60118 6.2152 7.26507
46 5 2.75363 4.98549 9.88361
47 4 1.84156 5.73884 5.53776
48 4 4.48984 6.46317 0.154655
49 4 4.66255 1.79324 4.85979
50 4 2.49842 11.2961 9.48866
51 4 1.22099 4.62113 4.67748
52 4 3.76554 7.61151 9.49629
53 1 9.18319 9.56704 9.00817
54 1 0.313669 2.95307 3.62298
55 2 7.10931 4.45112 4.00274
56 2 10.4122 8.28165 9.22414
57 2 11.4007 1.87064 3.96134
58 2 8.01802 10.9482 9.07969
59 2 0.0548192 4.03555 4.95678
60 2 8.74831 8.37903 0.036356
61 2 5.79103 2.43241 5.14849
62 2 9.82781 10.6946 0.159832
63 3 10.1875 10.7178 7.70933
64 3 6.66941 1.9625 2.64103
65 3 8.29882 8.39195 7.48588
66 3 11.8017 4.3163 2.45235
67 4 10.4438 11.8032 5.50516
68 4 7.00578 0.895563 0.423456
69 5 10.1664 11.7467 4.4735
70 5 1.85716 1.50179 9.09232
71 4 11.6002 0.00388794 5.84818
72 4 8.09712 0.0921596 0.842621
73 4 11.995 12.3712 7.21717
74 4 8.49163 0.303722 2.1821
75 5 6.26133 12.0749 5.76522
76 5 9.30364 12.2515 2.55861
77 4 7.90213 7.46606 5.19959
78 4 11.3257 5.43015 0.317571
79 5 8.11284 7.55302 4.14825
80 5 6.25045 7.45175 0.955221
81 4 8.76669 8.16895 6.17138
82 4 12.2146 4.69024 1.20779
83 4 9.66013 11.0737 6.48867
84 4 6.21846 1.65956 1.36788
85 5 8.66325 10.7565 6.22725
86 4 11.2528 11.4797 8.15731
87 4 7.79304 1.22564 3.09384
88 4 7.21745 7.5792 7.86181
89 4 10.8023 5.16631 3.00879
90 5 6.91841 7.53006 8.88589
91 4 6.50391 6.7067 6.94377
92 4 10.2461 6.30191 2.21531
93 5 1.6375 4.67966 7.38075
94 5 9.60514 7.0229 2.68822
95 4 6.9096 6.53 5.62652
96 4 10.421 6.39213 0.816862
97 4 12.1549 1.17813 4.85814
98 4 8.57424 11.5062 10.1447
99 4 6.33439 5.31396 4.70514
100 4 9.66542 7.64938 10.164
101 6 5.7637 10.7059 8.20426
102 6 5.8604 10.0014 9.72302
103 5 6.05375 11.7481 8.41116
104 5 6.54074 10.1832 7.62079
105 6 5.82171 10.701 0.812079
106 5 6.7427 9.4484 9.83314
107 5 5.39741 9.11718 9.93004
108 5 6.70693 10.6646 1.47325
109 5 5.06846 10.1309 1.40541
110 5 5.35863 11.69 0.703699
111 6 11.9815 2.19431 10.1611
112 6 10.8963 1.88855 0.575481
113 5 12.0672 3.1497 9.62269
114 5 11.9465 1.57992 9.24767
115 6 9.83674 2.87725 0.193284
116 5 10.5734 0.885074 0.25278
117 5 10.9815 1.88667 1.66823
118 5 8.90695 2.3636 0.0226718
119 5 9.6917 3.57288 1.03195
120 5 9.83772 3.41424 9.53361
121 6 0.674063 6.67945 8.89107
122 6 0.522679 7.59366 10.1301
123 5 0.78207 5.64924 9.25942
124 5 12.2081 6.74468 8.37564
125 6 1.36388 7.25958 1.24328
126 5 0.628324 8.60393 9.78484
127 5 12.2845 7.65819 0.150276
128 5 2.00223 8.07844 1.63585
129 5 1.88383 6.31348 1.27741
130 5 0.579829 7.12315 2.00309
131 6 7.21475 4.75841 0.591493
132 6 6.31139 4.32682 9.53736
133 5 7.62291 3.89468 1.12274
134 5 8.00581 5.50116 0.387043
135 6 7.22359 3.84851 8.46089
136 5 5.81424 5.18021 9.08432
137 5 5.54324 3.54815 9.70374
138 5 6.71281 3.92857 7.47998
139 5 7.38021 2.77839 8.6398
140 5 8.15437 4.45073 8.4253
141 6 11.8493 11.2028 9.54428
142 6 12.2475 10.5176 0.702642
143 5 -0.015265 12.0376 9.64088
144 5 12.1213 10.2534 9.08817
145 6 11.8398 11.2639 1.96734
146 5 0.804239 10.2542 0.852415
147 5 11.7147 9.56239 0.771572
148 5 0.0764899 11.0927 2.77318
149 5 10.898 10.8463 2.3632
150 5 11.7433 12.3319 1.80498
151 6 8.24124 1.08455 4.57966
152 6 8.01632 1.78282 5.95829
153 5 8.0891 0.0132733 4.78181
154 5 9.29875 1.26621 4.45425
155 6 9.08664 1.61454 7.03916
156 5 7.87466 2.8437 5.78028
157 5 7.1456 1.36049 6.48782
158 5 10.0669 1.56024 6.63697
159 5 9.2065 2.52218 7.63029
160 5 8.87351 0.771901 7.72749
161 6 10.2576 8.04214 5.90271
162 6 10.9166 8.99841 4.90692
163 5 10.8413 8.01024 6.84084
164 5 10.3297 7.08679 5.39325
165 6 11.8914 8.37812 3.91486
166 5 10.1284 9.51701 4.32276
167 5 11.5691 9.65775 5.50756
168 5 0.344834 8.93765 3.90771
169 5 12.1116 7.31801 4.14193
170 5 11.4799 8.47521 2.89417
171 6 9.885 4.67898 4.12918
172 6 10.104 4.3414 5.63723
173 5 9.39395 3.784 3.69439
174 5 9.123 5.45436 4.19665
175 6 10.9216 5.12112 6.67382
176 5 10.4516 3.31471 5.65918
177 5 9.10448 4.38813 6.09165
178 5 11.4443 4.40084 7.33979
179 5 10.255 5.72251 7.32929
180 5 11.6901 5.77135 6.2314
