LAMMPS (3 Mar 2020)
OMP_NUM_THREADS environment is not set. Defaulting to 1 thread. (src/comm.cpp:94)
  using 1 OpenMP thread(s) per MPI task
log             log.NiPyC2_relax_sc211_ortho_functionalized_O-CH2-CH2-CH3 append
