units           real
atom_style      full
boundary        p p p

pair_style      lj/cut 5.000
bond_style      harmonic
angle_style     hybrid fourier cosine/periodic
dihedral_style  harmonic
improper_style  fourier

special_bonds   lj/coul 0.0 0.0 1.0
pair_modify     tail yes mix arithmetic
dielectric      1.0
box tilt        large
read_data       data.NiPyC2_relax_sc211_meta_functionalized_O-CH2-CH2-CH3
  triclinic box = (0 0 0) to (12.5056 12.5234 10.2743) with tilt (0 -0.227594 0)
  1 by 1 by 1 MPI processor grid
  reading atoms ...
  188 atoms
  scanning bonds ...
  6 = max bonds/atom
  scanning angles ...
  15 = max angles/atom
  scanning dihedrals ...
  10 = max dihedrals/atom
  scanning impropers ...
  3 = max impropers/atom
  reading bonds ...
  204 bonds
  reading angles ...
  387 angles
  reading dihedrals ...
  428 dihedrals
  reading impropers ...
  171 impropers
  6 = max # of 1-2 neighbors
  9 = max # of 1-3 neighbors
  12 = max # of special neighbors
  special bonds CPU = 0.000140102 secs
  read_data CPU = 0.00774768 secs

#### Atom Groupings ####
group           1        id   185:188
4 atoms in group 1
group           1-1      id   185
1 atoms in group 1-1
group           1-2      id   186
1 atoms in group 1-2
group           1-3      id   187
1 atoms in group 1-3
group           1-4      id   188
1 atoms in group 1-4
group           fram     id   1:184
184 atoms in group fram
#### END Atom Groupings ####

dump            NiPyC2_relax_sc211_meta_functionalized_O-CH2-CH2-CH3_xyzmov all xyz 20000 NiPyC2_relax_sc211_meta_functionalized_O-CH2-CH2-CH3_mov.xyz
dump_modify     NiPyC2_relax_sc211_meta_functionalized_O-CH2-CH2-CH3_xyzmov element Ni O N C H O C C C H
min_style       cg
print           "MinStep,CellMinStep,AtomMinStep,FinalStep,Energy,EDiff" file NiPyC2_relax_sc211_meta_functionalized_O-CH2-CH2-CH3.min.csv screen no
variable        min_eval   equal 1.00e-06
variable        prev_E     equal 50000.00
variable        iter       loop 100000
label           loop_min
min_style       cg
fix             1 all box/relax aniso 0.0 vmax 0.01
minimize        1.0e-15 1.0e-15 10000 100000
WARNING: Using 'neigh_modify every 1 delay 0 check yes' setting during minimization (src/min.cpp:190)
Neighbor list info ...
  update every 1 steps, delay 0 steps, check yes
  max neighbors/atom: 2000, page size: 100000
  master list distance cutoff = 7
  ghost atom cutoff = 7
  binsize = 3.5, bins = 4 4 3
  1 neighbor lists, perpetual/occasional/extra = 1 0 0
  (1) pair lj/cut, perpetual
      attributes: half, newton on
      pair build: half/bin/newton/tri
      stencil: half/bin/3d/newton/tri
      bin: standard
WARNING: Inconsistent image flags (src/domain.cpp:785)
WARNING: Bond/angle/dihedral extent > half of periodic box length (src/domain.cpp:906)
Per MPI rank memory allocation (min/avg/max) = 17.57 | 17.57 | 17.57 Mbytes
Step Temp E_pair E_mol TotEng Press Volume 
       0            0 1.0969837e+11    2399.2699 1.0969837e+11 1.8698491e+13    1609.0819 
    1044            0    177.05449    1762.4592    1939.5137    716.69689    1677.5548 
WARNING: Bond/angle/dihedral extent > half of periodic box length (src/domain.cpp:906)
Loop time of 0.501928 on 1 procs for 1044 steps with 188 atoms

100.0% CPU use with 1 MPI tasks x 1 OpenMP threads

Minimization stats:
  Stopping criterion = linesearch alpha is zero
  Energy initial, next-to-last, final = 
          109698372177      1939.51371423      1939.51371423
  Force two-norm initial, final = 5.80121e+12 88.9328
  Force max component initial, final = 3.27376e+12 44.4933
  Final line search alpha, max atom move = 8.85953e-13 3.9419e-11
  Iterations, force evaluations = 1044 1838

MPI task timing breakdown:
Section |  min time  |  avg time  |  max time  |%varavg| %total
---------------------------------------------------------------
Pair    | 0.27798    | 0.27798    | 0.27798    |   0.0 | 55.38
Bond    | 0.13784    | 0.13784    | 0.13784    |   0.0 | 27.46
Neigh   | 0.029532   | 0.029532   | 0.029532   |   0.0 |  5.88
Comm    | 0.013015   | 0.013015   | 0.013015   |   0.0 |  2.59
Output  | 0          | 0          | 0          |   0.0 |  0.00
Modify  | 0          | 0          | 0          |   0.0 |  0.00
Other   |            | 0.04356    |            |       |  8.68

Nlocal:    188 ave 188 max 188 min
Histogram: 1 0 0 0 0 0 0 0 0 0
Nghost:    1738 ave 1738 max 1738 min
Histogram: 1 0 0 0 0 0 0 0 0 0
Neighs:    14648 ave 14648 max 14648 min
Histogram: 1 0 0 0 0 0 0 0 0 0

Total # of neighbors = 14648
Ave neighs/atom = 77.9149
Ave special neighs/atom = 6.11702
Neighbor list builds = 40
Dangerous builds = 0
unfix           1
min_style       fire
variable        tempstp    equal $(step)
variable        tempstp    equal 1044
variable        CellMinStep equal ${tempstp}
variable        CellMinStep equal 1044
minimize        1.0e-15 1.0e-15 10000 100000
WARNING: Using 'neigh_modify every 1 delay 0 check yes' setting during minimization (src/min.cpp:190)
  Parameters for fire: 
    dmax delaystep dtgrow dtshrink alpha0 alphashrink tmax tmin    integrator halfstepback 
     0.1        20    1.1      0.5   0.25        0.99   10 0.02 eulerimplicit          yes 
WARNING: Inconsistent image flags (src/domain.cpp:785)
WARNING: Bond/angle/dihedral extent > half of periodic box length (src/domain.cpp:906)
Per MPI rank memory allocation (min/avg/max) = 16.44 | 16.44 | 16.44 Mbytes
Step Temp E_pair E_mol TotEng Press 
    1044            0    177.05449    1762.4592    1939.5137    716.69689 
    4680 7.6063499e-11    159.07008    1748.3207    1907.3907   -2826.6341 
WARNING: Bond/angle/dihedral extent > half of periodic box length (src/domain.cpp:906)
Loop time of 0.860495 on 1 procs for 3636 steps with 188 atoms

100.1% CPU use with 1 MPI tasks x 1 OpenMP threads

Minimization stats:
  Stopping criterion = energy tolerance
  Energy initial, next-to-last, final = 
         1939.51371423      1907.39074099      1907.39074099
  Force two-norm initial, final = 67.0579 3.74085e-05
  Force max component initial, final = 13.0031 7.39907e-06
  Final line search alpha, max atom move = 0 0
  Iterations, force evaluations = 3636 3636

MPI task timing breakdown:
Section |  min time  |  avg time  |  max time  |%varavg| %total
---------------------------------------------------------------
Pair    | 0.56595    | 0.56595    | 0.56595    |   0.0 | 65.77
Bond    | 0.24832    | 0.24832    | 0.24832    |   0.0 | 28.86
Neigh   | 0.0020576  | 0.0020576  | 0.0020576  |   0.0 |  0.24
Comm    | 0.025093   | 0.025093   | 0.025093   |   0.0 |  2.92
Output  | 0          | 0          | 0          |   0.0 |  0.00
Modify  | 0          | 0          | 0          |   0.0 |  0.00
Other   |            | 0.01908    |            |       |  2.22

Nlocal:    188 ave 188 max 188 min
Histogram: 1 0 0 0 0 0 0 0 0 0
Nghost:    1758 ave 1758 max 1758 min
Histogram: 1 0 0 0 0 0 0 0 0 0
Neighs:    14513 ave 14513 max 14513 min
Histogram: 1 0 0 0 0 0 0 0 0 0

Total # of neighbors = 14513
Ave neighs/atom = 77.1968
Ave special neighs/atom = 6.11702
Neighbor list builds = 2
Dangerous builds = 0
variable        AtomMinStep equal ${tempstp}
variable        AtomMinStep equal 1044
variable        temppe     equal $(pe)
variable        temppe     equal 1907.3907409949488283
variable        min_E      equal abs(${prev_E}-${temppe})
variable        min_E      equal abs(50000-${temppe})
variable        min_E      equal abs(50000-1907.39074099495)
print           "${iter},${CellMinStep},${AtomMinStep},${AtomMinStep},$(pe),${min_E}" append NiPyC2_relax_sc211_meta_functionalized_O-CH2-CH2-CH3.min.csv screen no
if              "${min_E} < ${min_eval}" then "jump SELF break_min"
variable        prev_E     equal ${temppe}
variable        prev_E     equal 1907.39074099495
next            iter
jump            SELF loop_min
min_style       cg
fix             1 all box/relax aniso 0.0 vmax 0.01
minimize        1.0e-15 1.0e-15 10000 100000
WARNING: Using 'neigh_modify every 1 delay 0 check yes' setting during minimization (src/min.cpp:190)
WARNING: Inconsistent image flags (src/domain.cpp:785)
WARNING: Bond/angle/dihedral extent > half of periodic box length (src/domain.cpp:906)
Per MPI rank memory allocation (min/avg/max) = 17.57 | 17.57 | 17.57 Mbytes
Step Temp E_pair E_mol TotEng Press Volume 
    4680 7.6063499e-11    159.07008    1748.3207    1907.3907   -2826.6341    1677.5548 
    4682 7.6063499e-11     163.5477    1743.5284    1907.0761    914.87679    1674.0531 
WARNING: Bond/angle/dihedral extent > half of periodic box length (src/domain.cpp:906)
Loop time of 0.0161791 on 1 procs for 2 steps with 188 atoms

100.1% CPU use with 1 MPI tasks x 1 OpenMP threads

Minimization stats:
  Stopping criterion = linesearch alpha is zero
  Energy initial, next-to-last, final = 
         1907.39074099      1907.07613607      1907.07613607
  Force two-norm initial, final = 247.117 52.7843
  Force max component initial, final = 242.225 44.8409
  Final line search alpha, max atom move = 3.35794e-12 1.50573e-10
  Iterations, force evaluations = 2 55

MPI task timing breakdown:
Section |  min time  |  avg time  |  max time  |%varavg| %total
---------------------------------------------------------------
Pair    | 0.0097348  | 0.0097348  | 0.0097348  |   0.0 | 60.17
Bond    | 0.0045081  | 0.0045081  | 0.0045081  |   0.0 | 27.86
Neigh   | 0          | 0          | 0          |   0.0 |  0.00
Comm    | 0.00041486 | 0.00041486 | 0.00041486 |   0.0 |  2.56
Output  | 0          | 0          | 0          |   0.0 |  0.00
Modify  | 0          | 0          | 0          |   0.0 |  0.00
Other   |            | 0.001521   |            |       |  9.40

Nlocal:    188 ave 188 max 188 min
Histogram: 1 0 0 0 0 0 0 0 0 0
Nghost:    1756 ave 1756 max 1756 min
Histogram: 1 0 0 0 0 0 0 0 0 0
Neighs:    14512 ave 14512 max 14512 min
Histogram: 1 0 0 0 0 0 0 0 0 0

Total # of neighbors = 14512
Ave neighs/atom = 77.1915
Ave special neighs/atom = 6.11702
Neighbor list builds = 0
Dangerous builds = 0
unfix           1
min_style       fire
variable        tempstp    equal $(step)
variable        tempstp    equal 4682
variable        CellMinStep equal ${tempstp}
variable        CellMinStep equal 4682
minimize        1.0e-15 1.0e-15 10000 100000
WARNING: Using 'neigh_modify every 1 delay 0 check yes' setting during minimization (src/min.cpp:190)
  Parameters for fire: 
    dmax delaystep dtgrow dtshrink alpha0 alphashrink tmax tmin    integrator halfstepback 
     0.1        20    1.1      0.5   0.25        0.99   10 0.02 eulerimplicit          yes 
WARNING: Inconsistent image flags (src/domain.cpp:785)
WARNING: Bond/angle/dihedral extent > half of periodic box length (src/domain.cpp:906)
Per MPI rank memory allocation (min/avg/max) = 16.44 | 16.44 | 16.44 Mbytes
Step Temp E_pair E_mol TotEng Press 
    4682            0     163.5477    1743.5284    1907.0761    914.87679 
    7003  1.10631e-10    162.01042    1744.9355    1906.9459   -678.97115 
WARNING: Bond/angle/dihedral extent > half of periodic box length (src/domain.cpp:906)
Loop time of 0.551049 on 1 procs for 2321 steps with 188 atoms

100.0% CPU use with 1 MPI tasks x 1 OpenMP threads

Minimization stats:
  Stopping criterion = energy tolerance
  Energy initial, next-to-last, final = 
         1907.07613607      1906.94591955      1906.94591955
  Force two-norm initial, final = 16.7001 4.34176e-05
  Force max component initial, final = 3.43778 9.09063e-06
  Final line search alpha, max atom move = 0 0
  Iterations, force evaluations = 2321 2321

MPI task timing breakdown:
Section |  min time  |  avg time  |  max time  |%varavg| %total
---------------------------------------------------------------
Pair    | 0.36366    | 0.36366    | 0.36366    |   0.0 | 65.99
Bond    | 0.15882    | 0.15882    | 0.15882    |   0.0 | 28.82
Neigh   | 0          | 0          | 0          |   0.0 |  0.00
Comm    | 0.016098   | 0.016098   | 0.016098   |   0.0 |  2.92
Output  | 0          | 0          | 0          |   0.0 |  0.00
Modify  | 0          | 0          | 0          |   0.0 |  0.00
Other   |            | 0.01247    |            |       |  2.26

Nlocal:    188 ave 188 max 188 min
Histogram: 1 0 0 0 0 0 0 0 0 0
Nghost:    1762 ave 1762 max 1762 min
Histogram: 1 0 0 0 0 0 0 0 0 0
Neighs:    14545 ave 14545 max 14545 min
Histogram: 1 0 0 0 0 0 0 0 0 0

Total # of neighbors = 14545
Ave neighs/atom = 77.367
Ave special neighs/atom = 6.11702
Neighbor list builds = 0
Dangerous builds = 0
variable        AtomMinStep equal ${tempstp}
variable        AtomMinStep equal 4682
variable        temppe     equal $(pe)
variable        temppe     equal 1906.9459195471490602
variable        min_E      equal abs(${prev_E}-${temppe})
variable        min_E      equal abs(1907.39074099495-${temppe})
variable        min_E      equal abs(1907.39074099495-1906.94591954715)
print           "${iter},${CellMinStep},${AtomMinStep},${AtomMinStep},$(pe),${min_E}" append NiPyC2_relax_sc211_meta_functionalized_O-CH2-CH2-CH3.min.csv screen no
if              "${min_E} < ${min_eval}" then "jump SELF break_min"
variable        prev_E     equal ${temppe}
variable        prev_E     equal 1906.94591954715
next            iter
jump            SELF loop_min
min_style       cg
fix             1 all box/relax aniso 0.0 vmax 0.01
minimize        1.0e-15 1.0e-15 10000 100000
WARNING: Using 'neigh_modify every 1 delay 0 check yes' setting during minimization (src/min.cpp:190)
WARNING: Inconsistent image flags (src/domain.cpp:785)
WARNING: Bond/angle/dihedral extent > half of periodic box length (src/domain.cpp:906)
Per MPI rank memory allocation (min/avg/max) = 17.57 | 17.57 | 17.57 Mbytes
Step Temp E_pair E_mol TotEng Press Volume 
    7003  1.10631e-10    162.01042    1744.9355    1906.9459   -678.97115    1674.0531 
    7010  1.10631e-10    162.56868    1744.0556    1906.6243   -367.29448    1673.8486 
WARNING: Bond/angle/dihedral extent > half of periodic box length (src/domain.cpp:906)
Loop time of 0.0191823 on 1 procs for 7 steps with 188 atoms

100.1% CPU use with 1 MPI tasks x 1 OpenMP threads

Minimization stats:
  Stopping criterion = linesearch alpha is zero
  Energy initial, next-to-last, final = 
         1906.94591955      1906.62429615      1906.62429615
  Force two-norm initial, final = 174.636 32.5959
  Force max component initial, final = 156.062 27.7817
  Final line search alpha, max atom move = 7.14272e-12 1.98437e-10
  Iterations, force evaluations = 7 65

MPI task timing breakdown:
Section |  min time  |  avg time  |  max time  |%varavg| %total
---------------------------------------------------------------
Pair    | 0.011666   | 0.011666   | 0.011666   |   0.0 | 60.82
Bond    | 0.0052223  | 0.0052223  | 0.0052223  |   0.0 | 27.22
Neigh   | 0          | 0          | 0          |   0.0 |  0.00
Comm    | 0.0005007  | 0.0005007  | 0.0005007  |   0.0 |  2.61
Output  | 0          | 0          | 0          |   0.0 |  0.00
Modify  | 0          | 0          | 0          |   0.0 |  0.00
Other   |            | 0.001793   |            |       |  9.35

Nlocal:    188 ave 188 max 188 min
Histogram: 1 0 0 0 0 0 0 0 0 0
Nghost:    1760 ave 1760 max 1760 min
Histogram: 1 0 0 0 0 0 0 0 0 0
Neighs:    14548 ave 14548 max 14548 min
Histogram: 1 0 0 0 0 0 0 0 0 0

Total # of neighbors = 14548
Ave neighs/atom = 77.383
Ave special neighs/atom = 6.11702
Neighbor list builds = 0
Dangerous builds = 0
unfix           1
min_style       fire
variable        tempstp    equal $(step)
variable        tempstp    equal 7010
variable        CellMinStep equal ${tempstp}
variable        CellMinStep equal 7010
minimize        1.0e-15 1.0e-15 10000 100000
WARNING: Using 'neigh_modify every 1 delay 0 check yes' setting during minimization (src/min.cpp:190)
  Parameters for fire: 
    dmax delaystep dtgrow dtshrink alpha0 alphashrink tmax tmin    integrator halfstepback 
     0.1        20    1.1      0.5   0.25        0.99   10 0.02 eulerimplicit          yes 
WARNING: Inconsistent image flags (src/domain.cpp:785)
WARNING: Bond/angle/dihedral extent > half of periodic box length (src/domain.cpp:906)
Per MPI rank memory allocation (min/avg/max) = 16.44 | 16.44 | 16.44 Mbytes
Step Temp E_pair E_mol TotEng Press 
    7010            0    162.56868    1744.0556    1906.6243   -367.29448 
    9295 7.9273701e-11    163.09552    1743.1216    1906.2171    313.71649 
WARNING: Bond/angle/dihedral extent > half of periodic box length (src/domain.cpp:906)
Loop time of 0.543216 on 1 procs for 2285 steps with 188 atoms

100.1% CPU use with 1 MPI tasks x 1 OpenMP threads

Minimization stats:
  Stopping criterion = energy tolerance
  Energy initial, next-to-last, final = 
         1906.62429615      1906.21714638      1906.21714638
  Force two-norm initial, final = 14.5931 3.53203e-05
  Force max component initial, final = 3.21354 7.54259e-06
  Final line search alpha, max atom move = 0 0
  Iterations, force evaluations = 2285 2285

MPI task timing breakdown:
Section |  min time  |  avg time  |  max time  |%varavg| %total
---------------------------------------------------------------
Pair    | 0.35785    | 0.35785    | 0.35785    |   0.0 | 65.88
Bond    | 0.15721    | 0.15721    | 0.15721    |   0.0 | 28.94
Neigh   | 0          | 0          | 0          |   0.0 |  0.00
Comm    | 0.015883   | 0.015883   | 0.015883   |   0.0 |  2.92
Output  | 0          | 0          | 0          |   0.0 |  0.00
Modify  | 0          | 0          | 0          |   0.0 |  0.00
Other   |            | 0.01228    |            |       |  2.26

Nlocal:    188 ave 188 max 188 min
Histogram: 1 0 0 0 0 0 0 0 0 0
Nghost:    1766 ave 1766 max 1766 min
Histogram: 1 0 0 0 0 0 0 0 0 0
Neighs:    14547 ave 14547 max 14547 min
Histogram: 1 0 0 0 0 0 0 0 0 0

Total # of neighbors = 14547
Ave neighs/atom = 77.3777
Ave special neighs/atom = 6.11702
Neighbor list builds = 0
Dangerous builds = 0
variable        AtomMinStep equal ${tempstp}
variable        AtomMinStep equal 7010
variable        temppe     equal $(pe)
variable        temppe     equal 1906.2171463770735045
variable        min_E      equal abs(${prev_E}-${temppe})
variable        min_E      equal abs(1906.94591954715-${temppe})
variable        min_E      equal abs(1906.94591954715-1906.21714637707)
print           "${iter},${CellMinStep},${AtomMinStep},${AtomMinStep},$(pe),${min_E}" append NiPyC2_relax_sc211_meta_functionalized_O-CH2-CH2-CH3.min.csv screen no
if              "${min_E} < ${min_eval}" then "jump SELF break_min"
variable        prev_E     equal ${temppe}
variable        prev_E     equal 1906.21714637707
next            iter
jump            SELF loop_min
min_style       cg
fix             1 all box/relax aniso 0.0 vmax 0.01
minimize        1.0e-15 1.0e-15 10000 100000
WARNING: Using 'neigh_modify every 1 delay 0 check yes' setting during minimization (src/min.cpp:190)
WARNING: Inconsistent image flags (src/domain.cpp:785)
WARNING: Bond/angle/dihedral extent > half of periodic box length (src/domain.cpp:906)
Per MPI rank memory allocation (min/avg/max) = 17.57 | 17.57 | 17.57 Mbytes
Step Temp E_pair E_mol TotEng Press Volume 
    9295 7.9273701e-11    163.09552    1743.1216    1906.2171    313.71649    1673.8486 
    9298 7.9273701e-11    163.54045    1742.6203    1906.1607    361.20141    1673.6498 
WARNING: Bond/angle/dihedral extent > half of periodic box length (src/domain.cpp:906)
Loop time of 0.0153195 on 1 procs for 3 steps with 188 atoms

100.0% CPU use with 1 MPI tasks x 1 OpenMP threads

Minimization stats:
  Stopping criterion = linesearch alpha is zero
  Energy initial, next-to-last, final = 
         1906.21714638      1906.16073114      1906.16073114
  Force two-norm initial, final = 118.058 19.2004
  Force max component initial, final = 87.7447 11.6471
  Final line search alpha, max atom move = 8.48758e-11 9.88558e-10
  Iterations, force evaluations = 3 55

MPI task timing breakdown:
Section |  min time  |  avg time  |  max time  |%varavg| %total
---------------------------------------------------------------
Pair    | 0.0093095  | 0.0093095  | 0.0093095  |   0.0 | 60.77
Bond    | 0.0042207  | 0.0042207  | 0.0042207  |   0.0 | 27.55
Neigh   | 0          | 0          | 0          |   0.0 |  0.00
Comm    | 0.00038348 | 0.00038348 | 0.00038348 |   0.0 |  2.50
Output  | 0          | 0          | 0          |   0.0 |  0.00
Modify  | 0          | 0          | 0          |   0.0 |  0.00
Other   |            | 0.001406   |            |       |  9.18

Nlocal:    188 ave 188 max 188 min
Histogram: 1 0 0 0 0 0 0 0 0 0
Nghost:    1766 ave 1766 max 1766 min
Histogram: 1 0 0 0 0 0 0 0 0 0
Neighs:    14554 ave 14554 max 14554 min
Histogram: 1 0 0 0 0 0 0 0 0 0

Total # of neighbors = 14554
Ave neighs/atom = 77.4149
Ave special neighs/atom = 6.11702
Neighbor list builds = 0
Dangerous builds = 0
unfix           1
min_style       fire
variable        tempstp    equal $(step)
variable        tempstp    equal 9298
variable        CellMinStep equal ${tempstp}
variable        CellMinStep equal 9298
minimize        1.0e-15 1.0e-15 10000 100000
WARNING: Using 'neigh_modify every 1 delay 0 check yes' setting during minimization (src/min.cpp:190)
  Parameters for fire: 
    dmax delaystep dtgrow dtshrink alpha0 alphashrink tmax tmin    integrator halfstepback 
     0.1        20    1.1      0.5   0.25        0.99   10 0.02 eulerimplicit          yes 
WARNING: Inconsistent image flags (src/domain.cpp:785)
WARNING: Bond/angle/dihedral extent > half of periodic box length (src/domain.cpp:906)
Per MPI rank memory allocation (min/avg/max) = 16.44 | 16.44 | 16.44 Mbytes
Step Temp E_pair E_mol TotEng Press 
    9298            0    163.54045    1742.6203    1906.1607    361.20141 
   10888 7.1449549e-11    163.62801    1742.4588    1906.0868    692.62943 
WARNING: Bond/angle/dihedral extent > half of periodic box length (src/domain.cpp:906)
Loop time of 0.377342 on 1 procs for 1590 steps with 188 atoms

100.0% CPU use with 1 MPI tasks x 1 OpenMP threads

Minimization stats:
  Stopping criterion = energy tolerance
  Energy initial, next-to-last, final = 
         1906.16073114      1906.08678029      1906.08678029
  Force two-norm initial, final = 10.007 3.32362e-05
  Force max component initial, final = 1.70094 7.79017e-06
  Final line search alpha, max atom move = 0 0
  Iterations, force evaluations = 1590 1590

MPI task timing breakdown:
Section |  min time  |  avg time  |  max time  |%varavg| %total
---------------------------------------------------------------
Pair    | 0.24894    | 0.24894    | 0.24894    |   0.0 | 65.97
Bond    | 0.10887    | 0.10887    | 0.10887    |   0.0 | 28.85
Neigh   | 0          | 0          | 0          |   0.0 |  0.00
Comm    | 0.010985   | 0.010985   | 0.010985   |   0.0 |  2.91
Output  | 0          | 0          | 0          |   0.0 |  0.00
Modify  | 0          | 0          | 0          |   0.0 |  0.00
Other   |            | 0.008547   |            |       |  2.27

Nlocal:    188 ave 188 max 188 min
Histogram: 1 0 0 0 0 0 0 0 0 0
Nghost:    1772 ave 1772 max 1772 min
Histogram: 1 0 0 0 0 0 0 0 0 0
Neighs:    14559 ave 14559 max 14559 min
Histogram: 1 0 0 0 0 0 0 0 0 0

Total # of neighbors = 14559
Ave neighs/atom = 77.4415
Ave special neighs/atom = 6.11702
Neighbor list builds = 0
Dangerous builds = 0
variable        AtomMinStep equal ${tempstp}
variable        AtomMinStep equal 9298
variable        temppe     equal $(pe)
variable        temppe     equal 1906.0867802893963017
variable        min_E      equal abs(${prev_E}-${temppe})
variable        min_E      equal abs(1906.21714637707-${temppe})
variable        min_E      equal abs(1906.21714637707-1906.0867802894)
print           "${iter},${CellMinStep},${AtomMinStep},${AtomMinStep},$(pe),${min_E}" append NiPyC2_relax_sc211_meta_functionalized_O-CH2-CH2-CH3.min.csv screen no
if              "${min_E} < ${min_eval}" then "jump SELF break_min"
variable        prev_E     equal ${temppe}
variable        prev_E     equal 1906.0867802894
next            iter
jump            SELF loop_min
min_style       cg
fix             1 all box/relax aniso 0.0 vmax 0.01
minimize        1.0e-15 1.0e-15 10000 100000
WARNING: Using 'neigh_modify every 1 delay 0 check yes' setting during minimization (src/min.cpp:190)
WARNING: Inconsistent image flags (src/domain.cpp:785)
WARNING: Bond/angle/dihedral extent > half of periodic box length (src/domain.cpp:906)
Per MPI rank memory allocation (min/avg/max) = 17.57 | 17.57 | 17.57 Mbytes
Step Temp E_pair E_mol TotEng Press Volume 
   10888 7.1449549e-11    163.62801    1742.4588    1906.0868    692.62943    1673.6498 
   10890 7.1449549e-11    162.79349     1743.283    1906.0765    -483.8919    1674.5255 
WARNING: Bond/angle/dihedral extent > half of periodic box length (src/domain.cpp:906)
Loop time of 0.014406 on 1 procs for 2 steps with 188 atoms

100.1% CPU use with 1 MPI tasks x 1 OpenMP threads

Minimization stats:
  Stopping criterion = linesearch alpha is zero
  Energy initial, next-to-last, final = 
         1906.08678029      1906.07648789      1906.07648789
  Force two-norm initial, final = 102.958 25.1187
  Force max component initial, final = 63.382 16.9145
  Final line search alpha, max atom move = 1.41217e-11 2.38862e-10
  Iterations, force evaluations = 2 53

MPI task timing breakdown:
Section |  min time  |  avg time  |  max time  |%varavg| %total
---------------------------------------------------------------
Pair    | 0.0087261  | 0.0087261  | 0.0087261  |   0.0 | 60.57
Bond    | 0.0039578  | 0.0039578  | 0.0039578  |   0.0 | 27.47
Neigh   | 0          | 0          | 0          |   0.0 |  0.00
Comm    | 0.00036667 | 0.00036667 | 0.00036667 |   0.0 |  2.55
Output  | 0          | 0          | 0          |   0.0 |  0.00
Modify  | 0          | 0          | 0          |   0.0 |  0.00
Other   |            | 0.001355   |            |       |  9.41

Nlocal:    188 ave 188 max 188 min
Histogram: 1 0 0 0 0 0 0 0 0 0
Nghost:    1776 ave 1776 max 1776 min
Histogram: 1 0 0 0 0 0 0 0 0 0
Neighs:    14559 ave 14559 max 14559 min
Histogram: 1 0 0 0 0 0 0 0 0 0

Total # of neighbors = 14559
Ave neighs/atom = 77.4415
Ave special neighs/atom = 6.11702
Neighbor list builds = 0
Dangerous builds = 0
unfix           1
min_style       fire
variable        tempstp    equal $(step)
variable        tempstp    equal 10890
variable        CellMinStep equal ${tempstp}
variable        CellMinStep equal 10890
minimize        1.0e-15 1.0e-15 10000 100000
WARNING: Using 'neigh_modify every 1 delay 0 check yes' setting during minimization (src/min.cpp:190)
  Parameters for fire: 
    dmax delaystep dtgrow dtshrink alpha0 alphashrink tmax tmin    integrator halfstepback 
     0.1        20    1.1      0.5   0.25        0.99   10 0.02 eulerimplicit          yes 
WARNING: Inconsistent image flags (src/domain.cpp:785)
WARNING: Bond/angle/dihedral extent > half of periodic box length (src/domain.cpp:906)
Per MPI rank memory allocation (min/avg/max) = 16.44 | 16.44 | 16.44 Mbytes
Step Temp E_pair E_mol TotEng Press 
   10890            0    162.79349     1743.283    1906.0765    -483.8919 
   12508 7.5277796e-11    163.40821    1742.6057    1906.0139    535.07478 
WARNING: Bond/angle/dihedral extent > half of periodic box length (src/domain.cpp:906)
Loop time of 0.384341 on 1 procs for 1618 steps with 188 atoms

100.1% CPU use with 1 MPI tasks x 1 OpenMP threads

Minimization stats:
  Stopping criterion = energy tolerance
  Energy initial, next-to-last, final = 
         1906.07648789      1906.01393474      1906.01393474
  Force two-norm initial, final = 8.75225 3.7106e-05
  Force max component initial, final = 1.32949 7.36314e-06
  Final line search alpha, max atom move = 0 0
  Iterations, force evaluations = 1618 1618

MPI task timing breakdown:
Section |  min time  |  avg time  |  max time  |%varavg| %total
---------------------------------------------------------------
Pair    | 0.25346    | 0.25346    | 0.25346    |   0.0 | 65.95
Bond    | 0.11089    | 0.11089    | 0.11089    |   0.0 | 28.85
Neigh   | 0          | 0          | 0          |   0.0 |  0.00
Comm    | 0.01125    | 0.01125    | 0.01125    |   0.0 |  2.93
Output  | 0          | 0          | 0          |   0.0 |  0.00
Modify  | 0          | 0          | 0          |   0.0 |  0.00
Other   |            | 0.008738   |            |       |  2.27

Nlocal:    188 ave 188 max 188 min
Histogram: 1 0 0 0 0 0 0 0 0 0
Nghost:    1776 ave 1776 max 1776 min
Histogram: 1 0 0 0 0 0 0 0 0 0
Neighs:    14553 ave 14553 max 14553 min
Histogram: 1 0 0 0 0 0 0 0 0 0

Total # of neighbors = 14553
Ave neighs/atom = 77.4096
Ave special neighs/atom = 6.11702
Neighbor list builds = 0
Dangerous builds = 0
variable        AtomMinStep equal ${tempstp}
variable        AtomMinStep equal 10890
variable        temppe     equal $(pe)
variable        temppe     equal 1906.0139347364597597
variable        min_E      equal abs(${prev_E}-${temppe})
variable        min_E      equal abs(1906.0867802894-${temppe})
variable        min_E      equal abs(1906.0867802894-1906.01393473646)
print           "${iter},${CellMinStep},${AtomMinStep},${AtomMinStep},$(pe),${min_E}" append NiPyC2_relax_sc211_meta_functionalized_O-CH2-CH2-CH3.min.csv screen no
if              "${min_E} < ${min_eval}" then "jump SELF break_min"
variable        prev_E     equal ${temppe}
variable        prev_E     equal 1906.01393473646
next            iter
jump            SELF loop_min
min_style       cg
fix             1 all box/relax aniso 0.0 vmax 0.01
minimize        1.0e-15 1.0e-15 10000 100000
WARNING: Using 'neigh_modify every 1 delay 0 check yes' setting during minimization (src/min.cpp:190)
WARNING: Inconsistent image flags (src/domain.cpp:785)
WARNING: Bond/angle/dihedral extent > half of periodic box length (src/domain.cpp:906)
Per MPI rank memory allocation (min/avg/max) = 17.57 | 17.57 | 17.57 Mbytes
Step Temp E_pair E_mol TotEng Press Volume 
   12508 7.5277796e-11    163.40821    1742.6057    1906.0139    535.07478    1674.5255 
   12511 7.5277796e-11     163.4424    1742.5505    1905.9929    256.53607     1674.643 
WARNING: Bond/angle/dihedral extent > half of periodic box length (src/domain.cpp:906)
Loop time of 0.0158594 on 1 procs for 3 steps with 188 atoms

100.1% CPU use with 1 MPI tasks x 1 OpenMP threads

Minimization stats:
  Stopping criterion = linesearch alpha is zero
  Energy initial, next-to-last, final = 
         1906.01393474      1905.99286888      1905.99286888
  Force two-norm initial, final = 90.7193 14.0129
  Force max component initial, final = 58.3283 9.27932
  Final line search alpha, max atom move = 1.38862e-10 1.28854e-09
  Iterations, force evaluations = 3 55

MPI task timing breakdown:
Section |  min time  |  avg time  |  max time  |%varavg| %total
---------------------------------------------------------------
Pair    | 0.009576   | 0.009576   | 0.009576   |   0.0 | 60.38
Bond    | 0.0043491  | 0.0043491  | 0.0043491  |   0.0 | 27.42
Neigh   | 0          | 0          | 0          |   0.0 |  0.00
Comm    | 0.00042635 | 0.00042635 | 0.00042635 |   0.0 |  2.69
Output  | 0          | 0          | 0          |   0.0 |  0.00
Modify  | 0          | 0          | 0          |   0.0 |  0.00
Other   |            | 0.001508   |            |       |  9.51

Nlocal:    188 ave 188 max 188 min
Histogram: 1 0 0 0 0 0 0 0 0 0
Nghost:    1776 ave 1776 max 1776 min
Histogram: 1 0 0 0 0 0 0 0 0 0
Neighs:    14553 ave 14553 max 14553 min
Histogram: 1 0 0 0 0 0 0 0 0 0

Total # of neighbors = 14553
Ave neighs/atom = 77.4096
Ave special neighs/atom = 6.11702
Neighbor list builds = 0
Dangerous builds = 0
unfix           1
min_style       fire
variable        tempstp    equal $(step)
variable        tempstp    equal 12511
variable        CellMinStep equal ${tempstp}
variable        CellMinStep equal 12511
minimize        1.0e-15 1.0e-15 10000 100000
WARNING: Using 'neigh_modify every 1 delay 0 check yes' setting during minimization (src/min.cpp:190)
  Parameters for fire: 
    dmax delaystep dtgrow dtshrink alpha0 alphashrink tmax tmin    integrator halfstepback 
     0.1        20    1.1      0.5   0.25        0.99   10 0.02 eulerimplicit          yes 
WARNING: Inconsistent image flags (src/domain.cpp:785)
WARNING: Bond/angle/dihedral extent > half of periodic box length (src/domain.cpp:906)
Per MPI rank memory allocation (min/avg/max) = 16.44 | 16.44 | 16.44 Mbytes
Step Temp E_pair E_mol TotEng Press 
   12511            0     163.4424    1742.5505    1905.9929    256.53607 
   13784 7.4585148e-11    163.70406    1742.2875    1905.9916    708.11984 
WARNING: Bond/angle/dihedral extent > half of periodic box length (src/domain.cpp:906)
Loop time of 0.302471 on 1 procs for 1273 steps with 188 atoms

100.1% CPU use with 1 MPI tasks x 1 OpenMP threads

Minimization stats:
  Stopping criterion = energy tolerance
  Energy initial, next-to-last, final = 
         1905.99286888      1905.99160447      1905.99160447
  Force two-norm initial, final = 7.79156 3.27075e-05
  Force max component initial, final = 1.24991 9.02338e-06
  Final line search alpha, max atom move = 0 0
  Iterations, force evaluations = 1273 1273

MPI task timing breakdown:
Section |  min time  |  avg time  |  max time  |%varavg| %total
---------------------------------------------------------------
Pair    | 0.19944    | 0.19944    | 0.19944    |   0.0 | 65.94
Bond    | 0.087246   | 0.087246   | 0.087246   |   0.0 | 28.84
Neigh   | 0          | 0          | 0          |   0.0 |  0.00
Comm    | 0.0089333  | 0.0089333  | 0.0089333  |   0.0 |  2.95
Output  | 0          | 0          | 0          |   0.0 |  0.00
Modify  | 0          | 0          | 0          |   0.0 |  0.00
Other   |            | 0.006852   |            |       |  2.27

Nlocal:    188 ave 188 max 188 min
Histogram: 1 0 0 0 0 0 0 0 0 0
Nghost:    1782 ave 1782 max 1782 min
Histogram: 1 0 0 0 0 0 0 0 0 0
Neighs:    14552 ave 14552 max 14552 min
Histogram: 1 0 0 0 0 0 0 0 0 0

Total # of neighbors = 14552
Ave neighs/atom = 77.4043
Ave special neighs/atom = 6.11702
Neighbor list builds = 0
Dangerous builds = 0
variable        AtomMinStep equal ${tempstp}
variable        AtomMinStep equal 12511
variable        temppe     equal $(pe)
variable        temppe     equal 1905.9916044734982279
variable        min_E      equal abs(${prev_E}-${temppe})
variable        min_E      equal abs(1906.01393473646-${temppe})
variable        min_E      equal abs(1906.01393473646-1905.9916044735)
print           "${iter},${CellMinStep},${AtomMinStep},${AtomMinStep},$(pe),${min_E}" append NiPyC2_relax_sc211_meta_functionalized_O-CH2-CH2-CH3.min.csv screen no
if              "${min_E} < ${min_eval}" then "jump SELF break_min"
variable        prev_E     equal ${temppe}
variable        prev_E     equal 1905.9916044735
next            iter
jump            SELF loop_min
min_style       cg
fix             1 all box/relax aniso 0.0 vmax 0.01
minimize        1.0e-15 1.0e-15 10000 100000
WARNING: Using 'neigh_modify every 1 delay 0 check yes' setting during minimization (src/min.cpp:190)
WARNING: Inconsistent image flags (src/domain.cpp:785)
WARNING: Bond/angle/dihedral extent > half of periodic box length (src/domain.cpp:906)
Per MPI rank memory allocation (min/avg/max) = 17.57 | 17.57 | 17.57 Mbytes
Step Temp E_pair E_mol TotEng Press Volume 
   13784 7.4585148e-11    163.70406    1742.2875    1905.9916    708.11984     1674.643 
   13788 7.4585148e-11    163.46922    1742.4462    1905.9154    279.34042    1674.9146 
WARNING: Bond/angle/dihedral extent > half of periodic box length (src/domain.cpp:906)
Loop time of 0.0163223 on 1 procs for 4 steps with 188 atoms

100.1% CPU use with 1 MPI tasks x 1 OpenMP threads

Minimization stats:
  Stopping criterion = linesearch alpha is zero
  Energy initial, next-to-last, final = 
         1905.99160447      1905.91543286      1905.91543286
  Force two-norm initial, final = 80.2751 18.8427
  Force max component initial, final = 52.822 14.5745
  Final line search alpha, max atom move = 2.82352e-11 4.11515e-10
  Iterations, force evaluations = 4 59

MPI task timing breakdown:
Section |  min time  |  avg time  |  max time  |%varavg| %total
---------------------------------------------------------------
Pair    | 0.0099147  | 0.0099147  | 0.0099147  |   0.0 | 60.74
Bond    | 0.0044656  | 0.0044656  | 0.0044656  |   0.0 | 27.36
Neigh   | 0          | 0          | 0          |   0.0 |  0.00
Comm    | 0.00042351 | 0.00042351 | 0.00042351 |   0.0 |  2.59
Output  | 0          | 0          | 0          |   0.0 |  0.00
Modify  | 0          | 0          | 0          |   0.0 |  0.00
Other   |            | 0.001519   |            |       |  9.30

Nlocal:    188 ave 188 max 188 min
Histogram: 1 0 0 0 0 0 0 0 0 0
Nghost:    1788 ave 1788 max 1788 min
Histogram: 1 0 0 0 0 0 0 0 0 0
Neighs:    14555 ave 14555 max 14555 min
Histogram: 1 0 0 0 0 0 0 0 0 0

Total # of neighbors = 14555
Ave neighs/atom = 77.4202
Ave special neighs/atom = 6.11702
Neighbor list builds = 0
Dangerous builds = 0
unfix           1
min_style       fire
variable        tempstp    equal $(step)
variable        tempstp    equal 13788
variable        CellMinStep equal ${tempstp}
variable        CellMinStep equal 13788
minimize        1.0e-15 1.0e-15 10000 100000
WARNING: Using 'neigh_modify every 1 delay 0 check yes' setting during minimization (src/min.cpp:190)
  Parameters for fire: 
    dmax delaystep dtgrow dtshrink alpha0 alphashrink tmax tmin    integrator halfstepback 
     0.1        20    1.1      0.5   0.25        0.99   10 0.02 eulerimplicit          yes 
WARNING: Inconsistent image flags (src/domain.cpp:785)
WARNING: Bond/angle/dihedral extent > half of periodic box length (src/domain.cpp:906)
Per MPI rank memory allocation (min/avg/max) = 16.44 | 16.44 | 16.44 Mbytes
Step Temp E_pair E_mol TotEng Press 
   13788            0    163.46922    1742.4462    1905.9154    279.34042 
   15783 7.7982283e-11    163.86218    1742.0911    1905.9533    786.60222 
WARNING: Bond/angle/dihedral extent > half of periodic box length (src/domain.cpp:906)
Loop time of 0.469968 on 1 procs for 1995 steps with 188 atoms

100.0% CPU use with 1 MPI tasks x 1 OpenMP threads

Minimization stats:
  Stopping criterion = energy tolerance
  Energy initial, next-to-last, final = 
         1905.91543286        1905.953258        1905.953258
  Force two-norm initial, final = 6.98762 3.76123e-05
  Force max component initial, final = 1.01294 7.54731e-06
  Final line search alpha, max atom move = 0 0
  Iterations, force evaluations = 1995 1995

MPI task timing breakdown:
Section |  min time  |  avg time  |  max time  |%varavg| %total
---------------------------------------------------------------
Pair    | 0.30946    | 0.30946    | 0.30946    |   0.0 | 65.85
Bond    | 0.13586    | 0.13586    | 0.13586    |   0.0 | 28.91
Neigh   | 0          | 0          | 0          |   0.0 |  0.00
Comm    | 0.01397    | 0.01397    | 0.01397    |   0.0 |  2.97
Output  | 0          | 0          | 0          |   0.0 |  0.00
Modify  | 0          | 0          | 0          |   0.0 |  0.00
Other   |            | 0.01068    |            |       |  2.27

Nlocal:    188 ave 188 max 188 min
Histogram: 1 0 0 0 0 0 0 0 0 0
Nghost:    1788 ave 1788 max 1788 min
Histogram: 1 0 0 0 0 0 0 0 0 0
Neighs:    14550 ave 14550 max 14550 min
Histogram: 1 0 0 0 0 0 0 0 0 0

Total # of neighbors = 14550
Ave neighs/atom = 77.3936
Ave special neighs/atom = 6.11702
Neighbor list builds = 0
Dangerous builds = 0
variable        AtomMinStep equal ${tempstp}
variable        AtomMinStep equal 13788
variable        temppe     equal $(pe)
variable        temppe     equal 1905.9532580004263309
variable        min_E      equal abs(${prev_E}-${temppe})
variable        min_E      equal abs(1905.9916044735-${temppe})
variable        min_E      equal abs(1905.9916044735-1905.95325800043)
print           "${iter},${CellMinStep},${AtomMinStep},${AtomMinStep},$(pe),${min_E}" append NiPyC2_relax_sc211_meta_functionalized_O-CH2-CH2-CH3.min.csv screen no
if              "${min_E} < ${min_eval}" then "jump SELF break_min"
variable        prev_E     equal ${temppe}
variable        prev_E     equal 1905.95325800043
next            iter
jump            SELF loop_min
min_style       cg
fix             1 all box/relax aniso 0.0 vmax 0.01
minimize        1.0e-15 1.0e-15 10000 100000
WARNING: Using 'neigh_modify every 1 delay 0 check yes' setting during minimization (src/min.cpp:190)
WARNING: Inconsistent image flags (src/domain.cpp:785)
WARNING: Bond/angle/dihedral extent > half of periodic box length (src/domain.cpp:906)
Per MPI rank memory allocation (min/avg/max) = 17.57 | 17.57 | 17.57 Mbytes
Step Temp E_pair E_mol TotEng Press Volume 
   15783 7.7982283e-11    163.86218    1742.0911    1905.9533    786.60222    1674.9146 
   15785 7.7982283e-11    162.96643    1742.9691    1905.9355   -277.51054    1675.7527 
WARNING: Bond/angle/dihedral extent > half of periodic box length (src/domain.cpp:906)
Loop time of 0.0151496 on 1 procs for 2 steps with 188 atoms

100.1% CPU use with 1 MPI tasks x 1 OpenMP threads

Minimization stats:
  Stopping criterion = linesearch alpha is zero
  Energy initial, next-to-last, final = 
           1905.953258      1905.93550509      1905.93550509
  Force two-norm initial, final = 71.4498 18.4501
  Force max component initial, final = 50.5517 16.8699
  Final line search alpha, max atom move = 3.5332e-11 5.96046e-10
  Iterations, force evaluations = 2 53

MPI task timing breakdown:
Section |  min time  |  avg time  |  max time  |%varavg| %total
---------------------------------------------------------------
Pair    | 0.0091946  | 0.0091946  | 0.0091946  |   0.0 | 60.69
Bond    | 0.0041305  | 0.0041305  | 0.0041305  |   0.0 | 27.26
Neigh   | 0          | 0          | 0          |   0.0 |  0.00
Comm    | 0.00038679 | 0.00038679 | 0.00038679 |   0.0 |  2.55
Output  | 0          | 0          | 0          |   0.0 |  0.00
Modify  | 0          | 0          | 0          |   0.0 |  0.00
Other   |            | 0.001438   |            |       |  9.49

Nlocal:    188 ave 188 max 188 min
Histogram: 1 0 0 0 0 0 0 0 0 0
Nghost:    1788 ave 1788 max 1788 min
Histogram: 1 0 0 0 0 0 0 0 0 0
Neighs:    14551 ave 14551 max 14551 min
Histogram: 1 0 0 0 0 0 0 0 0 0

Total # of neighbors = 14551
Ave neighs/atom = 77.3989
Ave special neighs/atom = 6.11702
Neighbor list builds = 0
Dangerous builds = 0
unfix           1
min_style       fire
variable        tempstp    equal $(step)
variable        tempstp    equal 15785
variable        CellMinStep equal ${tempstp}
variable        CellMinStep equal 15785
minimize        1.0e-15 1.0e-15 10000 100000
WARNING: Using 'neigh_modify every 1 delay 0 check yes' setting during minimization (src/min.cpp:190)
  Parameters for fire: 
    dmax delaystep dtgrow dtshrink alpha0 alphashrink tmax tmin    integrator halfstepback 
     0.1        20    1.1      0.5   0.25        0.99   10 0.02 eulerimplicit          yes 
WARNING: Inconsistent image flags (src/domain.cpp:785)
WARNING: Bond/angle/dihedral extent > half of periodic box length (src/domain.cpp:906)
Per MPI rank memory allocation (min/avg/max) = 16.44 | 16.44 | 16.44 Mbytes
Step Temp E_pair E_mol TotEng Press 
   15785            0    162.96643    1742.9691    1905.9355   -277.51054 
   17522 7.3422549e-11    163.54339    1742.4129    1905.9563    539.36455 
WARNING: Bond/angle/dihedral extent > half of periodic box length (src/domain.cpp:906)
Loop time of 0.418247 on 1 procs for 1737 steps with 188 atoms

100.1% CPU use with 1 MPI tasks x 1 OpenMP threads

Minimization stats:
  Stopping criterion = energy tolerance
  Energy initial, next-to-last, final = 
         1905.93550509      1905.95630822      1905.95630822
  Force two-norm initial, final = 5.30636 3.35032e-05
  Force max component initial, final = 0.867291 6.76433e-06
  Final line search alpha, max atom move = 0 0
  Iterations, force evaluations = 1737 1737

MPI task timing breakdown:
Section |  min time  |  avg time  |  max time  |%varavg| %total
---------------------------------------------------------------
Pair    | 0.27613    | 0.27613    | 0.27613    |   0.0 | 66.02
Bond    | 0.12022    | 0.12022    | 0.12022    |   0.0 | 28.74
Neigh   | 0          | 0          | 0          |   0.0 |  0.00
Comm    | 0.012434   | 0.012434   | 0.012434   |   0.0 |  2.97
Output  | 0          | 0          | 0          |   0.0 |  0.00
Modify  | 0          | 0          | 0          |   0.0 |  0.00
Other   |            | 0.009465   |            |       |  2.26

Nlocal:    188 ave 188 max 188 min
Histogram: 1 0 0 0 0 0 0 0 0 0
Nghost:    1788 ave 1788 max 1788 min
Histogram: 1 0 0 0 0 0 0 0 0 0
Neighs:    14540 ave 14540 max 14540 min
Histogram: 1 0 0 0 0 0 0 0 0 0

Total # of neighbors = 14540
Ave neighs/atom = 77.3404
Ave special neighs/atom = 6.11702
Neighbor list builds = 0
Dangerous builds = 0
variable        AtomMinStep equal ${tempstp}
variable        AtomMinStep equal 15785
variable        temppe     equal $(pe)
variable        temppe     equal 1905.9563082176186981
variable        min_E      equal abs(${prev_E}-${temppe})
variable        min_E      equal abs(1905.95325800043-${temppe})
variable        min_E      equal abs(1905.95325800043-1905.95630821762)
print           "${iter},${CellMinStep},${AtomMinStep},${AtomMinStep},$(pe),${min_E}" append NiPyC2_relax_sc211_meta_functionalized_O-CH2-CH2-CH3.min.csv screen no
if              "${min_E} < ${min_eval}" then "jump SELF break_min"
variable        prev_E     equal ${temppe}
variable        prev_E     equal 1905.95630821762
next            iter
jump            SELF loop_min
min_style       cg
fix             1 all box/relax aniso 0.0 vmax 0.01
minimize        1.0e-15 1.0e-15 10000 100000
WARNING: Using 'neigh_modify every 1 delay 0 check yes' setting during minimization (src/min.cpp:190)
WARNING: Inconsistent image flags (src/domain.cpp:785)
WARNING: Bond/angle/dihedral extent > half of periodic box length (src/domain.cpp:906)
Per MPI rank memory allocation (min/avg/max) = 17.57 | 17.57 | 17.57 Mbytes
Step Temp E_pair E_mol TotEng Press Volume 
   17522 7.3422549e-11    163.54339    1742.4129    1905.9563    539.36455    1675.7527 
   17524 7.3422549e-11     162.8718     1743.068    1905.9398    -315.4178    1676.4071 
WARNING: Bond/angle/dihedral extent > half of periodic box length (src/domain.cpp:906)
Loop time of 0.0148862 on 1 procs for 2 steps with 188 atoms

100.1% CPU use with 1 MPI tasks x 1 OpenMP threads

Minimization stats:
  Stopping criterion = linesearch alpha is zero
  Energy initial, next-to-last, final = 
         1905.95630822      1905.93975291      1905.93975291
  Force two-norm initial, final = 63.1412 16.4533
  Force max component initial, final = 42.9153 12.2525
  Final line search alpha, max atom move = 4.01528e-11 4.91972e-10
  Iterations, force evaluations = 2 51

MPI task timing breakdown:
Section |  min time  |  avg time  |  max time  |%varavg| %total
---------------------------------------------------------------
Pair    | 0.0090058  | 0.0090058  | 0.0090058  |   0.0 | 60.50
Bond    | 0.0040827  | 0.0040827  | 0.0040827  |   0.0 | 27.43
Neigh   | 0          | 0          | 0          |   0.0 |  0.00
Comm    | 0.00040596 | 0.00040596 | 0.00040596 |   0.0 |  2.73
Output  | 0          | 0          | 0          |   0.0 |  0.00
Modify  | 0          | 0          | 0          |   0.0 |  0.00
Other   |            | 0.001392   |            |       |  9.35

Nlocal:    188 ave 188 max 188 min
Histogram: 1 0 0 0 0 0 0 0 0 0
Nghost:    1788 ave 1788 max 1788 min
Histogram: 1 0 0 0 0 0 0 0 0 0
Neighs:    14544 ave 14544 max 14544 min
Histogram: 1 0 0 0 0 0 0 0 0 0

Total # of neighbors = 14544
Ave neighs/atom = 77.3617
Ave special neighs/atom = 6.11702
Neighbor list builds = 0
Dangerous builds = 0
unfix           1
min_style       fire
variable        tempstp    equal $(step)
variable        tempstp    equal 17524
variable        CellMinStep equal ${tempstp}
variable        CellMinStep equal 17524
minimize        1.0e-15 1.0e-15 10000 100000
WARNING: Using 'neigh_modify every 1 delay 0 check yes' setting during minimization (src/min.cpp:190)
  Parameters for fire: 
    dmax delaystep dtgrow dtshrink alpha0 alphashrink tmax tmin    integrator halfstepback 
     0.1        20    1.1      0.5   0.25        0.99   10 0.02 eulerimplicit          yes 
WARNING: Inconsistent image flags (src/domain.cpp:785)
WARNING: Bond/angle/dihedral extent > half of periodic box length (src/domain.cpp:906)
Per MPI rank memory allocation (min/avg/max) = 16.44 | 16.44 | 16.44 Mbytes
Step Temp E_pair E_mol TotEng Press 
   17524            0     162.8718     1743.068    1905.9398    -315.4178 
   19033 1.090361e-10    163.30299    1742.6094    1905.9123    381.66947 
WARNING: Bond/angle/dihedral extent > half of periodic box length (src/domain.cpp:906)
Loop time of 0.355151 on 1 procs for 1509 steps with 188 atoms

100.0% CPU use with 1 MPI tasks x 1 OpenMP threads

Minimization stats:
  Stopping criterion = energy tolerance
  Energy initial, next-to-last, final = 
         1905.93975291      1905.91234467      1905.91234467
  Force two-norm initial, final = 5.25661 4.29585e-05
  Force max component initial, final = 0.836075 8.7393e-06
  Final line search alpha, max atom move = 0 0
  Iterations, force evaluations = 1509 1509

MPI task timing breakdown:
Section |  min time  |  avg time  |  max time  |%varavg| %total
---------------------------------------------------------------
Pair    | 0.23444    | 0.23444    | 0.23444    |   0.0 | 66.01
Bond    | 0.10217    | 0.10217    | 0.10217    |   0.0 | 28.77
Neigh   | 0          | 0          | 0          |   0.0 |  0.00
Comm    | 0.010504   | 0.010504   | 0.010504   |   0.0 |  2.96
Output  | 0          | 0          | 0          |   0.0 |  0.00
Modify  | 0          | 0          | 0          |   0.0 |  0.00
Other   |            | 0.008036   |            |       |  2.26

Nlocal:    188 ave 188 max 188 min
Histogram: 1 0 0 0 0 0 0 0 0 0
Nghost:    1788 ave 1788 max 1788 min
Histogram: 1 0 0 0 0 0 0 0 0 0
Neighs:    14541 ave 14541 max 14541 min
Histogram: 1 0 0 0 0 0 0 0 0 0

Total # of neighbors = 14541
Ave neighs/atom = 77.3457
Ave special neighs/atom = 6.11702
Neighbor list builds = 0
Dangerous builds = 0
variable        AtomMinStep equal ${tempstp}
variable        AtomMinStep equal 17524
variable        temppe     equal $(pe)
variable        temppe     equal 1905.9123446747353228
variable        min_E      equal abs(${prev_E}-${temppe})
variable        min_E      equal abs(1905.95630821762-${temppe})
variable        min_E      equal abs(1905.95630821762-1905.91234467474)
print           "${iter},${CellMinStep},${AtomMinStep},${AtomMinStep},$(pe),${min_E}" append NiPyC2_relax_sc211_meta_functionalized_O-CH2-CH2-CH3.min.csv screen no
if              "${min_E} < ${min_eval}" then "jump SELF break_min"
variable        prev_E     equal ${temppe}
variable        prev_E     equal 1905.91234467474
next            iter
jump            SELF loop_min
min_style       cg
fix             1 all box/relax aniso 0.0 vmax 0.01
minimize        1.0e-15 1.0e-15 10000 100000
WARNING: Using 'neigh_modify every 1 delay 0 check yes' setting during minimization (src/min.cpp:190)
WARNING: Inconsistent image flags (src/domain.cpp:785)
WARNING: Bond/angle/dihedral extent > half of periodic box length (src/domain.cpp:906)
Per MPI rank memory allocation (min/avg/max) = 17.57 | 17.57 | 17.57 Mbytes
Step Temp E_pair E_mol TotEng Press Volume 
   19033 1.090361e-10    163.30299    1742.6094    1905.9123    381.66947    1676.4071 
   19034 1.090361e-10    163.30299    1742.6094    1905.9123    381.66947    1676.4071 
WARNING: Bond/angle/dihedral extent > half of periodic box length (src/domain.cpp:906)
Loop time of 0.0158698 on 1 procs for 1 steps with 188 atoms

100.1% CPU use with 1 MPI tasks x 1 OpenMP threads

Minimization stats:
  Stopping criterion = linesearch alpha is zero
  Energy initial, next-to-last, final = 
         1905.91234467      1905.91234467      1905.91234467
  Force two-norm initial, final = 55.7193 55.7193
  Force max component initial, final = 36.5695 36.5695
  Final line search alpha, max atom move = 2.03737e-12 7.45058e-11
  Iterations, force evaluations = 1 55

MPI task timing breakdown:
Section |  min time  |  avg time  |  max time  |%varavg| %total
---------------------------------------------------------------
Pair    | 0.0096639  | 0.0096639  | 0.0096639  |   0.0 | 60.89
Bond    | 0.0043327  | 0.0043327  | 0.0043327  |   0.0 | 27.30
Neigh   | 0          | 0          | 0          |   0.0 |  0.00
Comm    | 0.00039911 | 0.00039911 | 0.00039911 |   0.0 |  2.51
Output  | 0          | 0          | 0          |   0.0 |  0.00
Modify  | 0          | 0          | 0          |   0.0 |  0.00
Other   |            | 0.001474   |            |       |  9.29

Nlocal:    188 ave 188 max 188 min
Histogram: 1 0 0 0 0 0 0 0 0 0
Nghost:    1788 ave 1788 max 1788 min
Histogram: 1 0 0 0 0 0 0 0 0 0
Neighs:    14538 ave 14538 max 14538 min
Histogram: 1 0 0 0 0 0 0 0 0 0

Total # of neighbors = 14538
Ave neighs/atom = 77.3298
Ave special neighs/atom = 6.11702
Neighbor list builds = 0
Dangerous builds = 0
unfix           1
min_style       fire
variable        tempstp    equal $(step)
variable        tempstp    equal 19034
variable        CellMinStep equal ${tempstp}
variable        CellMinStep equal 19034
minimize        1.0e-15 1.0e-15 10000 100000
WARNING: Using 'neigh_modify every 1 delay 0 check yes' setting during minimization (src/min.cpp:190)
  Parameters for fire: 
    dmax delaystep dtgrow dtshrink alpha0 alphashrink tmax tmin    integrator halfstepback 
     0.1        20    1.1      0.5   0.25        0.99   10 0.02 eulerimplicit          yes 
WARNING: Inconsistent image flags (src/domain.cpp:785)
WARNING: Bond/angle/dihedral extent > half of periodic box length (src/domain.cpp:906)
Per MPI rank memory allocation (min/avg/max) = 16.44 | 16.44 | 16.44 Mbytes
Step Temp E_pair E_mol TotEng Press 
   19034            0    163.30299    1742.6094    1905.9123    381.66947 
   19089 7.5479407e-11      163.303    1742.6093    1905.9123    381.67459 
WARNING: Bond/angle/dihedral extent > half of periodic box length (src/domain.cpp:906)
Loop time of 0.0138623 on 1 procs for 55 steps with 188 atoms

100.1% CPU use with 1 MPI tasks x 1 OpenMP threads

Minimization stats:
  Stopping criterion = energy tolerance
  Energy initial, next-to-last, final = 
         1905.91234467      1905.91234467      1905.91234467
  Force two-norm initial, final = 4.29585e-05 3.6066e-05
  Force max component initial, final = 8.73931e-06 7.20462e-06
  Final line search alpha, max atom move = 0 0
  Iterations, force evaluations = 55 55

MPI task timing breakdown:
Section |  min time  |  avg time  |  max time  |%varavg| %total
---------------------------------------------------------------
Pair    | 0.0090388  | 0.0090388  | 0.0090388  |   0.0 | 65.20
Bond    | 0.0039404  | 0.0039404  | 0.0039404  |   0.0 | 28.43
Neigh   | 0          | 0          | 0          |   0.0 |  0.00
Comm    | 0.00040178 | 0.00040178 | 0.00040178 |   0.0 |  2.90
Output  | 0          | 0          | 0          |   0.0 |  0.00
Modify  | 0          | 0          | 0          |   0.0 |  0.00
Other   |            | 0.0004814  |            |       |  3.47

Nlocal:    188 ave 188 max 188 min
Histogram: 1 0 0 0 0 0 0 0 0 0
Nghost:    1788 ave 1788 max 1788 min
Histogram: 1 0 0 0 0 0 0 0 0 0
Neighs:    14538 ave 14538 max 14538 min
Histogram: 1 0 0 0 0 0 0 0 0 0

Total # of neighbors = 14538
Ave neighs/atom = 77.3298
Ave special neighs/atom = 6.11702
Neighbor list builds = 0
Dangerous builds = 0
variable        AtomMinStep equal ${tempstp}
variable        AtomMinStep equal 19034
variable        temppe     equal $(pe)
variable        temppe     equal 1905.9123446745668389
variable        min_E      equal abs(${prev_E}-${temppe})
variable        min_E      equal abs(1905.91234467474-${temppe})
variable        min_E      equal abs(1905.91234467474-1905.91234467457)
print           "${iter},${CellMinStep},${AtomMinStep},${AtomMinStep},$(pe),${min_E}" append NiPyC2_relax_sc211_meta_functionalized_O-CH2-CH2-CH3.min.csv screen no
if              "${min_E} < ${min_eval}" then "jump SELF break_min"
jump SELF break_min
undump          NiPyC2_relax_sc211_meta_functionalized_O-CH2-CH2-CH3_xyzmov

# Dump last snapshot for restart
variable curr_lx equal lx
variable curr_ly equal ly
variable curr_lz equal lz
change_box all x final 0 ${curr_lx} y final 0 ${curr_ly} z final 0 ${curr_lz}
change_box all x final 0 14.1111131691333 y final 0 ${curr_ly} z final 0 ${curr_lz}
change_box all x final 0 14.1111131691333 y final 0 11.19385713469 z final 0 ${curr_lz}
change_box all x final 0 14.1111131691333 y final 0 11.19385713469 z final 0 10.6130069033783
  triclinic box = (0 0.664771 -0.169364) to (14.1111 11.8586 10.4436) with tilt (0 -0.235097 0)
  triclinic box = (0 0 -0.169364) to (14.1111 11.1939 10.4436) with tilt (0 -0.235097 0)
  triclinic box = (0 0 0) to (14.1111 11.1939 10.613) with tilt (0 -0.235097 0)

reset_timestep 0
dump            NiPyC2_relax_sc211_meta_functionalized_O-CH2-CH2-CH3_restart all atom 1 NiPyC2_relax_sc211_meta_functionalized_O-CH2-CH2-CH3_restart.lammpstrj
dump_modify     NiPyC2_relax_sc211_meta_functionalized_O-CH2-CH2-CH3_restart scale no sort id
run 0
WARNING: No fixes defined, atoms won't move (src/verlet.cpp:52)
WARNING: Inconsistent image flags (src/domain.cpp:785)
WARNING: Bond/angle/dihedral extent > half of periodic box length (src/domain.cpp:906)
Per MPI rank memory allocation (min/avg/max) = 16.44 | 16.44 | 16.44 Mbytes
Step Temp E_pair E_mol TotEng Press 
       0 7.5479407e-11      163.303    1742.6093    1905.9123    381.67459 
WARNING: Bond/angle/dihedral extent > half of periodic box length (src/domain.cpp:906)
Loop time of 8.76986e-07 on 1 procs for 0 steps with 188 atoms

228.1% CPU use with 1 MPI tasks x 1 OpenMP threads

MPI task timing breakdown:
Section |  min time  |  avg time  |  max time  |%varavg| %total
---------------------------------------------------------------
Pair    | 0          | 0          | 0          |   0.0 |  0.00
Bond    | 0          | 0          | 0          |   0.0 |  0.00
Neigh   | 0          | 0          | 0          |   0.0 |  0.00
Comm    | 0          | 0          | 0          |   0.0 |  0.00
Output  | 0          | 0          | 0          |   0.0 |  0.00
Modify  | 0          | 0          | 0          |   0.0 |  0.00
Other   |            | 8.77e-07   |            |       |100.00

Nlocal:    188 ave 188 max 188 min
Histogram: 1 0 0 0 0 0 0 0 0 0
Nghost:    1810 ave 1810 max 1810 min
Histogram: 1 0 0 0 0 0 0 0 0 0
Neighs:    14538 ave 14538 max 14538 min
Histogram: 1 0 0 0 0 0 0 0 0 0

Total # of neighbors = 14538
Ave neighs/atom = 77.3298
Ave special neighs/atom = 6.11702
Neighbor list builds = 0
Dangerous builds = 0
undump          NiPyC2_relax_sc211_meta_functionalized_O-CH2-CH2-CH3_restart
Total wall time: 0:00:04
units           real
atom_style      full
boundary        p p p

pair_style      lj/cut 5.000
bond_style      harmonic
angle_style     hybrid fourier cosine/periodic
dihedral_style  harmonic
improper_style  fourier

special_bonds   lj/coul 0.0 0.0 1.0
pair_modify     tail yes mix arithmetic
dielectric      1.0
box tilt        large
read_data       data.NiPyC2_relax_sc211_meta_functionalized_O-CH2-CH2-CH3
  triclinic box = (0 0 0) to (12.5056 12.5234 10.2743) with tilt (0 -0.227594 0)
  1 by 1 by 1 MPI processor grid
  reading atoms ...
  188 atoms
  scanning bonds ...
  6 = max bonds/atom
  scanning angles ...
  15 = max angles/atom
  scanning dihedrals ...
  10 = max dihedrals/atom
  scanning impropers ...
  3 = max impropers/atom
  reading bonds ...
  204 bonds
  reading angles ...
  387 angles
  reading dihedrals ...
  428 dihedrals
  reading impropers ...
  171 impropers
  6 = max # of 1-2 neighbors
  9 = max # of 1-3 neighbors
  12 = max # of special neighbors
  special bonds CPU = 0.000143406 secs
  read_data CPU = 0.00503676 secs

#### Atom Groupings ####
group           1        id   185:188
4 atoms in group 1
group           1-1      id   185
1 atoms in group 1-1
group           1-2      id   186
1 atoms in group 1-2
group           1-3      id   187
1 atoms in group 1-3
group           1-4      id   188
1 atoms in group 1-4
group           fram     id   1:184
184 atoms in group fram
#### END Atom Groupings ####

dump            NiPyC2_relax_sc211_meta_functionalized_O-CH2-CH2-CH3_xyzmov all xyz 20000 NiPyC2_relax_sc211_meta_functionalized_O-CH2-CH2-CH3_mov.xyz
dump_modify     NiPyC2_relax_sc211_meta_functionalized_O-CH2-CH2-CH3_xyzmov element Ni O N C H O C C C H
min_style       cg
print           "MinStep,CellMinStep,AtomMinStep,FinalStep,Energy,EDiff,vol,lx,ly,lz,xy,xz,yz" file NiPyC2_relax_sc211_meta_functionalized_O-CH2-CH2-CH3.min.csv screen no
variable        min_eval   equal 1.00e-06
variable        prev_E     equal 50000.00
variable        iter       loop 100000
label           loop_min
min_style       cg
variable        tempstp    equal $(step)
variable        tempstp    equal 0
variable        CellMinStep equal ${tempstp}
variable        CellMinStep equal 0
minimize        1.0e-15 1.0e-15 10000 100000
WARNING: Using 'neigh_modify every 1 delay 0 check yes' setting during minimization (src/min.cpp:190)
Neighbor list info ...
  update every 1 steps, delay 0 steps, check yes
  max neighbors/atom: 2000, page size: 100000
  master list distance cutoff = 7
  ghost atom cutoff = 7
  binsize = 3.5, bins = 4 4 3
  1 neighbor lists, perpetual/occasional/extra = 1 0 0
  (1) pair lj/cut, perpetual
      attributes: half, newton on
      pair build: half/bin/newton/tri
      stencil: half/bin/3d/newton/tri
      bin: standard
WARNING: Inconsistent image flags (src/domain.cpp:785)
WARNING: Bond/angle/dihedral extent > half of periodic box length (src/domain.cpp:906)
Per MPI rank memory allocation (min/avg/max) = 17.57 | 17.57 | 17.57 Mbytes
Step Temp E_pair E_mol TotEng Press 
       0            0 1.0969837e+11    2399.2699 1.0969837e+11 1.8698491e+13 
     283            0    230.58506    2081.1726    2311.7576    -13364.02 
WARNING: Bond/angle/dihedral extent > half of periodic box length (src/domain.cpp:906)
Loop time of 0.166429 on 1 procs for 283 steps with 188 atoms

100.0% CPU use with 1 MPI tasks x 1 OpenMP threads

Minimization stats:
  Stopping criterion = linesearch alpha is zero
  Energy initial, next-to-last, final = 
          109698372177      2311.75761271      2311.75761271
  Force two-norm initial, final = 5.72137e+12 11.1617
  Force max component initial, final = 3.27376e+12 2.09739
  Final line search alpha, max atom move = 9.49186e-11 1.99081e-10
  Iterations, force evaluations = 283 562

MPI task timing breakdown:
Section |  min time  |  avg time  |  max time  |%varavg| %total
---------------------------------------------------------------
Pair    | 0.10026    | 0.10026    | 0.10026    |   0.0 | 60.24
Bond    | 0.041397   | 0.041397   | 0.041397   |   0.0 | 24.87
Neigh   | 0.01618    | 0.01618    | 0.01618    |   0.0 |  9.72
Comm    | 0.0051133  | 0.0051133  | 0.0051133  |   0.0 |  3.07
Output  | 0          | 0          | 0          |   0.0 |  0.00
Modify  | 0          | 0          | 0          |   0.0 |  0.00
Other   |            | 0.003475   |            |       |  2.09

Nlocal:    188 ave 188 max 188 min
Histogram: 1 0 0 0 0 0 0 0 0 0
Nghost:    1812 ave 1812 max 1812 min
Histogram: 1 0 0 0 0 0 0 0 0 0
Neighs:    15222 ave 15222 max 15222 min
Histogram: 1 0 0 0 0 0 0 0 0 0

Total # of neighbors = 15222
Ave neighs/atom = 80.9681
Ave special neighs/atom = 6.11702
Neighbor list builds = 14
Dangerous builds = 0
variable        AtomMinStep equal ${tempstp}
variable        AtomMinStep equal 0
variable        temppe     equal $(pe)
variable        temppe     equal 2311.7576127118118166
variable        min_E      equal abs(${prev_E}-${temppe})
variable        min_E      equal abs(50000-${temppe})
variable        min_E      equal abs(50000-2311.75761271181)
print           "${iter},${CellMinStep},${AtomMinStep},${AtomMinStep},$(pe),${min_E},$(vol),$(lx),$(ly),$(lz),$(xy),$(xz),$(yz)" append NiPyC2_relax_sc211_meta_functionalized_O-CH2-CH2-CH3.min.csv screen no
if              "${min_E} < ${min_eval}" then "jump SELF break_min"
variable        prev_E     equal ${temppe}
variable        prev_E     equal 2311.75761271181
next            iter
jump            SELF loop_min
min_style       cg
variable        tempstp    equal $(step)
variable        tempstp    equal 283
variable        CellMinStep equal ${tempstp}
variable        CellMinStep equal 283
minimize        1.0e-15 1.0e-15 10000 100000
WARNING: Using 'neigh_modify every 1 delay 0 check yes' setting during minimization (src/min.cpp:190)
WARNING: Inconsistent image flags (src/domain.cpp:785)
WARNING: Bond/angle/dihedral extent > half of periodic box length (src/domain.cpp:906)
Per MPI rank memory allocation (min/avg/max) = 17.57 | 17.57 | 17.57 Mbytes
Step Temp E_pair E_mol TotEng Press 
     283            0    230.58506    2081.1726    2311.7576    -13364.02 
     301            0    229.10432    2081.7896    2310.8939   -13699.726 
WARNING: Bond/angle/dihedral extent > half of periodic box length (src/domain.cpp:906)
Loop time of 0.024571 on 1 procs for 18 steps with 188 atoms

100.0% CPU use with 1 MPI tasks x 1 OpenMP threads

Minimization stats:
  Stopping criterion = linesearch alpha is zero
  Energy initial, next-to-last, final = 
         2311.75761271      2310.89389481      2310.89389481
  Force two-norm initial, final = 11.1617 9.77271
  Force max component initial, final = 2.09739 1.65577
  Final line search alpha, max atom move = 1.10966e-10 1.83735e-10
  Iterations, force evaluations = 18 92

MPI task timing breakdown:
Section |  min time  |  avg time  |  max time  |%varavg| %total
---------------------------------------------------------------
Pair    | 0.016485   | 0.016485   | 0.016485   |   0.0 | 67.09
Bond    | 0.0067584  | 0.0067584  | 0.0067584  |   0.0 | 27.51
Neigh   | 0          | 0          | 0          |   0.0 |  0.00
Comm    | 0.00074615 | 0.00074615 | 0.00074615 |   0.0 |  3.04
Output  | 0          | 0          | 0          |   0.0 |  0.00
Modify  | 0          | 0          | 0          |   0.0 |  0.00
Other   |            | 0.0005818  |            |       |  2.37

Nlocal:    188 ave 188 max 188 min
Histogram: 1 0 0 0 0 0 0 0 0 0
Nghost:    1814 ave 1814 max 1814 min
Histogram: 1 0 0 0 0 0 0 0 0 0
Neighs:    15205 ave 15205 max 15205 min
Histogram: 1 0 0 0 0 0 0 0 0 0

Total # of neighbors = 15205
Ave neighs/atom = 80.8777
Ave special neighs/atom = 6.11702
Neighbor list builds = 0
Dangerous builds = 0
variable        AtomMinStep equal ${tempstp}
variable        AtomMinStep equal 283
variable        temppe     equal $(pe)
variable        temppe     equal 2310.8938948142508707
variable        min_E      equal abs(${prev_E}-${temppe})
variable        min_E      equal abs(2311.75761271181-${temppe})
variable        min_E      equal abs(2311.75761271181-2310.89389481425)
print           "${iter},${CellMinStep},${AtomMinStep},${AtomMinStep},$(pe),${min_E},$(vol),$(lx),$(ly),$(lz),$(xy),$(xz),$(yz)" append NiPyC2_relax_sc211_meta_functionalized_O-CH2-CH2-CH3.min.csv screen no
if              "${min_E} < ${min_eval}" then "jump SELF break_min"
variable        prev_E     equal ${temppe}
variable        prev_E     equal 2310.89389481425
next            iter
jump            SELF loop_min
min_style       cg
variable        tempstp    equal $(step)
variable        tempstp    equal 301
variable        CellMinStep equal ${tempstp}
variable        CellMinStep equal 301
minimize        1.0e-15 1.0e-15 10000 100000
WARNING: Using 'neigh_modify every 1 delay 0 check yes' setting during minimization (src/min.cpp:190)
WARNING: Inconsistent image flags (src/domain.cpp:785)
WARNING: Bond/angle/dihedral extent > half of periodic box length (src/domain.cpp:906)
Per MPI rank memory allocation (min/avg/max) = 17.57 | 17.57 | 17.57 Mbytes
Step Temp E_pair E_mol TotEng Press 
     301            0    229.10432    2081.7896    2310.8939   -13699.726 
     309            0    229.16844    2081.5735    2310.7419   -13846.049 
WARNING: Bond/angle/dihedral extent > half of periodic box length (src/domain.cpp:906)
Loop time of 0.0184526 on 1 procs for 8 steps with 188 atoms

100.0% CPU use with 1 MPI tasks x 1 OpenMP threads

Minimization stats:
  Stopping criterion = linesearch alpha is zero
  Energy initial, next-to-last, final = 
         2310.89389481      2310.74192334      2310.74192334
  Force two-norm initial, final = 9.77271 6.97558
  Force max component initial, final = 1.65577 1.50973
  Final line search alpha, max atom move = 2.1715e-10 3.27837e-10
  Iterations, force evaluations = 8 69

MPI task timing breakdown:
Section |  min time  |  avg time  |  max time  |%varavg| %total
---------------------------------------------------------------
Pair    | 0.012274   | 0.012274   | 0.012274   |   0.0 | 66.52
Bond    | 0.0051738  | 0.0051738  | 0.0051738  |   0.0 | 28.04
Neigh   | 0          | 0          | 0          |   0.0 |  0.00
Comm    | 0.00054871 | 0.00054871 | 0.00054871 |   0.0 |  2.97
Output  | 0          | 0          | 0          |   0.0 |  0.00
Modify  | 0          | 0          | 0          |   0.0 |  0.00
Other   |            | 0.0004556  |            |       |  2.47

Nlocal:    188 ave 188 max 188 min
Histogram: 1 0 0 0 0 0 0 0 0 0
Nghost:    1818 ave 1818 max 1818 min
Histogram: 1 0 0 0 0 0 0 0 0 0
Neighs:    15195 ave 15195 max 15195 min
Histogram: 1 0 0 0 0 0 0 0 0 0

Total # of neighbors = 15195
Ave neighs/atom = 80.8245
Ave special neighs/atom = 6.11702
Neighbor list builds = 0
Dangerous builds = 0
variable        AtomMinStep equal ${tempstp}
variable        AtomMinStep equal 301
variable        temppe     equal $(pe)
variable        temppe     equal 2310.7419233369641915
variable        min_E      equal abs(${prev_E}-${temppe})
variable        min_E      equal abs(2310.89389481425-${temppe})
variable        min_E      equal abs(2310.89389481425-2310.74192333696)
print           "${iter},${CellMinStep},${AtomMinStep},${AtomMinStep},$(pe),${min_E},$(vol),$(lx),$(ly),$(lz),$(xy),$(xz),$(yz)" append NiPyC2_relax_sc211_meta_functionalized_O-CH2-CH2-CH3.min.csv screen no
if              "${min_E} < ${min_eval}" then "jump SELF break_min"
variable        prev_E     equal ${temppe}
variable        prev_E     equal 2310.74192333696
next            iter
jump            SELF loop_min
min_style       cg
variable        tempstp    equal $(step)
variable        tempstp    equal 309
variable        CellMinStep equal ${tempstp}
variable        CellMinStep equal 309
minimize        1.0e-15 1.0e-15 10000 100000
WARNING: Using 'neigh_modify every 1 delay 0 check yes' setting during minimization (src/min.cpp:190)
WARNING: Inconsistent image flags (src/domain.cpp:785)
WARNING: Bond/angle/dihedral extent > half of periodic box length (src/domain.cpp:906)
Per MPI rank memory allocation (min/avg/max) = 17.57 | 17.57 | 17.57 Mbytes
Step Temp E_pair E_mol TotEng Press 
     309            0    229.16844    2081.5735    2310.7419   -13846.049 
     310            0    229.16844    2081.5735    2310.7419   -13846.049 
WARNING: Bond/angle/dihedral extent > half of periodic box length (src/domain.cpp:906)
Loop time of 0.0152538 on 1 procs for 1 steps with 188 atoms

100.0% CPU use with 1 MPI tasks x 1 OpenMP threads

Minimization stats:
  Stopping criterion = linesearch alpha is zero
  Energy initial, next-to-last, final = 
         2310.74192334      2310.74192334      2310.74192334
  Force two-norm initial, final = 6.97558 6.97558
  Force max component initial, final = 1.50973 1.50973
  Final line search alpha, max atom move = 2.46752e-10 3.72529e-10
  Iterations, force evaluations = 1 56

MPI task timing breakdown:
Section |  min time  |  avg time  |  max time  |%varavg| %total
---------------------------------------------------------------
Pair    | 0.010195   | 0.010195   | 0.010195   |   0.0 | 66.83
Bond    | 0.0042282  | 0.0042282  | 0.0042282  |   0.0 | 27.72
Neigh   | 0          | 0          | 0          |   0.0 |  0.00
Comm    | 0.00043359 | 0.00043359 | 0.00043359 |   0.0 |  2.84
Output  | 0          | 0          | 0          |   0.0 |  0.00
Modify  | 0          | 0          | 0          |   0.0 |  0.00
Other   |            | 0.0003972  |            |       |  2.60

Nlocal:    188 ave 188 max 188 min
Histogram: 1 0 0 0 0 0 0 0 0 0
Nghost:    1818 ave 1818 max 1818 min
Histogram: 1 0 0 0 0 0 0 0 0 0
Neighs:    15197 ave 15197 max 15197 min
Histogram: 1 0 0 0 0 0 0 0 0 0

Total # of neighbors = 15197
Ave neighs/atom = 80.8351
Ave special neighs/atom = 6.11702
Neighbor list builds = 0
Dangerous builds = 0
variable        AtomMinStep equal ${tempstp}
variable        AtomMinStep equal 309
variable        temppe     equal $(pe)
variable        temppe     equal 2310.7419233369641915
variable        min_E      equal abs(${prev_E}-${temppe})
variable        min_E      equal abs(2310.74192333696-${temppe})
variable        min_E      equal abs(2310.74192333696-2310.74192333696)
print           "${iter},${CellMinStep},${AtomMinStep},${AtomMinStep},$(pe),${min_E},$(vol),$(lx),$(ly),$(lz),$(xy),$(xz),$(yz)" append NiPyC2_relax_sc211_meta_functionalized_O-CH2-CH2-CH3.min.csv screen no
if              "${min_E} < ${min_eval}" then "jump SELF break_min"
jump SELF break_min
undump          NiPyC2_relax_sc211_meta_functionalized_O-CH2-CH2-CH3_xyzmov

# Dump last snapshot for restart
variable curr_lx equal lx
variable curr_ly equal ly
variable curr_lz equal lz
change_box all x final 0 ${curr_lx} y final 0 ${curr_ly} z final 0 ${curr_lz}
change_box all x final 0 12.5056 y final 0 ${curr_ly} z final 0 ${curr_lz}
change_box all x final 0 12.5056 y final 0 12.5234 z final 0 ${curr_lz}
change_box all x final 0 12.5056 y final 0 12.5234 z final 0 10.274279
  triclinic box = (0 0 0) to (12.5056 12.5234 10.2743) with tilt (0 -0.227594 0)
  triclinic box = (0 0 0) to (12.5056 12.5234 10.2743) with tilt (0 -0.227594 0)
  triclinic box = (0 0 0) to (12.5056 12.5234 10.2743) with tilt (0 -0.227594 0)

reset_timestep 0
dump            NiPyC2_relax_sc211_meta_functionalized_O-CH2-CH2-CH3_restart all atom 1 NiPyC2_relax_sc211_meta_functionalized_O-CH2-CH2-CH3_restart.lammpstrj
dump_modify     NiPyC2_relax_sc211_meta_functionalized_O-CH2-CH2-CH3_restart scale no sort id
run 0
WARNING: No fixes defined, atoms won't move (src/verlet.cpp:52)
WARNING: Inconsistent image flags (src/domain.cpp:785)
WARNING: Bond/angle/dihedral extent > half of periodic box length (src/domain.cpp:906)
Per MPI rank memory allocation (min/avg/max) = 16.44 | 16.44 | 16.44 Mbytes
Step Temp E_pair E_mol TotEng Press 
       0            0    229.16844    2081.5735    2310.7419   -13846.049 
WARNING: Bond/angle/dihedral extent > half of periodic box length (src/domain.cpp:906)
Loop time of 1.40601e-06 on 1 procs for 0 steps with 188 atoms

355.6% CPU use with 1 MPI tasks x 1 OpenMP threads

MPI task timing breakdown:
Section |  min time  |  avg time  |  max time  |%varavg| %total
---------------------------------------------------------------
Pair    | 0          | 0          | 0          |   0.0 |  0.00
Bond    | 0          | 0          | 0          |   0.0 |  0.00
Neigh   | 0          | 0          | 0          |   0.0 |  0.00
Comm    | 0          | 0          | 0          |   0.0 |  0.00
Output  | 0          | 0          | 0          |   0.0 |  0.00
Modify  | 0          | 0          | 0          |   0.0 |  0.00
Other   |            | 1.406e-06  |            |       |100.00

Nlocal:    188 ave 188 max 188 min
Histogram: 1 0 0 0 0 0 0 0 0 0
Nghost:    1818 ave 1818 max 1818 min
Histogram: 1 0 0 0 0 0 0 0 0 0
Neighs:    15197 ave 15197 max 15197 min
Histogram: 1 0 0 0 0 0 0 0 0 0

Total # of neighbors = 15197
Ave neighs/atom = 80.8351
Ave special neighs/atom = 6.11702
Neighbor list builds = 0
Dangerous builds = 0
undump          NiPyC2_relax_sc211_meta_functionalized_O-CH2-CH2-CH3_restart
Total wall time: 0:00:00
