ITEM: TIMESTEP
0
ITEM: NUMBER OF ATOMS
188
ITEM: BOX BOUNDS xy xz yz pp pp pp
-2.2759399999999999e-01 1.2505599999999999e+01 0.0000000000000000e+00
0.0000000000000000e+00 1.2523400000000001e+01 -2.2759399999999999e-01
0.0000000000000000e+00 1.0274279000000000e+01 0.0000000000000000e+00
ITEM: ATOMS id type x y z
1 1 3.03237 9.01069 8.47376
2 1 6.29632 3.12849 3.71472
3 2 1.23485 4.0834 3.43982
4 2 4.06165 9.2389 10.0269
5 2 4.77181 2.06284 3.63581
6 2 1.48491 9.94416 9.09022
7 2 5.72736 4.30776 4.99221
8 2 2.70837 7.59257 9.49651
9 2 0.317123 1.8931 4.77823
10 2 3.38066 10.1837 10.0023
11 3 3.65783 10.5521 7.34789
12 3 0.475984 1.64395 2.08715
13 3 2.22205 8.10733 6.95071
14 3 5.71719 4.45598 2.31322
15 4 3.17724 12.1146 5.49089
16 4 0.258442 12.1003 0.721625
17 4 4.59728 12.3957 5.2529
18 4 1.65567 11.8225 0.70979
19 4 5.43422 11.4534 5.88952
20 4 2.421 0.158931 1.54284
21 4 2.55914 6.32209 5.37453
22 4 5.98454 6.61708 1.11786
23 4 2.9287 7.02194 6.53788
24 4 6.53325 5.44553 1.80104
25 5 3.91887 6.90308 6.88561
26 5 11.689 3.17361 0.275558
27 4 2.77596 11.3457 6.67543
28 4 12.1951 0.760251 1.37627
29 5 1.73457 11.1391 6.81931
30 5 6.58258 2.87154 0.673849
31 4 4.9942 10.6932 7.0327
32 4 1.83553 1.36605 2.11599
33 5 5.743 10.2169 7.64242
34 5 2.46731 1.98832 2.71183
35 4 0.86634 8.06246 6.69262
36 4 4.36508 4.58685 2.0896
37 5 0.197686 8.72809 7.21432
38 5 3.70061 3.84719 2.48867
39 4 0.316621 7.04318 5.80463
40 4 3.78037 5.80581 1.60461
41 4 1.17688 6.10699 5.14427
42 4 4.58534 6.82671 1.02577
43 4 5.26579 1.28772 4.63867
44 4 2.08338 10.6297 10.0546
45 4 0.608669 4.81345 4.40354
46 4 3.90092 7.9062 0.0695033
47 1 9.25246 9.5033 8.91269
48 1 12.2669 2.99309 3.45231
49 2 7.75735 4.12657 4.10666
50 2 10.6052 8.30815 9.05479
51 2 10.8338 1.97084 3.80241
52 2 7.89065 10.691 9.11939
53 2 11.914 4.24529 4.65963
54 2 8.67787 8.35796 10.1694
55 2 6.50246 1.81904 4.9772
56 2 9.81835 10.6001 10.2158
57 3 10.0681 10.7181 7.54424
58 3 7.2561 1.96136 2.41959
59 3 8.42316 8.33406 7.48086
60 3 11.3284 4.16367 2.11575
61 4 9.62078 12.477 5.9
62 4 7.79584 1.11434 0.2044
63 5 8.84625 0.662534 5.72047
64 5 12.1158 11.4043 0.261175
65 4 10.9637 0.395257 5.88246
66 4 8.4778 12.5193 0.720186
67 4 11.7599 12.4368 6.92039
68 4 8.81293 0.0879364 2.08004
69 5 6.46886 11.4365 5.61912
70 5 9.4836 11.8885 2.52648
71 4 8.52114 7.02651 5.36854
72 4 10.6547 5.18403 10.2121
73 5 8.93978 6.91306 4.39341
74 5 6.65605 7.36937 0.73555
75 4 8.98419 8.12256 6.22686
76 4 11.4018 4.09388 0.748236
77 5 9.82223 8.71775 5.90654
78 5 7.59947 5.35392 1.90418
79 4 9.24391 11.2953 6.6161
80 4 7.19944 2.10686 1.07955
81 5 8.23718 10.9482 6.55405
82 5 11.1406 0.947906 1.29308
83 4 11.3173 11.2907 7.72016
84 4 8.25923 1.14597 2.88286
85 5 11.9733 10.8756 8.44494
86 5 8.6052 1.29062 3.85767
87 4 7.47904 7.41337 7.86137
88 4 10.4484 5.11109 2.62257
89 5 6.9527 7.56058 8.78386
90 5 10.0416 4.99356 3.61083
91 4 7.39601 6.1298 7.20948
92 4 10.087 6.27306 1.88031
93 5 11.7556 6.99997 5.63621
94 5 9.53805 7.07281 2.35015
95 4 7.54631 6.08856 5.83738
96 4 10.4301 6.38153 0.541411
97 4 11.554 1.37675 4.78014
98 4 8.65809 11.2774 10.0956
99 4 7.01082 4.82932 4.98364
100 4 9.82444 7.67333 9.99361
101 6 2.25715 12.1992 4.45577
102 7 1.79531 10.8854 4.07787
103 7 0.334245 10.9133 3.61035
104 5 2.42728 10.4686 3.27084
105 5 1.84681 10.1157 4.86215
106 7 11.8547 10.1828 4.51781
107 5 0.00278012 11.9487 3.5249
108 5 0.263161 10.4492 2.6166
109 5 12.1457 10.3025 5.56275
110 5 10.8284 10.5561 4.33519
111 5 11.8259 9.10261 4.3463
112 6 3.54655 12.1782 2.14355
113 7 4.65398 12.3168 1.31411
114 7 5.56682 11.1156 1.54026
115 5 5.1506 0.735175 1.56424
116 5 4.38549 12.3413 0.240085
117 7 6.29588 11.1473 2.84498
118 5 6.26211 10.9769 0.694335
119 5 4.94449 10.2178 1.64155
120 5 6.43002 12.15 3.21115
121 5 7.26416 10.6154 2.77101
122 5 5.65783 10.6533 3.57578
123 6 3.44611 6.36758 4.31924
124 7 3.7657 7.73911 4.04336
125 7 5.09525 8.14115 4.67552
126 5 3.74947 7.99181 2.98272
127 5 2.9836 8.43569 4.3793
128 7 6.25903 8.16666 3.71828
129 5 4.95648 9.14185 5.07026
130 5 5.37521 7.49258 5.51458
131 5 7.06633 8.79893 4.13617
132 5 6.64359 7.15615 3.59089
133 5 5.96981 8.56526 2.73846
134 6 2.52833 6.12925 2.05971
135 7 1.55589 6.10567 1.0676
136 7 0.869327 7.47177 1.05505
137 5 0.846605 5.35612 1.37455
138 5 1.87935 5.76371 0.0641491
139 7 0.194588 7.77021 2.36926
140 5 0.190207 7.53559 0.195864
141 5 1.57796 8.30144 0.943154
142 5 12.3544 6.86644 2.88212
143 5 11.8368 8.441 2.18608
144 5 0.933673 8.2375 3.04892
145 6 0.487318 0.505622 7.11931
146 7 0.613866 1.01291 8.4223
147 7 1.01659 2.47163 8.43692
148 5 12.179 0.951116 9.01017
149 5 1.44001 0.445117 8.85584
150 7 1.85924 2.88602 9.63412
151 5 0.0924102 3.02278 8.58422
152 5 1.51282 2.75902 7.48471
153 5 2.6244 2.13509 9.91193
154 5 2.35074 3.82707 9.37204
155 5 1.45715 3.11664 0.231627
156 6 7.37402 1.20543 9.15032
157 7 6.03698 0.861771 8.95424
158 7 5.66582 1.40177 7.65085
159 5 5.33862 1.33547 9.67264
160 5 5.90497 12.2849 8.96927
161 7 4.15416 1.65156 7.56518
162 5 6.17835 0.755009 6.98815
163 5 6.24622 2.26913 7.38829
164 5 3.59027 0.81564 8.01048
165 5 3.80485 1.88915 6.56517
166 5 3.88074 2.54487 8.11722
167 6 7.8945 5.04068 7.86791
168 7 7.11001 4.74056 8.96755
169 7 5.70612 4.32945 8.5435
170 5 7.17226 5.54529 9.69772
171 5 7.61204 3.88532 9.45037
172 7 4.59282 5.26873 8.77557
173 5 5.4621 3.44916 9.13029
174 5 5.67826 4.17248 7.45396
175 5 3.79291 5.09586 8.04038
176 5 4.12144 4.97882 9.70055
177 5 4.95652 6.29816 8.75509
178 6 10.188 4.89963 8.98045
179 7 10.9867 5.53018 8.02811
180 8 11.4266 4.48694 7.12919
181 5 11.8937 6.06897 8.40782
182 5 10.3709 6.23918 7.45408
183 9 10.57 3.36375 6.85056
184 5 -0.0216197 4.41258 6.92887
185 10 8.15847 2.78658 6.51731
186 10 5.0432 8.27996 7.97514
187 10 3.50953 4.05744 6.12742
188 10 2.61172 2.52665 4.86406
