<?xml version="1.0" encoding="UTF-8"?>
<UPF version="2.0.1">
  <PP_INFO><![CDATA[
Generated using "atomic" code by A. Dal Corso  v.6.5
Author: TM
Generation date: 11May2020
Pseudopotential type: NC
Element:  H
Functional: PBESOL
    Suggested minimum cutoff for wavefunctions:   0. Ry
    Suggested minimum cutoff for charge density:   0. Ry
    The Pseudo was generated with a Scalar-Relativistic Calculation
    L component and cutoff radius for Local Potential:  0   0.5000
    Valence configuration:
    nl pn  l   occ       Rcut    Rcut US       E pseu
    1S  1  0  1.00      1.156      1.156    -0.465344
    Generation configuration:
    1S  1  0  1.00      0.500      0.500    -0.465338
    Pseudization used: troullier-martins
]]>
    <PP_INPUTFILE><![CDATA[
 &input
   title='H',
   zed=1,
   rel=1,
   config='1s1 2p-1',
   iswitch=3,
   dft='PBESOL'
 /
 &inputp
   pseudotype=2,
   file_pseudopw='H.pbesol-n-nc.UPF',
   author='TM',
   lloc=0,
   tm=.true.
 /
1
1S  1  0  1.00  0.00  0.50  0.50  0.0
]]></PP_INPUTFILE>
  </PP_INFO>
  <!--
 END OF HUMAN READABLE SECTION 
-->
  <PP_HEADER generated="Generated using &quot;atomic&quot; code by A. Dal Corso  v.6.5" author="TM" date="11May2020" comment="" element=" H" pseudo_type="NC" relativistic="scalar" is_ultrasoft="false" is_paw="false" is_coulomb="false" has_so="false" has_wfc="false" has_gipaw="false" paw_as_gipaw="false" core_correction="false" functional="PBESOL" z_valence="1.000000000000e0" total_psenergy="-8.997986063314e-1" wfc_cutoff="0.000000000000e0" rho_cutoff="0.000000000000e0" l_max="0" l_max_rho="0" l_local="0" mesh_size="929" number_of_wfc="1" number_of_proj="0"/>
  <PP_MESH dx="1.250000000000e-2" mesh="929" xmin="-7.000000000000e0" rmax="1.000000000000e2" zmesh="1.000000000000e0">
    <PP_R>
      9.118819655545161e-4 9.233520286690222e-4 9.349663674165821e-4 9.467267965612539e-4
      9.586351536940199e-4 9.706932995199089e-4 9.829031181487386e-4 9.952665173895113e-4
      1.007785429048511e-3 1.020461809231155e-3 1.033297638647637e-3 1.046294922922419e-3
      1.059455692907610e-3 1.072782005000297e-3 1.086275941463858e-3 1.099939610753318e-3
      1.113775147844803e-3 1.127784714569132e-3 1.141970499949607e-3 1.156334720544058e-3
      1.170879620791174e-3 1.185607473361213e-3 1.200520579511101e-3 1.215621269444015e-3
      1.230911902673481e-3 1.246394868392049e-3 1.262072585844614e-3 1.277947504706424e-3
      1.294022105465848e-3 1.310298899811960e-3 1.326780431026992e-3 1.343469274383727e-3
      1.360368037547894e-3 1.377479360985617e-3 1.394805918375999e-3 1.412350417028882e-3
      1.430115598307875e-3 1.448104238058696e-3 1.466319147042903e-3 1.484763171377087e-3
      1.503439192977572e-3 1.522350130010732e-3 1.541498937348950e-3 1.560888607032332e-3
      1.580522168736217e-3 1.600402690244564e-3 1.620533277929307e-3 1.640917077235726e-3
      1.661557273173934e-3 1.682457090816541e-3 1.703619795802574e-3 1.725048694847742e-3
      1.746747136261120e-3 1.768718510468321e-3 1.790966250541270e-3 1.813493832734615e-3
      1.836304777028907e-3 1.859402647680601e-3 1.882791053778977e-3 1.906473649810076e-3
      1.930454136227709e-3 1.954736260031667e-3 1.979323815353197e-3 2.004220644047839e-3
      2.029430636295734e-3 2.054957731209459e-3 2.080805917449529e-3 2.106979233847634e-3
      2.133481770037708e-3 2.160317667094954e-3 2.187491118182885e-3 2.215006369208517e-3
      2.242867719485803e-3 2.271079522407407e-3 2.299646186124936e-3 2.328572174237714e-3
      2.357862006490233e-3 2.387520259478373e-3 2.417551567364503e-3 2.447960622601583e-3
      2.478752176666358e-3 2.509931040801799e-3 2.541502086768859e-3 2.573470247607700e-3
      2.605840518408498e-3 2.638617957091922e-3 2.671807685199450e-3 2.705414888693627e-3
      2.739444818768368e-3 2.773902792669489e-3 2.808794194525513e-3 2.844124476188967e-3
      2.879899158088243e-3 2.916123830090168e-3 2.952804152373447e-3 2.989945856313060e-3
      3.027554745375815e-3 3.065636696027143e-3 3.104197658649309e-3 3.143243658471180e-3
      3.182780796509666e-3 3.222815250523026e-3 3.263353275976149e-3 3.304401207017982e-3
      3.345965457471272e-3 3.388052521834712e-3 3.430668976297734e-3 3.473821479768053e-3
      3.517516774912128e-3 3.561761689208730e-3 3.606563136015731e-3 3.651928115650343e-3
      3.697863716482932e-3 3.744377116044580e-3 3.791475582148608e-3 3.839166474026163e-3
      3.887457243476131e-3 3.936355436029483e-3 3.985868692128291e-3 4.036004748319558e-3
      4.086771438464067e-3 4.138176694960437e-3 4.190228549984579e-3 4.242935136744740e-3
      4.296304690752340e-3 4.350345551108769e-3 4.405066161808406e-3 4.460475073058002e-3
      4.516580942612666e-3 4.573392537128673e-3 4.630918733533246e-3 4.689168520411611e-3
      4.748150999411477e-3 4.807875386665186e-3 4.868351014229763e-3 4.929587331545052e-3
      4.991593906910216e-3 5.054380428978814e-3 5.117956708272652e-3 5.182332678714725e-3
      5.247518399181384e-3 5.313524055074076e-3 5.380359959910820e-3 5.448036556937725e-3
      5.516564420760771e-3 5.585954258998099e-3 5.656216913953108e-3 5.727363364308586e-3
      5.799404726842141e-3 5.872352258163252e-3 5.946217356472094e-3 6.021011563340560e-3
      6.096746565515638e-3 6.173434196745501e-3 6.251086439628562e-3 6.329715427485747e-3
      6.409333446256383e-3 6.489952936417886e-3 6.571586494929614e-3 6.654246877201174e-3
      6.737946999085467e-3 6.822699938896827e-3 6.908518939454532e-3 6.995417410152011e-3
      7.083408929052125e-3 7.172507245008699e-3 7.262726279814892e-3 7.354080130378437e-3
      7.446583070924339e-3 7.540249555225276e-3 7.635094218859962e-3 7.731131881500071e-3
      7.828377549225774e-3 7.926846416870495e-3 8.026553870395162e-3 8.127515489292211e-3
      8.229747049020030e-3 8.333264523467809e-3 8.438084087451530e-3 8.544222119241345e-3
      8.651695203120633e-3 8.760520131977428e-3 8.870713909928259e-3 8.982293754975114e-3
      9.095277101695824e-3 9.209681603968139e-3 9.325525137728327e-3 9.442825803764212e-3
      9.561601930543505e-3 9.681872077077692e-3 9.803655035821828e-3 9.926969835611011e-3
      1.005183574463359e-2 1.017827227344187e-2 1.030629917800075e-2 1.043593646277450e-2
      1.056720438385266e-2 1.070012345211493e-2 1.083471443643615e-2 1.097099836693149e-2
      1.110899653824231e-2 1.124873051286366e-2 1.139022212451338e-2 1.153349348154362e-2
      1.167856697039545e-2 1.182546525909662e-2 1.197421130080362e-2 1.212482833738810e-2
      1.227733990306844e-2 1.243176982808709e-2 1.258814224243400e-2 1.274648157961707e-2
      1.290681258047987e-2 1.306916029706748e-2 1.323355009654094e-2 1.340000766514083e-2
      1.356855901220093e-2 1.373923047421215e-2 1.391204871893762e-2 1.408704074957974e-2
      1.426423390899926e-2 1.444365588398788e-2 1.462533470959422e-2 1.480929877350440e-2
      1.499557682047772e-2 1.518419795683795e-2 1.537519165502143e-2 1.556858775818209e-2
      1.576441648485449e-2 1.596270843367562e-2 1.616349458816587e-2 1.636680632157043e-2
      1.657267540176126e-2 1.678113399620096e-2 1.699221467696908e-2 1.720595042585138e-2
      1.742237463949352e-2 1.764152113461916e-2 1.786342415331403e-2 1.808811836837631e-2
      1.831563888873418e-2 1.854602126493188e-2 1.877930149468441e-2 1.901551602850225e-2
      1.925470177538693e-2 1.949689610859799e-2 1.974213687149278e-2 1.999046238343943e-2
      2.024191144580439e-2 2.049652334801526e-2 2.075433787369974e-2 2.101539530690203e-2
      2.127973643837718e-2 2.154740257196477e-2 2.181843553104277e-2 2.209287766506244e-2
      2.237077185616560e-2 2.265216152588497e-2 2.293709064192893e-2 2.322560372505158e-2
      2.351774585600911e-2 2.381356268260388e-2 2.411310042681687e-2 2.441640589203003e-2
      2.472352647033940e-2 2.503451014996015e-2 2.534940552272494e-2 2.566826179167643e-2
      2.599112877875535e-2 2.631805693258531e-2 2.664909733635549e-2 2.698430171580248e-2
      2.732372244729257e-2 2.766741256600558e-2 2.801542577422182e-2 2.836781644971310e-2
      2.872463965423943e-2 2.908595114215248e-2 2.945180736910729e-2 2.982226550088371e-2
      3.019738342231850e-2 3.057721974635009e-2 3.096183382317689e-2 3.135128574953089e-2
      3.174563637806795e-2 3.214494732687607e-2 3.254928098910343e-2 3.295870054270736e-2
      3.337326996032608e-2 3.379305401927456e-2 3.421811831166603e-2 3.464852925466102e-2
      3.508435410084504e-2 3.552566094873697e-2 3.597251875342967e-2 3.642499733736424e-2
      3.688316740124002e-2 3.734710053506162e-2 3.781686922932508e-2 3.829254688634466e-2
      3.877420783172201e-2 3.926192732595982e-2 3.975578157622132e-2 4.025584774823785e-2
      4.076220397836622e-2 4.127492938579755e-2 4.179410408491991e-2 4.231980919783632e-2
      4.285212686704019e-2 4.339114026825037e-2 4.393693362340742e-2 4.448959221383352e-2
      4.504920239355782e-2 4.561585160280941e-2 4.618962838168012e-2 4.677062238395898e-2
      4.735892439114092e-2 4.795462632661147e-2 4.855782127000997e-2 4.916860347177359e-2
      4.978706836786395e-2 5.041331259467938e-2 5.104743400415441e-2 5.168953167904942e-2
      5.233970594843238e-2 5.299805840335580e-2 5.366469191273014e-2 5.433971063939749e-2
      5.502322005640726e-2 5.571532696349639e-2 5.641613950377735e-2 5.712576718063529e-2
      5.784432087483848e-2 5.857191286186357e-2 5.930865682943872e-2 6.005466789530795e-2
      6.081006262521798e-2 6.157495905113224e-2 6.234947668967346e-2 6.313373656079837e-2
      6.392786120670757e-2 6.473197471099255e-2 6.554620271802436e-2 6.637067245258565e-2
      6.720551273974975e-2 6.805085402501020e-2 6.890682839466258e-2 6.977356959644366e-2
      7.065121306042963e-2 7.153989592019721e-2 7.243975703425145e-2 7.335093700772212e-2
      7.427357821433390e-2 7.520782481865242e-2 7.615382279861032e-2 7.711171996831672e-2
      7.808166600115317e-2 7.906381245316068e-2 8.005831278672058e-2 8.106532239453323e-2
      8.208499862389880e-2 8.311750080130256e-2 8.416299025731039e-2 8.522163035177687e-2
      8.629358649937050e-2 8.737902619542039e-2 8.847811904208731e-2 8.959103677486471e-2
      9.071795328941256e-2 9.185904466872890e-2 9.301448921066349e-2 9.418446745577668e-2
      9.536916221554964e-2 9.656875860094887e-2 9.778344405135005e-2 9.901340836382630e-2
      1.002588437228038e-1 1.015199447300911e-1 1.027969084352864e-1 1.040899343665666e-1
      1.053992245618643e-1 1.067249836004362e-1 1.080674186348293e-1 1.094267394232490e-1
      1.108031583623340e-1 1.121968905203437e-1 1.136081536707638e-1 1.150371683263324e-1
      1.164841577734970e-1 1.179493481073026e-1 1.194329682667196e-1 1.209352500704167e-1
      1.224564282529820e-1 1.239967405016013e-1 1.255564274931973e-1 1.271357329320356e-1
      1.287349035878042e-1 1.303541893341717e-1 1.319938431878303e-1 1.336541213480305e-1
      1.353352832366127e-1 1.370375915385425e-1 1.387613122429553e-1 1.405067146847182e-1
      1.422740715865137e-1 1.440636591014533e-1 1.458757568562274e-1 1.477106479947969e-1
      1.495686192226351e-1 1.514499608515267e-1 1.533549668449285e-1 1.552839348639030e-1
      1.572371663136277e-1 1.592149663904904e-1 1.612176441297769e-1 1.632455124539584e-1
      1.652988882215866e-1 1.673780922768026e-1 1.694834494994702e-1 1.716152888559388e-1
      1.737739434504451e-1 1.759597505771615e-1 1.781730517728985e-1 1.804141928704709e-1
      1.826835240527348e-1 1.849813999073043e-1 1.873081794819571e-1 1.896642263407353e-1
      1.920499086207542e-1 1.944655990897237e-1 1.969116752041941e-1 1.993885191685352e-1
      2.018965179946555e-1 2.044360635624741e-1 2.070075526811528e-1 2.096113871510978e-1
      2.122479738267431e-1 2.149177246801206e-1 2.176210568652330e-1 2.203583927832340e-1
      2.231301601484298e-1 2.259367920551109e-1 2.287787270452225e-1 2.316564091768889e-1
      2.345702880937978e-1 2.375208190954581e-1 2.405084632083422e-1 2.435336872579208e-1
      2.465969639416066e-1 2.496987719026137e-1 2.528395958047465e-1 2.560199264081301e-1
      2.592402606458916e-1 2.625011017018074e-1 2.658029590889268e-1 2.691463487291839e-1
      2.725317930340126e-1 2.759598209859732e-1 2.794309682214075e-1 2.829457771141330e-1
      2.865047968601901e-1 2.901085835636554e-1 2.937577003235329e-1 2.974527173217407e-1
      3.011942119122023e-1 3.049827687110593e-1 3.088189796880199e-1 3.127034442588539e-1
      3.166367693790534e-1 3.206195696386709e-1 3.246524673583497e-1 3.287360926865642e-1
      3.328710836980797e-1 3.370580864936545e-1 3.412977553009939e-1 3.455907525769745e-1
      3.499377491111554e-1 3.543394241305888e-1 3.587964654059518e-1 3.633095693590115e-1
      3.678794411714423e-1 3.725067948950130e-1 3.771923535631570e-1 3.819368493039491e-1
      3.867410234545015e-1 3.916056266767990e-1 3.965314190749929e-1 4.015191703141668e-1
      4.065696597405993e-1 4.116836765035387e-1 4.168620196785084e-1 4.221054983921656e-1
      4.274149319487268e-1 4.327911499579875e-1 4.382349924649496e-1 4.437473100810799e-1
      4.493289641172217e-1 4.549808267181737e-1 4.607037809989661e-1 4.664987211828487e-1
      4.723665527410147e-1 4.783081925340841e-1 4.843245689553626e-1 4.904166220759063e-1
      4.965853037914099e-1 5.028315779709409e-1 5.091564206075493e-1 5.155608199707643e-1
      5.220457767610164e-1 5.286123042659977e-1 5.352614285189903e-1 5.419941884591872e-1
      5.488116360940266e-1 5.557148366635717e-1 5.627048688069562e-1 5.697828247309230e-1
      5.769498103804867e-1 5.842069456117360e-1 5.915553643668154e-1 5.989962148511058e-1
      6.065306597126334e-1 6.141598762237379e-1 6.218850564650204e-1 6.297074075116104e-1
      6.376281516217738e-1 6.456485264278920e-1 6.537697851298474e-1 6.619931966908342e-1
      6.703200460356396e-1 6.787516342514149e-1 6.872892787909723e-1 6.959343136786421e-1
      7.046880897187137e-1 7.135519747065029e-1 7.225273536420726e-1 7.316156289466418e-1
      7.408182206817180e-1 7.501365667709821e-1 7.595721232249689e-1 7.691263643685710e-1
      7.788007830714049e-1 7.885968909810767e-1 7.985162187593772e-1 8.085603163214529e-1
      8.187307530779824e-1 8.290291181804005e-1 8.394570207692075e-1 8.500160902253985e-1
      8.607079764250582e-1 8.715343499971585e-1 8.824969025845954e-1 8.935973471085157e-1
      9.048374180359598e-1 9.162188716508782e-1 9.277434863285535e-1 9.394130628134757e-1
      9.512294245007141e-1 9.631944177208222e-1 9.753099120283332e-1 9.875778004938821e-1
      1.000000000000000e0 1.012578451540635e0 1.025315120524429e0 1.038211997081826e0
      1.051271096376025e0 1.064494458917859e0 1.077884150884632e0 1.091442264442952e0
      1.105170918075648e0 1.119072256912781e0 1.133148453066826e0 1.147401705972072e0
      1.161834242728284e0 1.176448318448691e0 1.191246216612359e0 1.206230249420981e0
      1.221402758160170e0 1.236766113565285e0 1.252322716191865e0 1.268074996790720e0
      1.284025416687741e0 1.300176468168491e0 1.316530674867622e0 1.333090592163203e0
      1.349858807576004e0 1.366837941173796e0 1.384030645980752e0 1.401439608391974e0
      1.419067548593258e0 1.436917220986125e0 1.454991414618201e0 1.473292953619016e0
      1.491824697641271e0 1.510589542307673e0 1.529590419663380e0 1.548830298634133e0
      1.568312185490169e0 1.588039124315944e0 1.608014197485784e0 1.628240526145511e0
      1.648721270700128e0 1.669459631307643e0 1.690458848379092e0 1.711722203084865e0
      1.733253017867396e0 1.755054656960298e0 1.777130526914039e0 1.799484077128209e0
      1.822118800390510e0 1.845038233422501e0 1.868245957432222e0 1.891745598673770e0
      1.915540829013897e0 1.939635366505755e0 1.964032975969848e0 1.988737469582292e0
      2.013752707470477e0 2.039082598316216e0 2.064731099966488e0 2.090702220051857e0
      2.117000016612675e0 2.143628598733160e0 2.170592127183443e0 2.197894815069703e0
      2.225540928492469e0 2.253534787213209e0 2.281880765329304e0 2.310583291957505e0
      2.339646851925992e0 2.369075986475142e0 2.398875293967098e0 2.429049430604289e0
      2.459603111156951e0 2.490541109699832e0 2.521868260358150e0 2.553589458062927e0
      2.585709659315847e0 2.618233882963702e0 2.651167210982608e0 2.684514789272072e0
      2.718281828459045e0 2.752473604712107e0 2.787095460565852e0 2.822152805755699e0
      2.857651118063166e0 2.893595944171761e0 2.929992900533705e0 2.966847674247468e0
      3.004166023946432e0 3.041953780698666e0 3.080216848918031e0 3.118961207286795e0
      3.158192909689769e0 3.197918086160275e0 3.238142943837963e0 3.278873767938673e0
      3.320116922736551e0 3.361878852558430e0 3.404166082790818e0 3.446985220899477e0
      3.490342957461841e0 3.534246067212473e0 3.578701410101580e0 3.623715932366941e0
      3.669296667619247e0 3.715450737941104e0 3.762185354999914e0 3.809507821174662e0
      3.857425530696973e0 3.905945970806455e0 3.955076722920577e0 4.004825463819329e0
      4.055199966844676e0 4.106208103115211e0 4.157857842756011e0 4.210157256143960e0
      4.263114515168822e0 4.316737894510045e0 4.371035772929757e0 4.426016634581938e0
      4.481689070338065e0 4.538061779129507e0 4.595143569306690e0 4.652943360015469e0
      4.711470182590745e0 4.770733181967603e0 4.830741618110284e0 4.891504867459006e0
      4.953032424395113e0 5.015333902724563e0 5.078419037180081e0 5.142297684942291e0
      5.206979827179850e0 5.272475570609090e0 5.338795149073180e0 5.405948925141167e0
      5.473947391727205e0 5.542801173730024e0 5.612521029693155e0 5.683117853485948e0
      5.754602676005731e0 5.826986666901480e0 5.900281136319018e0 5.974497536668322e0
      6.049647464412950e0 6.125742661881986e0 6.202795019104872e0 6.280816575669166e0
      6.359819522601829e0 6.439816204274064e0 6.520819120330112e0 6.602840927640434e0
      6.685894442279272e0 6.769992641527273e0 6.855148665899183e0 6.941375821197036e0
      7.028687580589301e0 7.117097586715997e0 7.206619653820465e0 7.297267769907837e0
      7.389056098930650e0 7.481998983002086e0 7.576110944636849e0 7.671406689020428e0
      7.767901106306778e0 7.865609273944892e0 7.964546459034780e0 8.064728120712875e0
      8.166169912567646e0 8.268887685085474e0 8.372897488127265e0 8.478215573436382e0
      8.584858397177896e0 8.692842622510002e0 8.802185122187613e0 8.912902981198737e0
      9.025013499434131e0 9.138534194390328e0 9.253482803906889e0 9.369877288937936e0
      9.487735836358526e0 9.607076861806512e0 9.727919012559887e0 9.850281170450581e0
      9.974182454814727e0 1.009964222548005e1 1.022668008579101e1 1.035531588567170e1
      1.048556972472757e1 1.061746195538601e1 1.075101318607635e1 1.088624428445015e1
      1.102317638064161e1 1.116183087056936e1 1.130222941927959e1 1.144439396433112e1
      1.158834671922340e1 1.173411017686721e1 1.188170711309940e1 1.203116059024154e1
      1.218249396070347e1 1.233573087063227e1 1.249089526360681e1 1.264801138437922e1
      1.280710378266304e1 1.296819731696913e1 1.313131715849003e1 1.329648879503279e1
      1.346373803500171e1 1.363309101143076e1 1.380457418606710e1 1.397821435350565e1
      1.415403864537581e1 1.433207453458095e1 1.451234983959093e1 1.469489272878894e1
      1.487973172487285e1 1.506689570931179e1 1.525641392685918e1 1.544831599012203e1
      1.564263188418817e1 1.583939197131143e1 1.603862699565568e1 1.624036808809886e1
      1.644464677109706e1 1.665149496361015e1 1.686094498608905e1 1.707302956552586e1
      1.728778184056766e1 1.750523536669429e1 1.772542412146164e1 1.794838250981066e1
      1.817414536944307e1 1.840274797626507e1 1.863422604989902e1 1.886861575926488e1
      1.910595372823167e1 1.934627704133982e1 1.958962324959602e1 1.983603037634033e1
      2.008553692318767e1 2.033818187604363e1 2.059400471119603e1 2.085304540148344e1
      2.111534442254063e1 2.138094275912334e1 2.164988191151207e1 2.192220390199647e1
      2.219795128144166e1 2.247716713593662e1 2.275989509352673e1 2.304617933103060e1
      2.333606458094272e1 2.362959613842325e1 2.392681986837515e1 2.422778221261098e1
      2.453253019710937e1 2.484111143936285e1 2.515357415581840e1 2.546996716941110e1
      2.579033991719307e1 2.611474245805800e1 2.644322548056280e1 2.677584031084816e1
      2.711263892065791e1 2.745367393546010e1 2.779899864266969e1 2.814866699997466e1
      2.850273364376732e1 2.886125389768104e1 2.922428378123494e1 2.959188001858698e1
      2.996410004739703e1 3.034100202780196e1 3.072264485150294e1 3.110908815096766e1
      3.150039230874797e1 3.189661846691450e1 3.229782853661073e1 3.270408520772618e1
      3.311545195869231e1 3.353199306640096e1 3.395377361624755e1 3.438085951230123e1
      3.481331748760205e1 3.525121511458854e1 3.569462081565591e1 3.614360387384694e1
      3.659823444367804e1 3.705858356210060e1 3.752472315960100e1 3.799672607143981e1
      3.847466604903214e1 3.895861777147202e1 3.944865685720055e1 3.994485987582193e1
      4.044730436006744e1 4.095606881790981e1 4.147123274483081e1 4.199287663624201e1
      4.252108200006279e1 4.305593136945596e1 4.359750831572351e1 4.414589746136529e1
      4.470118449330086e1 4.526345617625877e1 4.583280036633351e1 4.640930602471298e1
      4.699306323157935e1 4.758416320018370e1 4.818269829109882e1 4.878876202665047e1
      4.940244910553020e1 5.002385541759281e1 5.065307805883867e1 5.129021534658571e1
      5.193536683483149e1 5.258863332980845e1 5.325011690573570e1 5.391992092076757e1
      5.459815003314424e1 5.528491021754449e1 5.598030878164415e1 5.668445438288387e1
      5.739745704544625e1 5.811942817744799e1 5.885048058834746e1 5.959072850657099e1
      6.034028759736206e1 6.109927498085337e1 6.186780925036789e1 6.264601049094892e1
      6.343400029812335e1 6.423190179690195e1 6.503983966101702e1 6.585794013240371e1
      6.668633104092521e1 6.752514182434616e1 6.837450354855823e1 6.923454892805864e1
      7.010541234668786e1 7.098722987862693e1 7.188013930965908e1 7.278428015869975e1
      7.369979369959585e1 7.462682298320091e1 7.556551285972668e1 7.651601000137589e1
      7.747846292526098e1 7.845302201660916e1 7.943983955226134e1 8.043906972446532e1
      8.145086866496815e1 8.247539446941312e1 8.351280722204129e1 8.456326902070600e1
      8.562694400220066e1 8.670399836790491e1 8.779460040975492e1 8.889892053653833e1
      9.001713130052181e1 9.114940742441245e1 9.229592582865790e1 9.345686565909174e1
      9.463240831492415e1 9.582273747708689e1 9.702803913693344e1 9.824850162530007e1
      9.948431564193395e1
      </PP_R>
    <PP_RAB>
      1.139852456943145e-5 1.154190035836278e-5 1.168707959270728e-5 1.183408495701567e-5
      1.198293942117525e-5 1.213366624399886e-5 1.228628897685923e-5 1.244083146736889e-5
      1.259731786310638e-5 1.275577261538943e-5 1.291622048309546e-5 1.307868653653023e-5
      1.324319616134513e-5 1.340977506250371e-5 1.357844926829822e-5 1.374924513441648e-5
      1.392218934806004e-5 1.409730893211416e-5 1.427463124937010e-5 1.445418400680072e-5
      1.463599525988968e-5 1.482009341701516e-5 1.500650724388876e-5 1.519526586805018e-5
      1.538639878341851e-5 1.557993585490062e-5 1.577590732305768e-5 1.597434380883031e-5
      1.617527631832310e-5 1.637873624764950e-5 1.658475538783739e-5 1.679336592979658e-5
      1.700460046934867e-5 1.721849201232022e-5 1.743507397969999e-5 1.765438021286102e-5
      1.787644497884843e-5 1.810130297573369e-5 1.832898933803629e-5 1.855953964221359e-5
      1.879298991221965e-5 1.902937662513415e-5 1.926873671686188e-5 1.951110758790415e-5
      1.975652710920271e-5 2.000503362805705e-5 2.025666597411634e-5 2.051146346544658e-5
      2.076946591467418e-5 2.103071363520676e-5 2.129524744753217e-5 2.156310868559678e-5
      2.183433920326399e-5 2.210898138085401e-5 2.238707813176587e-5 2.266867290918269e-5
      2.295380971286134e-5 2.324253309600751e-5 2.353488817223722e-5 2.383092062262596e-5
      2.413067670284637e-5 2.443420325039583e-5 2.474154769191496e-5 2.505275805059799e-5
      2.536788295369668e-5 2.568697164011824e-5 2.601007396811912e-5 2.633724042309542e-5
      2.666852212547135e-5 2.700397083868693e-5 2.734363897728606e-5 2.768757961510646e-5
      2.803584649357254e-5 2.838849403009259e-5 2.874557732656171e-5 2.910715217797142e-5
      2.947327508112792e-5 2.984400324347967e-5 3.021939459205629e-5 3.059950778251979e-5
      3.098440220832948e-5 3.137413801002249e-5 3.176877608461073e-5 3.216837809509625e-5
      3.257300648010623e-5 3.298272446364902e-5 3.339759606499313e-5 3.381768610867034e-5
      3.424306023460461e-5 3.467378490836861e-5 3.510992743156891e-5 3.555155595236209e-5
      3.599873947610304e-5 3.645154787612710e-5 3.691005190466809e-5 3.737432320391325e-5
      3.784443431719770e-5 3.832045870033929e-5 3.880247073311636e-5 3.929054573088976e-5
      3.978475995637085e-5 4.028519063153783e-5 4.079191594970187e-5 4.130501508772477e-5
      4.182456821839090e-5 4.235065652293390e-5 4.288336220372168e-5 4.342276849710068e-5
      4.396895968640161e-5 4.452202111510912e-5 4.508203920019663e-5 4.564910144562929e-5
      4.622329645603665e-5 4.680471395055727e-5 4.739344477685760e-5 4.798958092532705e-5
      4.859321554345163e-5 4.920444295036853e-5 4.982335865160363e-5 5.045005935399448e-5
      5.108464298080083e-5 5.172720868700545e-5 5.237785687480724e-5 5.303668920930925e-5
      5.370380863440425e-5 5.437931938885962e-5 5.506332702260508e-5 5.575593841322504e-5
      5.645726178265834e-5 5.716740671410841e-5 5.788648416916558e-5 5.861460650514514e-5
      5.935188749264348e-5 6.009844233331481e-5 6.085438767787203e-5 6.161984164431317e-5
      6.239492383637772e-5 6.317975536223518e-5 6.397445885340814e-5 6.477915848393407e-5
      6.559397998976731e-5 6.641905068842596e-5 6.725449949888526e-5 6.810045696172157e-5
      6.895705525950966e-5 6.982442823747625e-5 7.070271142441385e-5 7.159204205385733e-5
      7.249255908552677e-5 7.340440322704065e-5 7.432771695590118e-5 7.526264454175698e-5
      7.620933206894548e-5 7.716792745931876e-5 7.813858049535702e-5 7.912144284357185e-5
      8.011666807820481e-5 8.112441170522358e-5 8.214483118662017e-5 8.317808596501466e-5
      8.422433748856834e-5 8.528374923621037e-5 8.635648674318166e-5 8.744271762690015e-5
      8.854261161315156e-5 8.965634056260875e-5 9.078407849768615e-5 9.192600162973047e-5
      9.308228838655424e-5 9.425311944031597e-5 9.543867773574952e-5 9.663914851875088e-5
      9.785471936532218e-5 9.908558021088119e-5 1.003319233799395e-4 1.015939436161526e-4
      1.028718381127504e-4 1.041658065433476e-4 1.054760510931441e-4 1.068027764905168e-4
      1.081461900390079e-4 1.095065016497178e-4 1.108839238741032e-4 1.122786719371889e-4
      1.136909637711978e-4 1.151210200496017e-4 1.165690642216041e-4 1.180353225470527e-4
      1.195200241317938e-4 1.210234009634712e-4 1.225456879477729e-4 1.240871229451376e-4
      1.256479468079198e-4 1.272284034180234e-4 1.288287397250094e-4 1.304492057846813e-4
      1.320900547981582e-4 1.337515431514366e-4 1.354339304554519e-4 1.371374795866436e-4
      1.388624567280288e-4 1.406091314107958e-4 1.423777765564172e-4 1.441686685192953e-4
      1.459820871299432e-4 1.478183157387077e-4 1.496776412600453e-4 1.515603542173512e-4
      1.534667487883554e-4 1.553971228510887e-4 1.573517780304250e-4 1.593310197452134e-4
      1.613351572559984e-4 1.633645037133435e-4 1.654193762067618e-4 1.675000958142603e-4
      1.696069876525117e-4 1.717403809276518e-4 1.739006089867202e-4 1.760880093697467e-4
      1.783029238624907e-4 1.805456985498485e-4 1.828166838699278e-4 1.851162346688050e-4
      1.874447102559715e-4 1.898024744604743e-4 1.921898956877679e-4 1.946073469772761e-4
      1.970552060606811e-4 1.995338554209453e-4 2.020436823520735e-4 2.045850790196303e-4
      2.071584425220157e-4 2.097641749525120e-4 2.124026834621136e-4 2.150743803231423e-4
      2.177796829936689e-4 2.205190141827396e-4 2.232928019164255e-4 2.261014796047039e-4
      2.289454861091772e-4 2.318252658116486e-4 2.347412686835551e-4 2.376939503562782e-4
      2.406837721923367e-4 2.437112013574749e-4 2.467767108936598e-4 2.498807797929929e-4
      2.530238930725549e-4 2.562065418501907e-4 2.594292234212467e-4 2.626924413362754e-4
      2.659967054797147e-4 2.693425321495597e-4 2.727304441380347e-4 2.761609708132805e-4
      2.796346482020700e-4 2.831520190735622e-4 2.867136330241117e-4 2.903200465631448e-4
      2.939718232001138e-4 2.976695335325484e-4 3.014137553352110e-4 3.052050736503755e-4
      3.090440808792425e-4 3.129313768745019e-4 3.168675690340618e-4 3.208532723959555e-4
      3.248891097344419e-4 3.289757116573164e-4 3.331137167044436e-4 3.373037714475311e-4
      3.415465305911572e-4 3.458426570750698e-4 3.501928221777728e-4 3.545977056214138e-4
      3.590579956779929e-4 3.635743892769060e-4 3.681475921138412e-4 3.727783187610465e-4
      3.774672927789813e-4 3.822152468293762e-4 3.870229227897113e-4 3.918910718691361e-4
      3.968204547258494e-4 4.018118415859508e-4 4.068660123637929e-4 4.119837567838420e-4
      4.171658745040760e-4 4.224131752409320e-4 4.277264788958254e-4 4.331066156832629e-4
      4.385544262605630e-4 4.440707618592120e-4 4.496564844178708e-4 4.553124667170529e-4
      4.610395925155002e-4 4.668387566882703e-4 4.727108653665636e-4 4.786568360793082e-4
      4.846775978965251e-4 4.907740915744977e-4 4.969472697027665e-4 5.031980968529733e-4
      5.095275497295778e-4 5.159366173224694e-4 5.224263010614989e-4 5.289976149729539e-4
      5.356515858380025e-4 5.423892533531297e-4 5.492116702925927e-4 5.561199026729191e-4
      5.631150299194728e-4 5.701981450351176e-4 5.773703547710015e-4 5.846327797994873e-4
      5.919865548892616e-4 5.994328290826434e-4 6.069727658751247e-4 6.146075433971698e-4
      6.223383545982994e-4 6.301664074334923e-4 6.380929250519303e-4 6.461191459881177e-4
      6.542463243554048e-4 6.624757300419475e-4 6.708086489091267e-4 6.792463829924686e-4
      6.877902507050908e-4 6.964415870437050e-4 7.052017437972169e-4 7.140720897579412e-4
      7.230540109354812e-4 7.321489107732945e-4 7.413582103679841e-4 7.506833486913495e-4
      7.601257828152247e-4 7.696869881391530e-4 7.793684586209181e-4 7.891717070099796e-4