Created on Thu Dec 15 17:35:25 2016 

5184 atoms
10 atom types
5184 bonds
11 bond types
9072 angles
20 angle types
9792 dihedrals
5 dihedral types
6048 impropers
1 improper types

0.0000000000000000e+00 3.5466600000000000e+01 xlo xhi
0.0000000000000000e+00 3.3729900000000001e+01 ylo yhi
0.0000000000000000e+00 4.5240937000000002e+01 zlo zhi
0.0000000000000000e+00 -7.8281280000000004e+00 0.0000000000000000e+00 xy xz yz

Masses

    1    12.010700000 # C_R
    2     1.007940000 # H_
    3    15.999400000 # O_R
    4    15.999400000 # O_3_z
    5    15.999400000 # O_2
    6    32.065000000 # S_3+6
    7    22.080000000 # Ca
    8     3.000000000 # Dummy  
    9     3.000000000 # Dummy
   10     3.000000000 # Dummy

Bond Coeffs

    1      646.680887        1.311940  # C_R O_R
    2      391.669513        1.458000  # C_R C_R
    3      462.655054        1.379256  # C_R C_R
    4      357.440381        1.081418  # C_R H_
    5      320.755144        1.749010  # C_R S_3+6
    6      133.916156        2.302728  # O_R Ca6+2
    7      554.219568        1.550135  # O_3_z S_3+6
    8      160.511910        2.167794  # O_3_z Ca6+2
    9      454.920199        1.655586  # O_2 S_3+6
    10     800               0.9       # Ca - D
    11     800               1.273     # D - D

Angle Coeffs

    1              cosine/periodic      137.761490              -1               3 # O_R C_R C_R
    2              cosine/periodic      217.450257              -1               3 # O_R C_R O_R
    3              cosine/periodic      101.626578              -1               3 # C_R C_R C_R
    4              cosine/periodic      117.010657              -1               3 # C_R C_R C_R
    5              cosine/periodic       76.817955              -1               3 # C_R C_R H_
    6              cosine/periodic       87.834471              -1               3 # C_R C_R S_3+6
    7              cosine/periodic       40.137065              -1               3 # C_R O_R Ca6+2
    8                      fourier       27.319590        1.898490        2.651251        0.799497 # S_3+6 O_3_z Ca6+2
    9              cosine/periodic       14.210343              -1               3 # Ca6+2 O_R Ca6+2
   10                      fourier       62.516847        0.343737        0.374972        0.281246 # C_R S_3+6 O_2
   11                      fourier       45.421306        0.343737        0.374972        0.281246 # C_R S_3+6 C_R
   12                      fourier      101.580747        0.343737        0.374972        0.281246 # O_2 S_3+6 O_3_z
   13                      fourier       72.983808        0.343737        0.374972        0.281246 # C_R S_3+6 O_3_z
   14              cosine/periodic       33.313376               1               4 # O_3_z Ca6+2 O_R
   15              cosine/periodic       28.776304               1               4 # O_R Ca6+2 O_R
   16		   harmonic		 125			 180
   17		   harmonic		 125			 90
   18		   harmonic		 125			 45
   19		   harmonic		 125			 90
   20		   harmonic	   	 125			 60

Dihedral Coeffs

    1        2.245703              -1               2 # C_R C_R O_R Ca6+2
    2        0.555556              -1               2 # O_R C_R C_R C_R
    3        1.497136              -1               2 # C_R C_R C_R C_R
    4        0.329404               1               2 # C_R C_R S_3+6 O_3_z
    5        0.230489               1               2 # Ca6+2 O_3_z S_3+6 C_R

Improper Coeffs

    1        2.000000        1.000000       -1.000000        0.000000               0 # O_R C_R C_R O_R

Pair Coeffs

    1        0.105000        3.430851 # C_R C_R
    2        0.044000        2.571134 # H_ H_
    3        0.060000        3.118146 # O_R O_R
    4        0.060000        3.118146 # O_3_z O_3_z
    5        0.060000        3.118146 # O_2 O_2
    6        0.274000        3.594776 # S_3+6 S_3+6
    7        0.103316327     2.857539627 # Ca Ca
    8        5.41769E-08     2.180799 2.0 # D D
    9        5.41769E-08     2.180799 2.0 # D D
   10        5.41769E-08     2.180799 2.0 # D D

Atoms

1 444 1 6.5558000000000005e-01 4.8009800000000000e+00 1.4954700000000001e+00 5.9340299999999999e+00 0 0 0
2 444 1 6.4522000000000002e-01 -8.4955000000000003e-01 4.2630099999999995e+00 5.3743999999999996e+00 0 0 0
3 444 1 6.5498000000000001e-01 3.1050699999999987e+00 4.1510300000000004e+00 1.6687570000000001e+01 0 0 0
4 444 1 6.5217000000000003e-01 8.7560300000000009e+00 1.3268199999999999e+00 1.7245390000000000e+01 0 0 0
5 444 1 -1.2415000000000000e-01 3.5534600000000003e+00 1.1996599999999999e+00 6.7377299999999991e+00 0 0 0
6 444 1 -1.0321000000000000e-01 3.9358000000000004e-01 3.9795699999999998e+00 4.5591600000000003e+00 0 0 0
7 444 1 -1.1418000000000000e-01 4.3506900000000002e+00 4.4364899999999983e+00 1.5877760000000000e+01 0 0 0
8 444 1 -1.1441999999999999e-01 7.5105300000000019e+00 1.6201600000000000e+00 1.8055209999999999e+01 0 0 0
9 444 1 4.5370000000000001e-02 2.5126400000000002e+00 2.1382499999999998e+00 6.7759599999999995e+00 0 0 0
10 444 1 2.4510000000000001e-02 1.4296300000000000e+00 4.9238899999999983e+00 4.5211499999999996e+00 0 0 0
11 444 1 3.5659999999999997e-02 5.3872999999999980e+00 3.4931800000000002e+00 1.5841340000000001e+01 0 0 0
12 444 1 3.7530000000000001e-02 6.4687700000000010e+00 6.8247000000000002e-01 1.8095469999999999e+01 0 0 0
13 444 2 1.4330000000000001e-01 2.6402500000000000e+00 3.0803299999999991e+00 6.2488999999999990e+00 0 0 0
14 444 2 1.4591999999999999e-01 1.3142399999999994e+00 2.5961000000000001e-01 5.0527300000000004e+00 0 0 0
15 444 2 1.4491000000000001e-01 5.2573699999999999e+00 2.5544799999999999e+00 1.6373600000000000e+01 0 0 0
16 444 2 1.4704999999999999e-01 6.6085899999999995e+00 5.3809300000000002e+00 1.7566150000000000e+01 0 0 0
17 444 1 -2.5452999999999998e-01 1.3161499999999997e+00 1.8564900000000000e+00 7.4364800000000004e+00 0 0 0
18 444 1 -2.3399000000000000e-01 2.6251300000000000e+00 4.6523700000000003e+00 3.8540799999999997e+00 0 0 0
19 444 1 -2.4324000000000001e-01 6.5825999999999993e+00 3.7657200000000000e+00 1.5174709999999997e+01 0 0 0
20 444 1 -2.4471999999999999e-01 5.2738100000000010e+00 9.6433999999999997e-01 1.8760059999999999e+01 0 0 0
21 444 2 1.8668000000000001e-01 4.8908999999999936e-01 2.5636999999999999e+00 7.4274300000000002e+00 0 0 0
22 444 2 1.8085000000000001e-01 3.4492299999999996e+00 5.3631700000000002e+00 3.8651599999999999e+00 0 0 0
23 444 2 1.8451000000000001e-01 7.4070099999999996e+00 3.0553699999999999e+00 1.5184670000000001e+01 0 0 0
24 444 2 1.8362000000000001e-01 4.4472800000000010e+00 2.5646000000000002e-01 1.8752140000000001e+01 0 0 0
25 444 1 -2.7699999999999999e-03 1.1865099999999997e+00 6.2490000000000001e-01 8.0879499999999993e+00 0 0 0
26 444 1 -2.9260000000000001e-02 2.7574299999999998e+00 3.4251600000000000e+00 3.1946899999999996e+00 0 0 0
27 444 1 -2.2630000000000001e-02 6.7137200000000004e+00 4.9932600000000003e+00 1.4516009999999998e+01 0 0 0
28 444 1 -1.6670000000000001e-02 5.1455299999999990e+00 2.1952499999999984e+00 1.9413340000000002e+01 0 0 0
29 444 1 -2.2631999999999999e-01 2.2311500000000000e+00 5.3061600000000002e+00 8.1103400000000008e+00 0 0 0
30 444 1 -2.2214999999999999e-01 1.7203000000000013e+00 2.4816199999999999e+00 3.1883599999999994e+00 0 0 0
31 444 1 -2.3744000000000001e-01 5.6814200000000001e+00 3.1491999999999981e-01 1.4528899999999998e+01 0 0 0
32 444 1 -2.2900999999999999e-01 6.1870999999999992e+00 3.1339600000000001e+00 1.9415150000000001e+01 0 0 0
33 444 2 1.4235999999999999e-01 2.1004800000000001e+00 4.3522800000000004e+00 8.6147799999999997e+00 0 0 0
34 444 2 1.4147000000000001e-01 1.8509700000000000e+00 1.5284099999999992e+00 2.6825600000000001e+00 0 0 0
35 444 2 1.4449000000000001e-01 5.8093400000000006e+00 1.2716200000000000e+00 1.4029439999999999e+01 0 0 0
36 444 2 1.4374000000000001e-01 6.0617500000000000e+00 4.0907600000000004e+00 1.9915510000000001e+01 0 0 0
37 444 1 -8.8669999999999999e-02 3.4054099999999998e+00 5.5827499999999990e+00 7.4122800000000000e+00 0 0 0
38 444 1 -9.3380000000000005e-02 5.4596000000000011e-01 2.7567400000000002e+00 3.8875499999999996e+00 0 0 0
39 444 1 -8.3949999999999997e-02 4.5051000000000005e+00 2.8670000000000001e-02 1.5220409999999999e+01 0 0 0
40 444 1 -8.9410000000000003e-02 7.3614100000000011e+00 2.8478200000000000e+00 1.8719570000000001e+01 0 0 0
41 444 2 1.3594999999999999e-01 4.1971899999999973e+00 4.8377699999999999e+00 7.3491600000000004e+00 0 0 0
42 444 2 1.3633000000000001e-01 -2.4538000000000015e-01 2.0113099999999999e+00 3.9502100000000002e+00 0 0 0
43 444 2 1.3594999999999999e-01 3.7097799999999994e+00 7.6983000000000001e-01 1.5282159999999998e+01 0 0 0
44 444 2 1.3642000000000001e-01 8.1564200000000007e+00 3.5893099999999998e+00 1.8656910000000000e+01 0 0 0
45 444 1 -4.3420000000000000e-02 -1.1055999999999999e-01 6.1636000000000002e-01 1.0614200000000000e+01 0 0 0
46 444 1 -4.9660000000000003e-02 4.0725899999999999e+00 3.4102100000000002e+00 6.7251000000000005e-01 0 0 0
47 444 1 -5.1659999999999998e-02 8.0154800000000002e+00 5.0124899999999997e+00 1.1989300000000000e+01 0 0 0
48 444 1 -4.3679999999999997e-02 3.8379400000000001e+00 2.2164999999999999e+00 2.1942309999999999e+01 0 0 0
49 444 1 -1.9202000000000000e-01 -5.2315000000000111e-01 1.8668400000000001e+00 1.1084260000000000e+01 0 0 0
50 444 1 -1.8729000000000001e-01 4.4834100000000001e+00 4.6612499999999999e+00 2.0176999999999998e-01 0 0 0
51 444 1 -1.8475000000000000e-01 8.4235199999999999e+00 3.7651599999999998e+00 1.1506580000000000e+01 0 0 0
52 444 1 -1.9069000000000000e-01 3.4279600000000001e+00 9.6760000000000002e-01 2.2419820000000001e+01 0 0 0
53 444 2 1.6406000000000001e-01 -9.1905999999999977e-01 2.6055199999999998e+00 1.0392070000000000e+01 0 0 0
54 444 2 1.6014999999999999e-01 4.8743200000000000e+00 5.4020699999999966e+00 8.9487000000000005e-01 0 0 0
55 444 2 1.6047000000000000e-01 8.8139899999999987e+00 3.0167999999999999e+00 1.2191979999999999e+01 0 0 0
56 444 2 1.6075000000000000e-01 3.0360599999999995e+00 2.2328999999999999e-01 2.1731030000000001e+01 0 0 0
57 444 1 1.9300000000000001e-03 -4.2759000000000924e-01 2.1352199999999999e+00 1.2447820000000000e+01 0 0 0
58 444 1 2.1099999999999999e-03 4.7671000000000019e-01 4.9297399999999998e+00 2.1458230000000000e+01 0 0 0
59 444 1 -7.2700000000000004e-03 8.3309200000000008e+00 3.5127399999999982e+00 1.0139620000000001e+01 0 0 0
60 444 1 9.2000000000000003e-04 7.4364299999999979e+00 7.0574000000000003e-01 1.1647300000000000e+00 0 0 0
61 444 2 1.2629000000000001e-01 -7.6953000000000005e-01 3.0850499999999998e+00 1.2849780000000001e+01 0 0 0
62 444 2 1.2716000000000000e-01 8.0937999999999333e-01 2.4554999999999999e-01 2.1053100000000001e+01 0 0 0
63 444 2 1.2903999999999999e-01 8.6651699999999980e+00 2.5629100000000000e+00 9.7308699999999995e+00 0 0 0
64 444 2 1.2650000000000000e-01 7.0931499999999987e+00 5.3605799999999970e+00 1.5601300000000002e+00 0 0 0
65 444 1 -1.0221000000000000e-01 7.0569999999999578e-02 1.1700900000000001e+00 1.3330690000000001e+01 0 0 0
66 444 1 -1.0710000000000000e-01 -1.5550000000000175e-02 3.9660700000000002e+00 2.0568570000000001e+01 0 0 0
67 444 1 -1.0210000000000000e-01 7.8446199999999973e+00 4.4906899999999998e+00 9.2612699999999997e+00 0 0 0
68 444 1 -1.0743000000000000e-01 7.9287299999999998e+00 1.6745799999999995e+00 2.0494100000000000e+00 0 0 0
69 444 1 -5.9060000000000001e-02 5.0104999999999933e-01 5.5190000000000001e+00 1.2856339999999999e+01 0 0 0
70 444 1 -6.0740000000000002e-02 -4.5104999999999995e-01 2.7258300000000002e+00 2.1058979999999998e+01 0 0 0
71 444 1 -6.5299999999999997e-02 7.3983200000000000e+00 6.8919999999999995e-02 9.7799600000000009e+00 0 0 0
72 444 1 -5.6770000000000001e-02 8.3658400000000004e+00 2.9112299999999998e+00 1.5517599999999998e+00 0 0 0
73 444 2 1.1533000000000000e-01 8.7997000000000059e-01 4.7641200000000001e+00 1.3544909999999998e+01 0 0 0
74 444 2 1.1641000000000000e-01 -8.3203999999999567e-01 1.9781499999999992e+00 2.0363849999999999e+01 0 0 0
75 444 2 1.1817000000000000e-01 7.0134299999999987e+00 8.1333999999999995e-01 9.0841499999999993e+00 0 0 0
76 444 2 1.1513000000000000e-01 8.7470900000000000e+00 3.6623899999999998e+00 2.2432699999999999e+00 0 0 0
77 444 1 -1.9459000000000001e-01 4.2554999999999921e-01 5.2581499999999997e+00 1.1486900000000000e+01 0 0 0
78 444 1 -1.9481999999999999e-01 -3.7299000000000371e-01 2.4472200000000002e+00 2.2425249999999998e+01 0 0 0
79 444 1 -1.9436999999999999e-01 7.4801200000000012e+00 3.4686000000000000e-01 1.1144430000000000e+01 0 0 0
80 444 1 -1.9810000000000000e-01 8.2869499999999992e+00 3.1821899999999981e+00 1.8412999999999996e-01 0 0 0
81 444 2 1.3719000000000001e-01 7.4683999999999995e-01 4.2995500000000000e+00 1.1089460000000001e+01 0 0 0
82 444 2 1.3664000000000001e-01 3.2203200000000005e+00 1.4835499999999999e+00 1.9023999999999996e-01 0 0 0
83 444 2 1.3866999999999999e-01 7.1598000000000024e+00 1.3095100000000000e+00 1.1532819999999997e+01 0 0 0
84 444 2 1.3719999999999999e-01 4.6947799999999997e+00 4.1434899999999999e+00 2.2413940000000000e+01 0 0 0
85 444 1 5.8021000000000000e-01 1.2396000000000029e-01 1.4696099999999994e+00 1.4797860000000000e+01 0 0 0
86 444 1 5.8004999999999995e-01 -7.4850000000000083e-02 4.2858299999999998e+00 1.9102080000000001e+01 0 0 0
87 444 1 5.8531999999999995e-01 7.7911900000000029e+00 4.1893700000000003e+00 7.7916200000000000e+00 0 0 0
88 444 1 5.8540999999999999e-01 7.9844099999999996e+00 1.3639200000000000e+00 3.5183900000000001e+00 0 0 0
89 444 3 -6.5451999999999999e-01 5.0772700000000004e+00 2.7239100000000001e+00 5.7412999999999990e+00 0 0 0
90 444 3 -6.5786999999999995e-01 1.0694039999999999e+01 5.4898800000000003e+00 5.5730000000000004e+00 0 0 0
91 444 3 -6.5966000000000002e-01 2.8258299999999994e+00 2.9231500000000001e+00 1.6883009999999999e+01 0 0 0
92 444 3 -6.5412000000000003e-01 -2.7879900000000002e+00 9.9049999999999999e-02 1.7049270000000000e+01 0 0 0
93 444 3 -6.0504999999999998e-01 5.4528499999999989e+00 5.0065999999999999e-01 5.4940600000000002e+00 0 0 0
94 444 3 -5.9758999999999995e-01 1.0329449999999994e+01 3.2615699999999999e+00 5.8141400000000001e+00 0 0 0
95 444 3 -6.0167000000000004e-01 2.4605299999999990e+00 5.1514600000000002e+00 1.7125499999999999e+01 0 0 0
96 444 3 -6.0999000000000003e-01 -2.4181200000000000e+00 2.3250000000000002e+00 1.6805650000000000e+01 0 0 0
97 444 4 -5.0461999999999996e-01 -1.3721899999999982e+00 1.1524399999999999e+00 8.4023699999999995e+00 0 0 0
98 444 4 -5.1188999999999996e-01 5.3298800000000028e+00 3.9224500000000000e+00 2.9074100000000000e+00 0 0 0
99 444 4 -5.1312999999999998e-01 9.2828800000000005e+00 4.4908000000000001e+00 1.4216960000000000e+01 0 0 0
100 444 4 -5.0597999999999999e-01 2.5831799999999991e+00 1.6759299999999999e+00 1.9714639999999999e+01 0 0 0
101 444 5 -4.9048000000000003e-01 -5.3430000000000055e-01 4.3957899999999999e+00 8.8072800000000004e+00 0 0 0
102 444 5 -4.9153999999999998e-01 4.4877399999999996e+00 1.5683300000000000e+00 2.5011500000000000e+00 0 0 0
103 444 5 -4.8814999999999997e-01 8.4462299999999999e+00 1.2340599999999999e+00 1.3815220000000000e+01 0 0 0
104 444 5 -4.8918000000000000e-01 3.4178699999999997e+00 4.0587200000000001e+00 2.0116830000000000e+01 0 0 0
105 444 3 -5.6330000000000002e-01 1.6493000000000091e-01 2.6756799999999998e+00 1.5184220000000000e+01 0 0 0
106 444 3 -5.6066000000000005e-01 -1.2595000000000001e-01 5.5017999999999976e+00 1.8747620000000001e+01 0 0 0
107 444 3 -5.6832000000000005e-01 7.7417400000000001e+00 2.9755400000000001e+00 7.4310499999999999e+00 0 0 0
108 444 3 -5.6740000000000002e-01 8.0327899999999950e+00 1.4885999999999999e-01 3.8776000000000002e+00 0 0 0
109 444 3 -5.8060000000000000e-01 1.7598999999998854e-01 4.7828999999999999e-01 1.5607440000000000e+01 0 0 0
110 444 3 -5.7962999999999998e-01 -1.2014000000001079e-01 3.3170000000000002e+00 1.8263089999999998e+01 0 0 0
111 444 3 -5.8145000000000002e-01 7.7467400000000000e+00 5.1645000000000003e+00 6.9587300000000001e+00 0 0 0
112 444 3 -5.7772999999999997e-01 8.0296099999999999e+00 2.3353499999999996e+00 4.3544400000000003e+00 0 0 0
113 444 6 9.7997999999999996e-01 -3.4138000000000002e-01 2.1306000000000000e-01 8.8955000000000002e+00 0 0 0
114 444 6 1.0039100000000001e+00 4.2898300000000003e+00 3.0098299999999996e+00 2.3973200000000001e+00 0 0 0
115 444 6 1.0019700000000000e+00 8.2417800000000021e+00 5.4065699999999977e+00 1.3712300000000001e+01 0 0 0
116 444 6 9.9026999999999998e-01 3.6135299999999990e+00 2.6119300000000001e+00 2.0215910000000001e+01 0 0 0
117 444 7 -6.3949000000000000e-01 6.6585799999999997e+00 4.2025199999999998e+00 4.9857800000000001e+00 0 0 0
118 444 7 -6.3717999999999997e-01 9.1067000000000000e+00 1.3863000000000001e+00 6.3373499999999989e+00 0 0 0
119 444 7 -6.4003500000000002e-01 1.2510000000000003e+00 1.4165399999999999e+00 1.7623609999999999e+01 0 0 0
120 444 7 -6.4120999999999995e-01 -1.2270899999999989e+00 4.2310800000000004e+00 1.6292169999999999e+01 0 0 0
121 444 1 6.5500000000000003e-01 4.8030600000000003e+00 7.0922700000000001e+00 5.9329000000000010e+00 0 0 0
122 444 1 6.5212000000000003e-01 -8.4790000000000010e-01 9.9164800000000000e+00 5.3750799999999996e+00 0 0 0
123 444 1 6.5569999999999995e-01 3.1071599999999990e+00 9.7478299999999951e+00 1.6686440000000001e+01 0 0 0
124 444 1 6.4520000000000000e-01 8.7576900000000002e+00 6.9802900000000001e+00 1.7246070000000000e+01 0 0 0
125 444 1 -1.1420000000000000e-01 3.5574499999999993e+00 6.8068099999999960e+00 6.7427099999999989e+00 0 0 0
126 444 1 -1.1434000000000000e-01 3.9760000000000006e-01 9.6231399999999994e+00 4.5652600000000003e+00 0 0 0
127 444 1 -1.2422000000000000e-01 4.3546699999999943e+00 1.0043640000000000e+01 1.5882740000000000e+01 0 0 0
128 444 1 -1.0317000000000000e-01 7.5145599999999995e+00 7.2637299999999998e+00 1.8061309999999999e+01 0 0 0
129 444 1 3.5680000000000003e-02 2.5208399999999997e+00 7.7501199999999955e+00 6.7791300000000003e+00 0 0 0
130 444 1 3.7479999999999999e-02 1.4393700000000000e+00 1.0560829999999999e+01 4.5250000000000004e+00 0 0 0
131 444 1 4.5379999999999997e-02 5.3954599999999999e+00 9.1050500000000003e+00 1.5844730000000000e+01 0 0 0
132 444 1 2.4459999999999999e-02 6.4785500000000003e+00 6.3194100000000004e+00 1.8099090000000000e+01 0 0 0
133 444 2 1.4490000000000000e-01 2.6507699999999996e+00 8.6888199999999998e+00 6.2468700000000004e+00 0 0 0
134 444 2 1.4702999999999999e-01 1.2995800000000000e+00 5.8624799999999961e+00 5.0540900000000004e+00 0 0 0
135 444 2 1.4330000000000001e-01 5.2678899999999995e+00 8.1629699999999996e+00 1.6371559999999999e+01 0 0 0
136 444 2 1.4591000000000001e-01 6.5938600000000012e+00 1.0983689999999999e+01 1.7567959999999999e+01 0 0 0
137 444 1 -2.4323000000000000e-01 1.3255399999999999e+00 7.4775799999999997e+00 7.4457499999999994e+00 0 0 0
138 444 1 -2.4470000000000000e-01 2.6343200000000002e+00 1.0278959999999996e+01 3.8604099999999999e+00 0 0 0
139 444 1 -2.5452999999999998e-01 6.5921099999999999e+00 9.3868100000000005e+00 1.5183990000000000e+01 0 0 0
140 444 1 -2.3391999999999999e-01 5.2829999999999995e+00 6.5909300000000002e+00 1.8766390000000001e+01 0 0 0
141 444 2 1.8448999999999999e-01 5.0111999999999846e-01 8.1879299999999997e+00 7.4358000000000004e+00 0 0 0
142 444 2 1.8360000000000001e-01 3.4608599999999998e+00 1.0986839999999994e+01 3.8683299999999998e+00 0 0 0
143 444 2 1.8668000000000001e-01 7.4191599999999998e+00 8.6796000000000006e+00 1.5193040000000000e+01 0 0 0
144 444 2 1.8082999999999999e-01 4.4589099999999995e+00 5.8801300000000003e+00 1.8755310000000001e+01 0 0 0
145 444 1 -2.2620000000000001e-02 1.1944200000000003e+00 6.2500400000000003e+00 8.1044599999999996e+00 0 0 0
146 444 1 -1.6670000000000001e-02 2.7626100000000005e+00 9.0480499999999999e+00 3.2071299999999998e+00 0 0 0
147 444 1 -2.7699999999999999e-03 6.7216199999999997e+00 1.0618399999999999e+01 1.4532520000000000e+01 0 0 0
148 444 1 -2.9250000000000002e-02 5.1506999999999987e+00 7.8181399999999996e+00 1.9425780000000000e+01 0 0 0
149 444 1 -2.3744999999999999e-01 2.2267100000000006e+00 1.0928380000000001e+01 8.0915700000000008e+00 0 0 0
150 444 1 -2.2902000000000000e-01 1.7210300000000001e+00 8.1093399999999995e+00 3.2053199999999999e+00 0 0 0
151 444 1 -2.2630000000000000e-01 5.6769899999999964e+00 5.9371400000000003e+00 1.4510130000000000e+01 0 0 0
152 444 1 -2.2219000000000000e-01 6.1877899999999997e+00 8.7616800000000001e+00 1.9432340000000000e+01 0 0 0
153 444 2 1.4448000000000000e-01 2.0988000000000002e+00 9.9716799999999992e+00 8.5910299999999999e+00 0 0 0
154 444 2 1.4374999999999999e-01 1.8463900000000000e+00 7.1525400000000001e+00 2.7049599999999998e+00 0 0 0
155 444 2 1.4235999999999999e-01 5.8076600000000003e+00 6.8910199999999966e+00 1.4005690000000000e+01 0 0 0
156 444 2 1.4149000000000000e-01 6.0572800000000004e+00 9.7148900000000005e+00 1.9937909999999999e+01 0 0 0
157 444 1 -8.3930000000000005e-02 3.4031500000000001e+00 1.1214630000000000e+01 7.4000599999999999e+00 0 0 0
158 444 1 -8.9410000000000003e-02 5.4672999999999938e-01 8.3954799999999992e+00 3.9009000000000000e+00 0 0 0
159 444 1 -8.8690000000000005e-02 4.5027200000000001e+00 5.6605499999999997e+00 1.5208190000000000e+01 0 0 0
160 444 1 -9.3369999999999995e-02 7.3621400000000001e+00 8.4865600000000008e+00 1.8733139999999999e+01 0 0 0
161 444 2 1.3594000000000001e-01 4.1983600000000001e+00 1.0473470000000001e+01 7.3383099999999990e+00 0 0 0
162 444 2 1.3639999999999999e-01 -2.4827999999999967e-01 7.6539900000000003e+00 3.9635600000000002e+00 0 0 0
163 444 2 1.3597000000000001e-01 3.7109399999999990e+00 6.4055299999999997e+00 1.5271300000000000e+01 0 0 0
164 444 2 1.3633000000000001e-01 8.1534800000000001e+00 9.2319899999999997e+00 1.8670480000000001e+01 0 0 0
165 444 1 -5.1650000000000001e-02 -1.0734000000000044e-01 6.2308100000000000e+00 1.0631169999999999e+01 0 0 0
166 444 1 -4.3630000000000002e-02 4.0701999999999989e+00 9.0267999999999997e+00 6.7815999999999999e-01 0 0 0
167 444 1 -4.3450000000000003e-02 8.0185700000000004e+00 1.0626939999999999e+01 1.2006270000000001e+01 0 0 0
168 444 1 -4.9669999999999999e-02 3.8354999999999997e+00 7.8330900000000003e+00 2.1948190000000000e+01 0 0 0
169 444 1 -1.8476000000000001e-01 -5.1539000000000001e-01 7.4782599999999997e+00 1.1113890000000000e+01 0 0 0
170 444 1 -1.9070999999999999e-01 4.4801799999999998e+00 1.0275699999999997e+01 2.0064000000000001e-01 0 0 0
171 444 1 -1.9198000000000001e-01 8.4311699999999998e+00 9.3764599999999998e+00 1.1536210000000001e+01 0 0 0
172 444 1 -1.8731999999999999e-01 3.4247200000000002e+00 6.5820499999999988e+00 2.2418690000000002e+01 0 0 0
173 444 2 1.6047000000000000e-01 -9.0586000000000000e-01 8.2264999999999997e+00 1.0428490000000000e+01 0 0 0
174 444 2 1.6075000000000000e-01 4.8721900000000051e+00 1.1020009999999999e+01 8.8944000000000001e-01 0 0 0
175 444 2 1.6406000000000001e-01 8.8271999999999995e+00 8.6377799999999993e+00 1.2228400000000001e+01 0 0 0
176 444 2 1.6016000000000000e-01 3.0338099999999999e+00 5.8413399999999998e+00 2.1725600000000000e+01 0 0 0
177 444 1 -7.2600000000000000e-03 -4.2279000000000977e-01 7.7305599999999997e+00 1.2480839999999999e+01 0 0 0
178 444 1 9.3999999999999997e-04 4.7182000000000013e-01 1.0537559999999999e+01 2.1455739999999999e+01 0 0 0
179 444 1 1.9100000000000000e-03 8.3357299999999999e+00 9.1080799999999993e+00 1.0172650000000001e+01 0 0 0
180 444 1 2.1400000000000000e-03 7.4313099999999999e+00 6.3134499999999996e+00 1.1622399999999999e+00 0 0 0
181 444 2 1.2903999999999999e-01 -7.5703000000000009e-01 8.6803899999999992e+00 1.2889600000000000e+01 0 0 0
182 444 2 1.2651000000000001e-01 8.1486999999999554e-01 5.8827199999999973e+00 2.1060330000000000e+01 0 0 0
183 444 2 1.2630000000000000e-01 8.6776599999999959e+00 8.1582500000000007e+00 9.7706900000000001e+00 0 0 0
184 444 2 1.2716000000000000e-01 7.0987499999999990e+00 1.0997750000000000e+01 1.5673699999999999e+00 0 0 0
185 444 1 -1.0211000000000001e-01 6.3510000000001288e-02 6.7526099999999998e+00 1.3359200000000000e+01 0 0 0
186 444 1 -1.0742000000000000e-01 -2.0590000000000330e-02 9.5687200000000008e+00 2.0571050000000000e+01 0 0 0
187 444 1 -1.0221000000000000e-01 7.8375599999999999e+00 1.0073210000000000e+01 9.2897700000000007e+00 0 0 0
188 444 1 -1.0706000000000000e-01 7.9236899999999988e+00 7.2771100000000004e+00 2.0518999999999998e+00 0 0 0
189 444 1 -6.5310000000000007e-02 5.0981999999999994e-01 1.1174490000000000e+01 1.2840510000000000e+01 0 0 0
190 444 1 -5.6820000000000002e-02 -4.5770000000000000e-01 8.3320699999999999e+00 2.1068700000000000e+01 0 0 0
191 444 1 -5.9080000000000001e-02 7.4070900000000011e+00 5.7243000000000004e+00 9.7641299999999998e+00 0 0 0
192 444 1 -6.0800000000000000e-02 8.3591899999999928e+00 8.5174699999999994e+00 1.5614900000000000e+00 0 0 0
193 444 2 1.1817999999999999e-01 8.9469999999999983e-01 1.0429959999999999e+01 1.3536310000000000e+01 0 0 0
194 444 2 1.1516000000000000e-01 -8.3896000000000015e-01 7.5809100000000003e+00 2.0377199999999998e+01 0 0 0
195 444 2 1.1534000000000000e-01 7.0281599999999997e+00 6.4791800000000004e+00 9.0755599999999994e+00 0 0 0
196 444 2 1.1642000000000000e-01 8.7402899999999999e+00 9.2651499999999967e+00 2.2566199999999998e+00 0 0 0
197 444 1 -1.9439000000000001e-01 4.2801999999999940e-01 1.0896440000000000e+01 1.1476039999999999e+01 0 0 0
198 444 1 -1.9811999999999999e-01 -3.7893000000000043e-01 8.0611099999999993e+00 2.2436340000000001e+01 0 0 0
199 444 1 -1.9458000000000000e-01 7.4825899999999992e+00 5.9852600000000002e+00 1.1133570000000001e+01 0 0 0
200 444 1 -1.9480000000000000e-01 8.2811299999999939e+00 8.7959699999999987e+00 1.9520999999999999e-01 0 0 0
201 444 2 1.3866999999999999e-01 7.4833000000000016e-01 9.9337899999999948e+00 1.1087650000000000e+01 0 0 0
202 444 2 1.3719999999999999e-01 3.2132399999999990e+00 7.0998099999999997e+00 2.0652000000000001e-01 0 0 0
203 444 2 1.3718000000000000e-01 7.1612999999999989e+00 6.9437499999999970e+00 1.1531009999999998e+01 0 0 0
204 444 2 1.3664999999999999e-01 4.6879400000000002e+00 9.7597500000000004e+00 2.2430230000000002e+01 0 0 0
205 444 1 5.8531999999999995e-01 1.1694999999999967e-01 7.0539300000000003e+00 1.4828849999999999e+01 0 0 0
206 444 1 5.8543999999999996e-01 -7.6150000000001938e-02 9.8793799999999994e+00 1.9102080000000001e+01 0 0 0
207 444 1 5.8020000000000005e-01 7.7841699999999987e+00 9.7736900000000002e+00 7.8226100000000001e+00 0 0 0
208 444 1 5.8001000000000003e-01 7.9829900000000000e+00 6.9574699999999998e+00 3.5183900000000001e+00 0 0 0
209 444 3 -6.5966000000000002e-01 5.0823099999999997e+00 8.3201499999999999e+00 5.7374599999999987e+00 0 0 0
210 444 3 -6.5410999999999997e-01 1.0696120000000001e+01 1.1144250000000000e+01 5.5712000000000002e+00 0 0 0
211 444 3 -6.5458000000000005e-01 2.8308600000000004e+00 8.5193899999999996e+00 1.6879169999999998e+01 0 0 0
212 444 3 -6.5786999999999995e-01 -2.7858999999999998e+00 5.7534200000000002e+00 1.7047460000000001e+01 0 0 0
213 444 3 -6.0168999999999995e-01 5.4476099999999965e+00 6.0918400000000004e+00 5.4949599999999998e+00 0 0 0
214 444 3 -6.0997000000000001e-01 1.0326260000000010e+01 8.9183000000000003e+00 5.8148200000000001e+00 0 0 0
215 444 3 -6.0509999999999997e-01 2.4552899999999989e+00 1.0742640000000000e+01 1.7126410000000000e+01 0 0 0
216 444 3 -5.9758999999999995e-01 -2.4213100000000001e+00 7.9817299999999998e+00 1.6806329999999999e+01 0 0 0
217 444 4 -5.1312000000000002e-01 -1.3747500000000048e+00 6.7524999999999995e+00 8.4034999999999993e+00 0 0 0
218 444 4 -5.0595999999999997e-01 5.3249500000000003e+00 9.5673700000000004e+00 2.9058299999999999e+00 0 0 0
219 444 4 -5.0463000000000002e-01 9.2803199999999979e+00 1.0090859999999999e+01 1.4218100000000000e+01 0 0 0
220 444 4 -5.1188999999999996e-01 2.5782600000000002e+00 7.3208500000000001e+00 1.9713059999999999e+01 0 0 0
221 444 5 -4.8812000000000000e-01 -5.3808999999999996e-01 1.0009239999999998e+01 8.8052399999999995e+00 0 0 0
222 444 5 -4.8916999999999999e-01 4.4902600000000001e+00 7.1845800000000004e+00 2.5036299999999998e+00 0 0 0
223 444 5 -4.9047000000000002e-01 8.4424399999999995e+00 6.8475099999999980e+00 1.3813190000000001e+01 0 0 0
224 444 5 -4.9156000000000000e-01 3.4203999999999999e+00 9.6749700000000001e+00 2.0119319999999998e+01 0 0 0
225 444 3 -5.6833000000000000e-01 1.6638999999999982e-01 8.2677600000000009e+00 1.5189419999999998e+01 0 0 0
226 444 3 -5.6740000000000002e-01 -1.2466000000000088e-01 1.1094440000000001e+01 1.8742870000000000e+01 0 0 0
227 444 3 -5.6330000000000002e-01 7.7432099999999995e+00 8.5676199999999998e+00 7.4362500000000002e+00 0 0 0
228 444 3 -5.6064999999999998e-01 8.0340900000000008e+00 5.7415000000000003e+00 3.8728500000000001e+00 0 0 0
229 444 3 -5.8143999999999996e-01 1.6151000000000026e-01 6.0789199999999983e+00 1.5661729999999999e+01 0 0 0
230 444 3 -5.7772999999999997e-01 -1.2146999999999997e-01 8.9079499999999978e+00 1.8266030000000001e+01 0 0 0
231 444 3 -5.8057999999999998e-01 7.7321399999999993e+00 1.0765010000000000e+01 7.0130200000000000e+00 0 0 0
232 444 3 -5.7959000000000005e-01 8.0282699999999991e+00 7.9262999999999968e+00 4.3573800000000000e+00 0 0 0
233 444 6 1.0019700000000000e+00 -3.3363999999999994e-01 5.8367300000000002e+00 8.9081700000000001e+00 0 0 0
234 444 6 9.9021999999999999e-01 4.2946100000000005e+00 8.6313700000000004e+00 2.4045600000000000e+00 0 0 0
235 444 6 9.7999999999999998e-01 8.2495200000000004e+00 1.1030350000000000e+01 1.3724970000000001e+01 0 0 0
236 444 6 1.0039100000000001e+00 3.6183000000000001e+00 8.2334700000000005e+00 2.0223150000000000e+01 0 0 0
237 444 7 -6.4002499999999996e-01 6.6571400000000001e+00 9.8267600000000002e+00 4.9968599999999999e+00 0 0 0
238 444 7 -6.4120500000000002e-01 9.1353399999999993e+00 7.0122199999999983e+00 6.3282999999999996e+00 0 0 0
239 444 7 -6.3948499999999997e-01 1.2495500000000002e+00 7.0407799999999998e+00 1.7634689999999999e+01 0 0 0