units           real
atom_style      full
boundary        p p p

pair_style      lj/cut 5.000
bond_style      harmonic
angle_style     hybrid cosine/periodic fourier
dihedral_style  harmonic
improper_style  fourier

pair_modify     tail yes mix arithmetic
special_bonds   lj/coul 0.0 0.0 1.0
dielectric      1.0
box tilt        large
read_data       data.NiPyC2_relax_sc211_meta_functionalized_CH2-CH2-CH3
  triclinic box = (0 0 0) to (12.5056 12.5234 10.2743) with tilt (0 -0.227594 0)
  1 by 1 by 1 MPI processor grid
  reading atoms ...
  180 atoms
  scanning bonds ...
  6 = max bonds/atom
  scanning angles ...
  15 = max angles/atom
  scanning dihedrals ...
  14 = max dihedrals/atom
  scanning impropers ...
  3 = max impropers/atom
  reading bonds ...
  200 bonds
  reading angles ...
  388 angles
  reading dihedrals ...
  448 dihedrals
  reading impropers ...
  168 impropers
  6 = max # of 1-2 neighbors
  9 = max # of 1-3 neighbors
  12 = max # of special neighbors
  special bonds CPU = 0.000218618 secs
  read_data CPU = 0.00649274 secs

#### Atom Groupings ####
group           fram     id   1:180
180 atoms in group fram
#### END Atom Groupings ####

dump            NiPyC2_relax_sc211_meta_functionalized_CH2-CH2-CH3_xyzmov all xyz 20000 NiPyC2_relax_sc211_meta_functionalized_CH2-CH2-CH3_mov.xyz
dump_modify     NiPyC2_relax_sc211_meta_functionalized_CH2-CH2-CH3_xyzmov element Ni O N C H C
min_style       cg
print           "MinStep,CellMinStep,AtomMinStep,FinalStep,Energy,EDiff" file NiPyC2_relax_sc211_meta_functionalized_CH2-CH2-CH3.min.csv screen no
variable        min_eval   equal 1.00e-06
variable        prev_E     equal 50000.00
variable        iter       loop 100000
label           loop_min
min_style       cg
fix             1 all box/relax aniso 0.0 vmax 0.01
minimize        1.0e-15 1.0e-15 10000 100000
WARNING: Using 'neigh_modify every 1 delay 0 check yes' setting during minimization (src/min.cpp:190)
Neighbor list info ...
  update every 1 steps, delay 0 steps, check yes
  max neighbors/atom: 2000, page size: 100000
  master list distance cutoff = 7
  ghost atom cutoff = 7
  binsize = 3.5, bins = 4 4 3
  1 neighbor lists, perpetual/occasional/extra = 1 0 0
  (1) pair lj/cut, perpetual
      attributes: half, newton on
      pair build: half/bin/newton/tri
      stencil: half/bin/3d/newton/tri
      bin: standard
WARNING: Inconsistent image flags (src/domain.cpp:785)
WARNING: Bond/angle/dihedral extent > half of periodic box length (src/domain.cpp:906)
Per MPI rank memory allocation (min/avg/max) = 18.81 | 18.81 | 18.81 Mbytes
Step Temp E_pair E_mol TotEng Press Volume 
       0            0 1.6852807e+10     2228.566 1.6852809e+10 2.8726302e+12    1609.0819 
     596            0    235.78421    1888.7673    2124.5516    892.04302    1731.4072 
WARNING: Bond/angle/dihedral extent > half of periodic box length (src/domain.cpp:906)
Loop time of 0.249805 on 1 procs for 596 steps with 180 atoms

98.9% CPU use with 1 MPI tasks x 1 OpenMP threads

Minimization stats:
  Stopping criterion = linesearch alpha is zero
  Energy initial, next-to-last, final = 
         16852809254.6      2124.55155876      2124.55155876
  Force two-norm initial, final = 5.06325e+11 67.9043
  Force max component initial, final = 2.12065e+11 45.2056
  Final line search alpha, max atom move = 1.59054e-12 7.19011e-11
  Iterations, force evaluations = 596 987

MPI task timing breakdown:
Section |  min time  |  avg time  |  max time  |%varavg| %total
---------------------------------------------------------------
Pair    | 0.12919    | 0.12919    | 0.12919    |   0.0 | 51.72
Bond    | 0.074341   | 0.074341   | 0.074341   |   0.0 | 29.76
Neigh   | 0.016736   | 0.016736   | 0.016736   |   0.0 |  6.70
Comm    | 0.0067792  | 0.0067792  | 0.0067792  |   0.0 |  2.71
Output  | 0          | 0          | 0          |   0.0 |  0.00
Modify  | 0          | 0          | 0          |   0.0 |  0.00
Other   |            | 0.02276    |            |       |  9.11

Nlocal:    180 ave 180 max 180 min
Histogram: 1 0 0 0 0 0 0 0 0 0
Nghost:    1695 ave 1695 max 1695 min
Histogram: 1 0 0 0 0 0 0 0 0 0
Neighs:    12868 ave 12868 max 12868 min
Histogram: 1 0 0 0 0 0 0 0 0 0

Total # of neighbors = 12868
Ave neighs/atom = 71.4889
Ave special neighs/atom = 6.35556
Neighbor list builds = 24
Dangerous builds = 0
unfix           1
min_style       fire
variable        tempstp    equal $(step)
variable        tempstp    equal 596
variable        CellMinStep equal ${tempstp}
variable        CellMinStep equal 596
minimize        1.0e-15 1.0e-15 10000 100000
WARNING: Using 'neigh_modify every 1 delay 0 check yes' setting during minimization (src/min.cpp:190)
  Parameters for fire: 
    dmax delaystep dtgrow dtshrink alpha0 alphashrink tmax tmin    integrator halfstepback 
     0.1        20    1.1      0.5   0.25        0.99   10 0.02 eulerimplicit          yes 
WARNING: Inconsistent image flags (src/domain.cpp:785)
WARNING: Bond/angle/dihedral extent > half of periodic box length (src/domain.cpp:906)
Per MPI rank memory allocation (min/avg/max) = 17.68 | 17.68 | 17.68 Mbytes
Step Temp E_pair E_mol TotEng Press 
     596            0    235.78421    1888.7673    2124.5516    892.04302 
    7760 7.973428e-11    109.51627    1830.2252    1939.7415   -31985.889 
WARNING: Bond/angle/dihedral extent > half of periodic box length (src/domain.cpp:906)
Loop time of 1.57945 on 1 procs for 7164 steps with 180 atoms

99.7% CPU use with 1 MPI tasks x 1 OpenMP threads

Minimization stats:
  Stopping criterion = energy tolerance
  Energy initial, next-to-last, final = 
         2124.55155876      1939.74149891      1939.74149891
  Force two-norm initial, final = 47.0456 3.34469e-05
  Force max component initial, final = 9.37625 9.47794e-06
  Final line search alpha, max atom move = 0 0
  Iterations, force evaluations = 7164 7164

MPI task timing breakdown:
Section |  min time  |  avg time  |  max time  |%varavg| %total
---------------------------------------------------------------
Pair    | 0.99188    | 0.99188    | 0.99188    |   0.0 | 62.80
Bond    | 0.49486    | 0.49486    | 0.49486    |   0.0 | 31.33
Neigh   | 0.0091649  | 0.0091649  | 0.0091649  |   0.0 |  0.58
Comm    | 0.047874   | 0.047874   | 0.047874   |   0.0 |  3.03
Output  | 0          | 0          | 0          |   0.0 |  0.00
Modify  | 0          | 0          | 0          |   0.0 |  0.00
Other   |            | 0.03567    |            |       |  2.26

Nlocal:    180 ave 180 max 180 min
Histogram: 1 0 0 0 0 0 0 0 0 0
Nghost:    1684 ave 1684 max 1684 min
Histogram: 1 0 0 0 0 0 0 0 0 0
Neighs:    12820 ave 12820 max 12820 min
Histogram: 1 0 0 0 0 0 0 0 0 0

Total # of neighbors = 12820
Ave neighs/atom = 71.2222
Ave special neighs/atom = 6.35556
Neighbor list builds = 10
Dangerous builds = 0
variable        AtomMinStep equal ${tempstp}
variable        AtomMinStep equal 596
variable        temppe     equal $(pe)
variable        temppe     equal 1939.7414989127657918
variable        min_E      equal abs(${prev_E}-${temppe})
variable        min_E      equal abs(50000-${temppe})
variable        min_E      equal abs(50000-1939.74149891277)
print           "${iter},${CellMinStep},${AtomMinStep},${AtomMinStep},$(pe),${min_E}" append NiPyC2_relax_sc211_meta_functionalized_CH2-CH2-CH3.min.csv screen no
if              "${min_E} < ${min_eval}" then "jump SELF break_min"
variable        prev_E     equal ${temppe}
variable        prev_E     equal 1939.74149891277
next            iter
jump            SELF loop_min
min_style       cg
fix             1 all box/relax aniso 0.0 vmax 0.01
minimize        1.0e-15 1.0e-15 10000 100000
WARNING: Using 'neigh_modify every 1 delay 0 check yes' setting during minimization (src/min.cpp:190)
WARNING: Inconsistent image flags (src/domain.cpp:785)
WARNING: Bond/angle/dihedral extent > half of periodic box length (src/domain.cpp:906)
Per MPI rank memory allocation (min/avg/max) = 18.81 | 18.81 | 18.81 Mbytes
Step Temp E_pair E_mol TotEng Press Volume 
    7760 7.973428e-11    109.51627    1830.2252    1939.7415   -31985.889    1731.4072 
    7782 7.973428e-11    159.60847    1764.8053    1924.4137    384.07096    1666.5834 
WARNING: Bond/angle/dihedral extent > half of periodic box length (src/domain.cpp:906)
Loop time of 0.0255467 on 1 procs for 22 steps with 180 atoms

99.9% CPU use with 1 MPI tasks x 1 OpenMP threads

Minimization stats:
  Stopping criterion = linesearch alpha is zero
  Energy initial, next-to-last, final = 
         1939.74149891      1924.41371914      1924.41371914
  Force two-norm initial, final = 1415.92 47.7288
  Force max component initial, final = 928.518 14.9563
  Final line search alpha, max atom move = 3.29972e-12 4.93514e-11
  Iterations, force evaluations = 22 99

MPI task timing breakdown:
Section |  min time  |  avg time  |  max time  |%varavg| %total
---------------------------------------------------------------
Pair    | 0.014923   | 0.014923   | 0.014923   |   0.0 | 58.41
Bond    | 0.0075793  | 0.0075793  | 0.0075793  |   0.0 | 29.67
Neigh   | 0          | 0          | 0          |   0.0 |  0.00
Comm    | 0.00067104 | 0.00067104 | 0.00067104 |   0.0 |  2.63
Output  | 0          | 0          | 0          |   0.0 |  0.00
Modify  | 0          | 0          | 0          |   0.0 |  0.00
Other   |            | 0.002373   |            |       |  9.29

Nlocal:    180 ave 180 max 180 min
Histogram: 1 0 0 0 0 0 0 0 0 0
Nghost:    1680 ave 1680 max 1680 min
Histogram: 1 0 0 0 0 0 0 0 0 0
Neighs:    12811 ave 12811 max 12811 min
Histogram: 1 0 0 0 0 0 0 0 0 0

Total # of neighbors = 12811
Ave neighs/atom = 71.1722
Ave special neighs/atom = 6.35556
Neighbor list builds = 0
Dangerous builds = 0
unfix           1
min_style       fire
variable        tempstp    equal $(step)
variable        tempstp    equal 7782
variable        CellMinStep equal ${tempstp}
variable        CellMinStep equal 7782
minimize        1.0e-15 1.0e-15 10000 100000
WARNING: Using 'neigh_modify every 1 delay 0 check yes' setting during minimization (src/min.cpp:190)
  Parameters for fire: 
    dmax delaystep dtgrow dtshrink alpha0 alphashrink tmax tmin    integrator halfstepback 
     0.1        20    1.1      0.5   0.25        0.99   10 0.02 eulerimplicit          yes 
WARNING: Inconsistent image flags (src/domain.cpp:785)
WARNING: Bond/angle/dihedral extent > half of periodic box length (src/domain.cpp:906)
Per MPI rank memory allocation (min/avg/max) = 17.68 | 17.68 | 17.68 Mbytes
Step Temp E_pair E_mol TotEng Press 
    7782            0    159.60847    1764.8053    1924.4137    384.07096 
   12733 6.2782514e-11    139.42686    1780.8429    1920.2697   -5769.5217 
WARNING: Bond/angle/dihedral extent > half of periodic box length (src/domain.cpp:906)
Loop time of 1.11905 on 1 procs for 4951 steps with 180 atoms

99.8% CPU use with 1 MPI tasks x 1 OpenMP threads

Minimization stats:
  Stopping criterion = energy tolerance
  Energy initial, next-to-last, final = 
         1924.41371914      1920.26973643      1920.26973643
  Force two-norm initial, final = 44.3096 3.02739e-05
  Force max component initial, final = 9.6162 1.03376e-05
  Final line search alpha, max atom move = 0 0
  Iterations, force evaluations = 4951 4951

MPI task timing breakdown:
Section |  min time  |  avg time  |  max time  |%varavg| %total
---------------------------------------------------------------
Pair    | 0.71611    | 0.71611    | 0.71611    |   0.0 | 63.99
Bond    | 0.34429    | 0.34429    | 0.34429    |   0.0 | 30.77
Neigh   | 0          | 0          | 0          |   0.0 |  0.00
Comm    | 0.033524   | 0.033524   | 0.033524   |   0.0 |  3.00
Output  | 0          | 0          | 0          |   0.0 |  0.00
Modify  | 0          | 0          | 0          |   0.0 |  0.00
Other   |            | 0.02513    |            |       |  2.25

Nlocal:    180 ave 180 max 180 min
Histogram: 1 0 0 0 0 0 0 0 0 0
Nghost:    1716 ave 1716 max 1716 min
Histogram: 1 0 0 0 0 0 0 0 0 0
Neighs:    13327 ave 13327 max 13327 min
Histogram: 1 0 0 0 0 0 0 0 0 0

Total # of neighbors = 13327
Ave neighs/atom = 74.0389
Ave special neighs/atom = 6.35556
Neighbor list builds = 0
Dangerous builds = 0
variable        AtomMinStep equal ${tempstp}
variable        AtomMinStep equal 7782
variable        temppe     equal $(pe)
variable        temppe     equal 1920.2697364293273949
variable        min_E      equal abs(${prev_E}-${temppe})
variable        min_E      equal abs(1939.74149891277-${temppe})
variable        min_E      equal abs(1939.74149891277-1920.26973642933)
print           "${iter},${CellMinStep},${AtomMinStep},${AtomMinStep},$(pe),${min_E}" append NiPyC2_relax_sc211_meta_functionalized_CH2-CH2-CH3.min.csv screen no
if              "${min_E} < ${min_eval}" then "jump SELF break_min"
variable        prev_E     equal ${temppe}
variable        prev_E     equal 1920.26973642933
next            iter
jump            SELF loop_min
min_style       cg
fix             1 all box/relax aniso 0.0 vmax 0.01
minimize        1.0e-15 1.0e-15 10000 100000
WARNING: Using 'neigh_modify every 1 delay 0 check yes' setting during minimization (src/min.cpp:190)
WARNING: Inconsistent image flags (src/domain.cpp:785)
WARNING: Bond/angle/dihedral extent > half of periodic box length (src/domain.cpp:906)
Per MPI rank memory allocation (min/avg/max) = 18.81 | 18.81 | 18.81 Mbytes
Step Temp E_pair E_mol TotEng Press Volume 
   12733 6.2782514e-11    139.42686    1780.8429    1920.2697   -5769.5217    1666.5834 
   12736 6.2782514e-11    145.18751    1774.8273    1920.0148   -113.09391    1660.8377 
WARNING: Bond/angle/dihedral extent > half of periodic box length (src/domain.cpp:906)
Loop time of 0.0162606 on 1 procs for 3 steps with 180 atoms

99.9% CPU use with 1 MPI tasks x 1 OpenMP threads

Minimization stats:
  Stopping criterion = linesearch alpha is zero
  Energy initial, next-to-last, final = 
         1920.26973643      1920.01483056      1920.01483056
  Force two-norm initial, final = 273.955 17.9119
  Force max component initial, final = 207.693 4.8624
  Final line search alpha, max atom move = 3.3955e-11 1.65103e-10
  Iterations, force evaluations = 3 57

MPI task timing breakdown:
Section |  min time  |  avg time  |  max time  |%varavg| %total
---------------------------------------------------------------
Pair    | 0.009619   | 0.009619   | 0.009619   |   0.0 | 59.16
Bond    | 0.0046814  | 0.0046814  | 0.0046814  |   0.0 | 28.79
Neigh   | 0          | 0          | 0          |   0.0 |  0.00
Comm    | 0.0004212  | 0.0004212  | 0.0004212  |   0.0 |  2.59
Output  | 0          | 0          | 0          |   0.0 |  0.00
Modify  | 0          | 0          | 0          |   0.0 |  0.00
Other   |            | 0.001539   |            |       |  9.46

Nlocal:    180 ave 180 max 180 min
Histogram: 1 0 0 0 0 0 0 0 0 0
Nghost:    1718 ave 1718 max 1718 min
Histogram: 1 0 0 0 0 0 0 0 0 0
Neighs:    13322 ave 13322 max 13322 min
Histogram: 1 0 0 0 0 0 0 0 0 0

Total # of neighbors = 13322
Ave neighs/atom = 74.0111
Ave special neighs/atom = 6.35556
Neighbor list builds = 0
Dangerous builds = 0
unfix           1
min_style       fire
variable        tempstp    equal $(step)
variable        tempstp    equal 12736
variable        CellMinStep equal ${tempstp}
variable        CellMinStep equal 12736
minimize        1.0e-15 1.0e-15 10000 100000
WARNING: Using 'neigh_modify every 1 delay 0 check yes' setting during minimization (src/min.cpp:190)
  Parameters for fire: 
    dmax delaystep dtgrow dtshrink alpha0 alphashrink tmax tmin    integrator halfstepback 
     0.1        20    1.1      0.5   0.25        0.99   10 0.02 eulerimplicit          yes 
WARNING: Inconsistent image flags (src/domain.cpp:785)
WARNING: Bond/angle/dihedral extent > half of periodic box length (src/domain.cpp:906)
Per MPI rank memory allocation (min/avg/max) = 17.68 | 17.68 | 17.68 Mbytes
Step Temp E_pair E_mol TotEng Press 
   12736            0    145.18751    1774.8273    1920.0148   -113.09391 
   15020 6.8618336e-11    142.26216    1777.5204    1919.7826   -3545.4585 
WARNING: Bond/angle/dihedral extent > half of periodic box length (src/domain.cpp:906)
Loop time of 0.514073 on 1 procs for 2284 steps with 180 atoms

99.8% CPU use with 1 MPI tasks x 1 OpenMP threads

Minimization stats:
  Stopping criterion = energy tolerance
  Energy initial, next-to-last, final = 
         1920.01483056        1919.782551        1919.782551
  Force two-norm initial, final = 16.9866 2.9209e-05
  Force max component initial, final = 3.07807 9.73616e-06
  Final line search alpha, max atom move = 0 0
  Iterations, force evaluations = 2284 2284

MPI task timing breakdown:
Section |  min time  |  avg time  |  max time  |%varavg| %total
---------------------------------------------------------------
Pair    | 0.32997    | 0.32997    | 0.32997    |   0.0 | 64.19
Bond    | 0.15704    | 0.15704    | 0.15704    |   0.0 | 30.55
Neigh   | 0          | 0          | 0          |   0.0 |  0.00
Comm    | 0.015434   | 0.015434   | 0.015434   |   0.0 |  3.00
Output  | 0          | 0          | 0          |   0.0 |  0.00
Modify  | 0          | 0          | 0          |   0.0 |  0.00
Other   |            | 0.01163    |            |       |  2.26

Nlocal:    180 ave 180 max 180 min
Histogram: 1 0 0 0 0 0 0 0 0 0
Nghost:    1722 ave 1722 max 1722 min
Histogram: 1 0 0 0 0 0 0 0 0 0
Neighs:    13367 ave 13367 max 13367 min
Histogram: 1 0 0 0 0 0 0 0 0 0

Total # of neighbors = 13367
Ave neighs/atom = 74.2611
Ave special neighs/atom = 6.35556
Neighbor list builds = 0
Dangerous builds = 0
variable        AtomMinStep equal ${tempstp}
variable        AtomMinStep equal 12736
variable        temppe     equal $(pe)
variable        temppe     equal 1919.7825509985184453
variable        min_E      equal abs(${prev_E}-${temppe})
variable        min_E      equal abs(1920.26973642933-${temppe})
variable        min_E      equal abs(1920.26973642933-1919.78255099852)
print           "${iter},${CellMinStep},${AtomMinStep},${AtomMinStep},$(pe),${min_E}" append NiPyC2_relax_sc211_meta_functionalized_CH2-CH2-CH3.min.csv screen no
if              "${min_E} < ${min_eval}" then "jump SELF break_min"
variable        prev_E     equal ${temppe}
variable        prev_E     equal 1919.78255099852
next            iter
jump            SELF loop_min
min_style       cg
fix             1 all box/relax aniso 0.0 vmax 0.01
minimize        1.0e-15 1.0e-15 10000 100000
WARNING: Using 'neigh_modify every 1 delay 0 check yes' setting during minimization (src/min.cpp:190)
WARNING: Inconsistent image flags (src/domain.cpp:785)
WARNING: Bond/angle/dihedral extent > half of periodic box length (src/domain.cpp:906)
Per MPI rank memory allocation (min/avg/max) = 18.81 | 18.81 | 18.81 Mbytes
Step Temp E_pair E_mol TotEng Press Volume 
   15020 6.8618336e-11    142.26216    1777.5204    1919.7826   -3545.4585    1660.8377 
   15022 6.8618336e-11    146.18643    1773.4471    1919.6335    540.99564    1657.0335 
WARNING: Bond/angle/dihedral extent > half of periodic box length (src/domain.cpp:906)
Loop time of 0.0159344 on 1 procs for 2 steps with 180 atoms

99.9% CPU use with 1 MPI tasks x 1 OpenMP threads

Minimization stats:
  Stopping criterion = linesearch alpha is zero
  Energy initial, next-to-last, final = 
           1919.782551      1919.63351276      1919.63351276
  Force two-norm initial, final = 194.355 61.5581
  Force max component initial, final = 142.677 36.692
  Final line search alpha, max atom move = 1.64299e-12 6.02844e-11
  Iterations, force evaluations = 2 57

MPI task timing breakdown:
Section |  min time  |  avg time  |  max time  |%varavg| %total
---------------------------------------------------------------
Pair    | 0.0094276  | 0.0094276  | 0.0094276  |   0.0 | 59.17
Bond    | 0.0046082  | 0.0046082  | 0.0046082  |   0.0 | 28.92
Neigh   | 0          | 0          | 0          |   0.0 |  0.00
Comm    | 0.00040763 | 0.00040763 | 0.00040763 |   0.0 |  2.56
Output  | 0          | 0          | 0          |   0.0 |  0.00
Modify  | 0          | 0          | 0          |   0.0 |  0.00
Other   |            | 0.001491   |            |       |  9.36

Nlocal:    180 ave 180 max 180 min
Histogram: 1 0 0 0 0 0 0 0 0 0
Nghost:    1722 ave 1722 max 1722 min
Histogram: 1 0 0 0 0 0 0 0 0 0
Neighs:    13368 ave 13368 max 13368 min
Histogram: 1 0 0 0 0 0 0 0 0 0

Total # of neighbors = 13368
Ave neighs/atom = 74.2667
Ave special neighs/atom = 6.35556
Neighbor list builds = 0
Dangerous builds = 0
unfix           1
min_style       fire
variable        tempstp    equal $(step)
variable        tempstp    equal 15022
variable        CellMinStep equal ${tempstp}
variable        CellMinStep equal 15022
minimize        1.0e-15 1.0e-15 10000 100000
WARNING: Using 'neigh_modify every 1 delay 0 check yes' setting during minimization (src/min.cpp:190)
  Parameters for fire: 
    dmax delaystep dtgrow dtshrink alpha0 alphashrink tmax tmin    integrator halfstepback 
     0.1        20    1.1      0.5   0.25        0.99   10 0.02 eulerimplicit          yes 
WARNING: Inconsistent image flags (src/domain.cpp:785)
WARNING: Bond/angle/dihedral extent > half of periodic box length (src/domain.cpp:906)
Per MPI rank memory allocation (min/avg/max) = 17.68 | 17.68 | 17.68 Mbytes
Step Temp E_pair E_mol TotEng Press 
   15022            0    146.18643    1773.4471    1919.6335    540.99564 
   17379 8.1994849e-11    144.03566    1775.4403    1919.4759   -2149.5296 
WARNING: Bond/angle/dihedral extent > half of periodic box length (src/domain.cpp:906)
Loop time of 0.533294 on 1 procs for 2357 steps with 180 atoms

99.8% CPU use with 1 MPI tasks x 1 OpenMP threads

Minimization stats:
  Stopping criterion = energy tolerance
  Energy initial, next-to-last, final = 
         1919.63351276      1919.47592763      1919.47592763
  Force two-norm initial, final = 12.4241 3.31642e-05
  Force max component initial, final = 2.28416 7.73302e-06
  Final line search alpha, max atom move = 0 0
  Iterations, force evaluations = 2357 2357

MPI task timing breakdown:
Section |  min time  |  avg time  |  max time  |%varavg| %total
---------------------------------------------------------------
Pair    | 0.34276    | 0.34276    | 0.34276    |   0.0 | 64.27
Bond    | 0.16277    | 0.16277    | 0.16277    |   0.0 | 30.52
Neigh   | 0          | 0          | 0          |   0.0 |  0.00
Comm    | 0.015814   | 0.015814   | 0.015814   |   0.0 |  2.97
Output  | 0          | 0          | 0          |   0.0 |  0.00
Modify  | 0          | 0          | 0          |   0.0 |  0.00
Other   |            | 0.01195    |            |       |  2.24

Nlocal:    180 ave 180 max 180 min
Histogram: 1 0 0 0 0 0 0 0 0 0
Nghost:    1722 ave 1722 max 1722 min
Histogram: 1 0 0 0 0 0 0 0 0 0
Neighs:    13402 ave 13402 max 13402 min
Histogram: 1 0 0 0 0 0 0 0 0 0

Total # of neighbors = 13402
Ave neighs/atom = 74.4556
Ave special neighs/atom = 6.35556
Neighbor list builds = 0
Dangerous builds = 0
variable        AtomMinStep equal ${tempstp}
variable        AtomMinStep equal 15022
variable        temppe     equal $(pe)
variable        temppe     equal 1919.4759276282027258
variable        min_E      equal abs(${prev_E}-${temppe})
variable        min_E      equal abs(1919.78255099852-${temppe})
variable        min_E      equal abs(1919.78255099852-1919.4759276282)
print           "${iter},${CellMinStep},${AtomMinStep},${AtomMinStep},$(pe),${min_E}" append NiPyC2_relax_sc211_meta_functionalized_CH2-CH2-CH3.min.csv screen no
if              "${min_E} < ${min_eval}" then "jump SELF break_min"
variable        prev_E     equal ${temppe}
variable        prev_E     equal 1919.4759276282
next            iter
jump            SELF loop_min
min_style       cg
fix             1 all box/relax aniso 0.0 vmax 0.01
minimize        1.0e-15 1.0e-15 10000 100000
WARNING: Using 'neigh_modify every 1 delay 0 check yes' setting during minimization (src/min.cpp:190)
WARNING: Inconsistent image flags (src/domain.cpp:785)
WARNING: Bond/angle/dihedral extent > half of periodic box length (src/domain.cpp:906)
Per MPI rank memory allocation (min/avg/max) = 18.81 | 18.81 | 18.81 Mbytes
Step Temp E_pair E_mol TotEng Press Volume 
   17379 8.1994849e-11    144.03566    1775.4403    1919.4759   -2149.5296    1657.0335 
   17381 8.1994849e-11    146.49175     1772.832    1919.3237    492.25993    1654.5382 
WARNING: Bond/angle/dihedral extent > half of periodic box length (src/domain.cpp:906)
Loop time of 0.0157798 on 1 procs for 2 steps with 180 atoms

99.9% CPU use with 1 MPI tasks x 1 OpenMP threads

Minimization stats:
  Stopping criterion = linesearch alpha is zero
  Energy initial, next-to-last, final = 
         1919.47592763      1919.32374746      1919.32374746
  Force two-norm initial, final = 152.412 49.1756
  Force max component initial, final = 105.736 34.263
  Final line search alpha, max atom move = 4.52085e-12 1.54898e-10
  Iterations, force evaluations = 2 55

MPI task timing breakdown:
Section |  min time  |  avg time  |  max time  |%varavg| %total
---------------------------------------------------------------
Pair    | 0.0093324  | 0.0093324  | 0.0093324  |   0.0 | 59.14
Bond    | 0.0045146  | 0.0045146  | 0.0045146  |   0.0 | 28.61
Neigh   | 0          | 0          | 0          |   0.0 |  0.00
Comm    | 0.00041222 | 0.00041222 | 0.00041222 |   0.0 |  2.61
Output  | 0          | 0          | 0          |   0.0 |  0.00
Modify  | 0          | 0          | 0          |   0.0 |  0.00
Other   |            | 0.001521   |            |       |  9.64

Nlocal:    180 ave 180 max 180 min
Histogram: 1 0 0 0 0 0 0 0 0 0
Nghost:    1722 ave 1722 max 1722 min
Histogram: 1 0 0 0 0 0 0 0 0 0
Neighs:    13404 ave 13404 max 13404 min
Histogram: 1 0 0 0 0 0 0 0 0 0

Total # of neighbors = 13404
Ave neighs/atom = 74.4667
Ave special neighs/atom = 6.35556
Neighbor list builds = 0
Dangerous builds = 0
unfix           1
min_style       fire
variable        tempstp    equal $(step)
variable        tempstp    equal 17381
variable        CellMinStep equal ${tempstp}
variable        CellMinStep equal 17381
minimize        1.0e-15 1.0e-15 10000 100000
WARNING: Using 'neigh_modify every 1 delay 0 check yes' setting during minimization (src/min.cpp:190)
  Parameters for fire: 
    dmax delaystep dtgrow dtshrink alpha0 alphashrink tmax tmin    integrator halfstepback 
     0.1        20    1.1      0.5   0.25        0.99   10 0.02 eulerimplicit          yes 
WARNING: Inconsistent image flags (src/domain.cpp:785)
WARNING: Bond/angle/dihedral extent > half of periodic box length (src/domain.cpp:906)
Per MPI rank memory allocation (min/avg/max) = 17.68 | 17.68 | 17.68 Mbytes
Step Temp E_pair E_mol TotEng Press 
   17381            0    146.49175     1772.832    1919.3237    492.25993 
   19769  9.01663e-11    145.10711    1774.1697    1919.2768    -1346.302 
WARNING: Bond/angle/dihedral extent > half of periodic box length (src/domain.cpp:906)
Loop time of 0.548387 on 1 procs for 2388 steps with 180 atoms

99.8% CPU use with 1 MPI tasks x 1 OpenMP threads

Minimization stats:
  Stopping criterion = energy tolerance
  Energy initial, next-to-last, final = 
         1919.32374746      1919.27684835      1919.27684835
  Force two-norm initial, final = 10.5932 3.75822e-05
  Force max component initial, final = 1.85459 9.27416e-06
  Final line search alpha, max atom move = 0 0
  Iterations, force evaluations = 2388 2388

MPI task timing breakdown:
Section |  min time  |  avg time  |  max time  |%varavg| %total
---------------------------------------------------------------
Pair    | 0.35268    | 0.35268    | 0.35268    |   0.0 | 64.31
Bond    | 0.16717    | 0.16717    | 0.16717    |   0.0 | 30.48
Neigh   | 0          | 0          | 0          |   0.0 |  0.00
Comm    | 0.016248   | 0.016248   | 0.016248   |   0.0 |  2.96
Output  | 0          | 0          | 0          |   0.0 |  0.00
Modify  | 0          | 0          | 0          |   0.0 |  0.00
Other   |            | 0.01229    |            |       |  2.24

Nlocal:    180 ave 180 max 180 min
Histogram: 1 0 0 0 0 0 0 0 0 0
Nghost:    1722 ave 1722 max 1722 min
Histogram: 1 0 0 0 0 0 0 0 0 0
Neighs:    13431 ave 13431 max 13431 min
Histogram: 1 0 0 0 0 0 0 0 0 0

Total # of neighbors = 13431
Ave neighs/atom = 74.6167
Ave special neighs/atom = 6.35556
Neighbor list builds = 0
Dangerous builds = 0
variable        AtomMinStep equal ${tempstp}
variable        AtomMinStep equal 17381
variable        temppe     equal $(pe)
variable        temppe     equal 1919.2768483474783352
variable        min_E      equal abs(${prev_E}-${temppe})
variable        min_E      equal abs(1919.4759276282-${temppe})
variable        min_E      equal abs(1919.4759276282-1919.27684834748)
print           "${iter},${CellMinStep},${AtomMinStep},${AtomMinStep},$(pe),${min_E}" append NiPyC2_relax_sc211_meta_functionalized_CH2-CH2-CH3.min.csv screen no
if              "${min_E} < ${min_eval}" then "jump SELF break_min"
variable        prev_E     equal ${temppe}
variable        prev_E     equal 1919.27684834748
next            iter
jump            SELF loop_min
min_style       cg
fix             1 all box/relax aniso 0.0 vmax 0.01
minimize        1.0e-15 1.0e-15 10000 100000
WARNING: Using 'neigh_modify every 1 delay 0 check yes' setting during minimization (src/min.cpp:190)
WARNING: Inconsistent image flags (src/domain.cpp:785)
WARNING: Bond/angle/dihedral extent > half of periodic box length (src/domain.cpp:906)
Per MPI rank memory allocation (min/avg/max) = 18.81 | 18.81 | 18.81 Mbytes
Step Temp E_pair E_mol TotEng Press Volume 
   19769  9.01663e-11    145.10711    1774.1697    1919.2768    -1346.302    1654.5382 
   19774  9.01663e-11    146.60688    1772.5368    1919.1437   -207.70052    1652.6555 
WARNING: Bond/angle/dihedral extent > half of periodic box length (src/domain.cpp:906)
Loop time of 0.0160641 on 1 procs for 5 steps with 180 atoms

99.9% CPU use with 1 MPI tasks x 1 OpenMP threads

Minimization stats:
  Stopping criterion = linesearch alpha is zero
  Energy initial, next-to-last, final = 
         1919.27684835      1919.14369883      1919.14369883
  Force two-norm initial, final = 128.332 17.9514
  Force max component initial, final = 82.9497 13.4333
  Final line search alpha, max atom move = 2.8556e-11 3.836e-10
  Iterations, force evaluations = 5 59

MPI task timing breakdown:
Section |  min time  |  avg time  |  max time  |%varavg| %total
---------------------------------------------------------------
Pair    | 0.0094926  | 0.0094926  | 0.0094926  |   0.0 | 59.09
Bond    | 0.0046577  | 0.0046577  | 0.0046577  |   0.0 | 28.99
Neigh   | 0          | 0          | 0          |   0.0 |  0.00
Comm    | 0.00042462 | 0.00042462 | 0.00042462 |   0.0 |  2.64
Output  | 0          | 0          | 0          |   0.0 |  0.00
Modify  | 0          | 0          | 0          |   0.0 |  0.00
Other   |            | 0.001489   |            |       |  9.27

Nlocal:    180 ave 180 max 180 min
Histogram: 1 0 0 0 0 0 0 0 0 0
Nghost:    1722 ave 1722 max 1722 min
Histogram: 1 0 0 0 0 0 0 0 0 0
Neighs:    13434 ave 13434 max 13434 min
Histogram: 1 0 0 0 0 0 0 0 0 0

Total # of neighbors = 13434
Ave neighs/atom = 74.6333
Ave special neighs/atom = 6.35556
Neighbor list builds = 0
Dangerous builds = 0
unfix           1
min_style       fire
variable        tempstp    equal $(step)
variable        tempstp    equal 19774
variable        CellMinStep equal ${tempstp}
variable        CellMinStep equal 19774
minimize        1.0e-15 1.0e-15 10000 100000
WARNING: Using 'neigh_modify every 1 delay 0 check yes' setting during minimization (src/min.cpp:190)
  Parameters for fire: 
    dmax delaystep dtgrow dtshrink alpha0 alphashrink tmax tmin    integrator halfstepback 
     0.1        20    1.1      0.5   0.25        0.99   10 0.02 eulerimplicit          yes 
WARNING: Inconsistent image flags (src/domain.cpp:785)
WARNING: Bond/angle/dihedral extent > half of periodic box length (src/domain.cpp:906)
Per MPI rank memory allocation (min/avg/max) = 17.68 | 17.68 | 17.68 Mbytes
Step Temp E_pair E_mol TotEng Press 
   19774            0    146.60688    1772.5368    1919.1437   -207.70052 
   22353 9.5904267e-11    145.62982    1773.3302    1918.9601   -966.13683 
WARNING: Bond/angle/dihedral extent > half of periodic box length (src/domain.cpp:906)
Loop time of 0.600193 on 1 procs for 2579 steps with 180 atoms

98.2% CPU use with 1 MPI tasks x 1 OpenMP threads

Minimization stats:
  Stopping criterion = energy tolerance
  Energy initial, next-to-last, final = 
         1919.14369883      1918.96005036      1918.96005036
  Force two-norm initial, final = 11.5095 3.85743e-05
  Force max component initial, final = 1.83689 9.44024e-06
  Final line search alpha, max atom move = 0 0
  Iterations, force evaluations = 2579 2579

MPI task timing breakdown:
Section |  min time  |  avg time  |  max time  |%varavg| %total
---------------------------------------------------------------
Pair    | 0.3862     | 0.3862     | 0.3862     |   0.0 | 64.35
Bond    | 0.18257    | 0.18257    | 0.18257    |   0.0 | 30.42
Neigh   | 0          | 0          | 0          |   0.0 |  0.00
Comm    | 0.017791   | 0.017791   | 0.017791   |   0.0 |  2.96
Output  | 0.00015694 | 0.00015694 | 0.00015694 |   0.0 |  0.03
Modify  | 0          | 0          | 0          |   0.0 |  0.00
Other   |            | 0.01347    |            |       |  2.24

Nlocal:    180 ave 180 max 180 min
Histogram: 1 0 0 0 0 0 0 0 0 0
Nghost:    1722 ave 1722 max 1722 min
Histogram: 1 0 0 0 0 0 0 0 0 0
Neighs:    13455 ave 13455 max 13455 min
Histogram: 1 0 0 0 0 0 0 0 0 0

Total # of neighbors = 13455
Ave neighs/atom = 74.75
Ave special neighs/atom = 6.35556
Neighbor list builds = 0
Dangerous builds = 0
variable        AtomMinStep equal ${tempstp}
variable        AtomMinStep equal 19774
variable        temppe     equal $(pe)
variable        temppe     equal 1918.9600503606420716
variable        min_E      equal abs(${prev_E}-${temppe})
variable        min_E      equal abs(1919.27684834748-${temppe})
variable        min_E      equal abs(1919.27684834748-1918.96005036064)
print           "${iter},${CellMinStep},${AtomMinStep},${AtomMinStep},$(pe),${min_E}" append NiPyC2_relax_sc211_meta_functionalized_CH2-CH2-CH3.min.csv screen no
if              "${min_E} < ${min_eval}" then "jump SELF break_min"
variable        prev_E     equal ${temppe}
variable        prev_E     equal 1918.96005036064
next            iter
jump            SELF loop_min
min_style       cg
fix             1 all box/relax aniso 0.0 vmax 0.01
minimize        1.0e-15 1.0e-15 10000 100000
WARNING: Using 'neigh_modify every 1 delay 0 check yes' setting during minimization (src/min.cpp:190)
WARNING: Inconsistent image flags (src/domain.cpp:785)
WARNING: Bond/angle/dihedral extent > half of periodic box length (src/domain.cpp:906)
Per MPI rank memory allocation (min/avg/max) = 18.81 | 18.81 | 18.81 Mbytes
Step Temp E_pair E_mol TotEng Press Volume 
   22353 9.5904267e-11    145.62982    1773.3302    1918.9601   -966.13683    1652.6555 
   22355 9.5904267e-11    146.75282    1772.1539    1918.9068    254.17816    1651.4706 
WARNING: Bond/angle/dihedral extent > half of periodic box length (src/domain.cpp:906)
Loop time of 0.0155874 on 1 procs for 2 steps with 180 atoms

99.6% CPU use with 1 MPI tasks x 1 OpenMP threads

Minimization stats:
  Stopping criterion = linesearch alpha is zero
  Energy initial, next-to-last, final = 
         1918.96005036      1918.90676193      1918.90676193
  Force two-norm initial, final = 103.888 30.5504
  Force max component initial, final = 63.5905 23.3796
  Final line search alpha, max atom move = 7.41394e-12 1.73335e-10
  Iterations, force evaluations = 2 55

MPI task timing breakdown:
Section |  min time  |  avg time  |  max time  |%varavg| %total
---------------------------------------------------------------
Pair    | 0.009101   | 0.009101   | 0.009101   |   0.0 | 58.39
Bond    | 0.0045768  | 0.0045768  | 0.0045768  |   0.0 | 29.36
Neigh   | 0          | 0          | 0          |   0.0 |  0.00
Comm    | 0.00043807 | 0.00043807 | 0.00043807 |   0.0 |  2.81
Output  | 0          | 0          | 0          |   0.0 |  0.00
Modify  | 0          | 0          | 0          |   0.0 |  0.00
Other   |            | 0.001472   |            |       |  9.44

Nlocal:    180 ave 180 max 180 min
Histogram: 1 0 0 0 0 0 0 0 0 0
Nghost:    1718 ave 1718 max 1718 min
Histogram: 1 0 0 0 0 0 0 0 0 0
Neighs:    13451 ave 13451 max 13451 min
Histogram: 1 0 0 0 0 0 0 0 0 0

Total # of neighbors = 13451
Ave neighs/atom = 74.7278
Ave special neighs/atom = 6.35556
Neighbor list builds = 0
Dangerous builds = 0
unfix           1
min_style       fire
variable        tempstp    equal $(step)
variable        tempstp    equal 22355
variable        CellMinStep equal ${tempstp}
variable        CellMinStep equal 22355
minimize        1.0e-15 1.0e-15 10000 100000
WARNING: Using 'neigh_modify every 1 delay 0 check yes' setting during minimization (src/min.cpp:190)
  Parameters for fire: 
    dmax delaystep dtgrow dtshrink alpha0 alphashrink tmax tmin    integrator halfstepback 
     0.1        20    1.1      0.5   0.25        0.99   10 0.02 eulerimplicit          yes 
WARNING: Inconsistent image flags (src/domain.cpp:785)
WARNING: Bond/angle/dihedral extent > half of periodic box length (src/domain.cpp:906)
Per MPI rank memory allocation (min/avg/max) = 17.68 | 17.68 | 17.68 Mbytes
Step Temp E_pair E_mol TotEng Press 
   22355            0    146.75282    1772.1539    1918.9068    254.17816 
   24358 1.5428592e-10     146.0996    1772.8038    1918.9034   -689.21167 
WARNING: Bond/angle/dihedral extent > half of periodic box length (src/domain.cpp:906)
Loop time of 0.459552 on 1 procs for 2003 steps with 180 atoms

99.7% CPU use with 1 MPI tasks x 1 OpenMP threads

Minimization stats:
  Stopping criterion = energy tolerance
  Energy initial, next-to-last, final = 
         1918.90676193      1918.90343892      1918.90343892
  Force two-norm initial, final = 7.59656 4.78287e-05
  Force max component initial, final = 1.22459 1.15314e-05
  Final line search alpha, max atom move = 0 0
  Iterations, force evaluations = 2003 2003

MPI task timing breakdown:
Section |  min time  |  avg time  |  max time  |%varavg| %total
---------------------------------------------------------------
Pair    | 0.2952     | 0.2952     | 0.2952     |   0.0 | 64.24
Bond    | 0.14024    | 0.14024    | 0.14024    |   0.0 | 30.52
Neigh   | 0          | 0          | 0          |   0.0 |  0.00
Comm    | 0.013694   | 0.013694   | 0.013694   |   0.0 |  2.98
Output  | 0          | 0          | 0          |   0.0 |  0.00
Modify  | 0          | 0          | 0          |   0.0 |  0.00
Other   |            | 0.01042    |            |       |  2.27

Nlocal:    180 ave 180 max 180 min
Histogram: 1 0 0 0 0 0 0 0 0 0
Nghost:    1722 ave 1722 max 1722 min
Histogram: 1 0 0 0 0 0 0 0 0 0
Neighs:    13466 ave 13466 max 13466 min
Histogram: 1 0 0 0 0 0 0 0 0 0

Total # of neighbors = 13466
Ave neighs/atom = 74.8111
Ave special neighs/atom = 6.35556
Neighbor list builds = 0
Dangerous builds = 0
variable        AtomMinStep equal ${tempstp}
variable        AtomMinStep equal 22355
variable        temppe     equal $(pe)
variable        temppe     equal 1918.9034389179550999
variable        min_E      equal abs(${prev_E}-${temppe})
variable        min_E      equal abs(1918.96005036064-${temppe})
variable        min_E      equal abs(1918.96005036064-1918.90343891796)
print           "${iter},${CellMinStep},${AtomMinStep},${AtomMinStep},$(pe),${min_E}" append NiPyC2_relax_sc211_meta_functionalized_CH2-CH2-CH3.min.csv screen no
if              "${min_E} < ${min_eval}" then "jump SELF break_min"
variable        prev_E     equal ${temppe}
variable        prev_E     equal 1918.90343891796
next            iter
jump            SELF loop_min
min_style       cg
fix             1 all box/relax aniso 0.0 vmax 0.01
minimize        1.0e-15 1.0e-15 10000 100000
WARNING: Using 'neigh_modify every 1 delay 0 check yes' setting during minimization (src/min.cpp:190)
WARNING: Inconsistent image flags (src/domain.cpp:785)
WARNING: Bond/angle/dihedral extent > half of periodic box length (src/domain.cpp:906)
Per MPI rank memory allocation (min/avg/max) = 18.81 | 18.81 | 18.81 Mbytes
Step Temp E_pair E_mol TotEng Press Volume 
   24358 1.5428592e-10     146.0996    1772.8038    1918.9034   -689.21167    1651.4706 
   24365 1.5428592e-10    147.85294    1770.9438    1918.7967    738.16658    1649.4165 
WARNING: Bond/angle/dihedral extent > half of periodic box length (src/domain.cpp:906)
Loop time of 0.0173828 on 1 procs for 7 steps with 180 atoms

87.4% CPU use with 1 MPI tasks x 1 OpenMP threads

Minimization stats:
  Stopping criterion = linesearch alpha is zero
  Energy initial, next-to-last, final = 
         1918.90343892      1918.79670789      1918.79670789
  Force two-norm initial, final = 90.8011 31.5462
  Force max component initial, final = 53.8505 19.4931
  Final line search alpha, max atom move = 6.97563e-12 1.35977e-10
  Iterations, force evaluations = 7 65

MPI task timing breakdown:
Section |  min time  |  avg time  |  max time  |%varavg| %total
---------------------------------------------------------------
Pair    | 0.010341   | 0.010341   | 0.010341   |   0.0 | 59.49
Bond    | 0.0049877  | 0.0049877  | 0.0049877  |   0.0 | 28.69
Neigh   | 0          | 0          | 0          |   0.0 |  0.00
Comm    | 0.00044873 | 0.00044873 | 0.00044873 |   0.0 |  2.58
Output  | 0          | 0          | 0          |   0.0 |  0.00
Modify  | 0          | 0          | 0          |   0.0 |  0.00
Other   |            | 0.001606   |            |       |  9.24

Nlocal:    180 ave 180 max 180 min
Histogram: 1 0 0 0 0 0 0 0 0 0
Nghost:    1722 ave 1722 max 1722 min
Histogram: 1 0 0 0 0 0 0 0 0 0
Neighs:    13468 ave 13468 max 13468 min
Histogram: 1 0 0 0 0 0 0 0 0 0

Total # of neighbors = 13468
Ave neighs/atom = 74.8222
Ave special neighs/atom = 6.35556
Neighbor list builds = 0
Dangerous builds = 0
unfix           1
min_style       fire
variable        tempstp    equal $(step)
variable        tempstp    equal 24365
variable        CellMinStep equal ${tempstp}
variable        CellMinStep equal 24365
minimize        1.0e-15 1.0e-15 10000 100000
WARNING: Using 'neigh_modify every 1 delay 0 check yes' setting during minimization (src/min.cpp:190)
  Parameters for fire: 
    dmax delaystep dtgrow dtshrink alpha0 alphashrink tmax tmin    integrator halfstepback 
     0.1        20    1.1      0.5   0.25        0.99   10 0.02 eulerimplicit          yes 
WARNING: Inconsistent image flags (src/domain.cpp:785)
WARNING: Bond/angle/dihedral extent > half of periodic box length (src/domain.cpp:906)
Per MPI rank memory allocation (min/avg/max) = 17.68 | 17.68 | 17.68 Mbytes
Step Temp E_pair E_mol TotEng Press 
   24365            0    147.85294    1770.9438    1918.7967    738.16658 
   26331 9.9656912e-11    146.86881    1771.8909    1918.7597   -152.00034 
WARNING: Bond/angle/dihedral extent > half of periodic box length (src/domain.cpp:906)
Loop time of 0.46238 on 1 procs for 1966 steps with 180 atoms

97.9% CPU use with 1 MPI tasks x 1 OpenMP threads

Minimization stats:
  Stopping criterion = energy tolerance
  Energy initial, next-to-last, final = 
         1918.79670789      1918.75968346      1918.75968346
  Force two-norm initial, final = 6.29123 4.00846e-05
  Force max component initial, final = 0.892277 1.07449e-05
  Final line search alpha, max atom move = 0 0
  Iterations, force evaluations = 1966 1966

MPI task timing breakdown:
Section |  min time  |  avg time  |  max time  |%varavg| %total
---------------------------------------------------------------
Pair    | 0.29766    | 0.29766    | 0.29766    |   0.0 | 64.37
Bond    | 0.14029    | 0.14029    | 0.14029    |   0.0 | 30.34
Neigh   | 0          | 0          | 0          |   0.0 |  0.00
Comm    | 0.013887   | 0.013887   | 0.013887   |   0.0 |  3.00
Output  | 0          | 0          | 0          |   0.0 |  0.00
Modify  | 0          | 0          | 0          |   0.0 |  0.00
Other   |            | 0.01054    |            |       |  2.28

Nlocal:    180 ave 180 max 180 min
Histogram: 1 0 0 0 0 0 0 0 0 0
Nghost:    1722 ave 1722 max 1722 min
Histogram: 1 0 0 0 0 0 0 0 0 0
Neighs:    13481 ave 13481 max 13481 min
Histogram: 1 0 0 0 0 0 0 0 0 0

Total # of neighbors = 13481
Ave neighs/atom = 74.8944
Ave special neighs/atom = 6.35556
Neighbor list builds = 0
Dangerous builds = 0
variable        AtomMinStep equal ${tempstp}
variable        AtomMinStep equal 24365
variable        temppe     equal $(pe)
variable        temppe     equal 1918.7596834637065513
variable        min_E      equal abs(${prev_E}-${temppe})
variable        min_E      equal abs(1918.90343891796-${temppe})
variable        min_E      equal abs(1918.90343891796-1918.75968346371)
print           "${iter},${CellMinStep},${AtomMinStep},${AtomMinStep},$(pe),${min_E}" append NiPyC2_relax_sc211_meta_functionalized_CH2-CH2-CH3.min.csv screen no
if              "${min_E} < ${min_eval}" then "jump SELF break_min"
variable        prev_E     equal ${temppe}
variable        prev_E     equal 1918.75968346371
next            iter
jump            SELF loop_min
min_style       cg
fix             1 all box/relax aniso 0.0 vmax 0.01
minimize        1.0e-15 1.0e-15 10000 100000
WARNING: Using 'neigh_modify every 1 delay 0 check yes' setting during minimization (src/min.cpp:190)
WARNING: Inconsistent image flags (src/domain.cpp:785)
WARNING: Bond/angle/dihedral extent > half of periodic box length (src/domain.cpp:906)
Per MPI rank memory allocation (min/avg/max) = 18.81 | 18.81 | 18.81 Mbytes
Step Temp E_pair E_mol TotEng Press Volume 
   26331 9.9656912e-11    146.86881    1771.8909    1918.7597   -152.00034    1649.4165 
   26332 9.9656912e-11    146.86881    1771.8909    1918.7597   -152.00034    1649.4165 
WARNING: Bond/angle/dihedral extent > half of periodic box length (src/domain.cpp:906)
Loop time of 0.0154726 on 1 procs for 1 steps with 180 atoms

97.3% CPU use with 1 MPI tasks x 1 OpenMP threads

Minimization stats:
  Stopping criterion = linesearch alpha is zero
  Energy initial, next-to-last, final = 
         1918.75968346      1918.75968346      1918.75968346
  Force two-norm initial, final = 70.9524 70.9524
  Force max component initial, final = 54.0393 54.0393
  Final line search alpha, max atom move = 1.37873e-12 7.45058e-11
  Iterations, force evaluations = 1 55

MPI task timing breakdown:
Section |  min time  |  avg time  |  max time  |%varavg| %total
---------------------------------------------------------------
Pair    | 0.0092509  | 0.0092509  | 0.0092509  |   0.0 | 59.79
Bond    | 0.0044106  | 0.0044106  | 0.0044106  |   0.0 | 28.51
Neigh   | 0          | 0          | 0          |   0.0 |  0.00
Comm    | 0.00039856 | 0.00039856 | 0.00039856 |   0.0 |  2.58
Output  | 0          | 0          | 0          |   0.0 |  0.00
Modify  | 0          | 0          | 0          |   0.0 |  0.00
Other   |            | 0.001412   |            |       |  9.13

Nlocal:    180 ave 180 max 180 min
Histogram: 1 0 0 0 0 0 0 0 0 0
Nghost:    1722 ave 1722 max 1722 min
Histogram: 1 0 0 0 0 0 0 0 0 0
Neighs:    13482 ave 13482 max 13482 min
Histogram: 1 0 0 0 0 0 0 0 0 0

Total # of neighbors = 13482
Ave neighs/atom = 74.9
Ave special neighs/atom = 6.35556
Neighbor list builds = 0
Dangerous builds = 0
unfix           1
min_style       fire
variable        tempstp    equal $(step)
variable        tempstp    equal 26332
variable        CellMinStep equal ${tempstp}
variable        CellMinStep equal 26332
minimize        1.0e-15 1.0e-15 10000 100000
WARNING: Using 'neigh_modify every 1 delay 0 check yes' setting during minimization (src/min.cpp:190)
  Parameters for fire: 
    dmax delaystep dtgrow dtshrink alpha0 alphashrink tmax tmin    integrator halfstepback 
     0.1        20    1.1      0.5   0.25        0.99   10 0.02 eulerimplicit          yes 
WARNING: Inconsistent image flags (src/domain.cpp:785)
WARNING: Bond/angle/dihedral extent > half of periodic box length (src/domain.cpp:906)
Per MPI rank memory allocation (min/avg/max) = 17.68 | 17.68 | 17.68 Mbytes
Step Temp E_pair E_mol TotEng Press 
   26332            0    146.86881    1771.8909    1918.7597   -152.00034 
   26387 8.6062661e-11    146.86881    1771.8909    1918.7597    -152.0027 
WARNING: Bond/angle/dihedral extent > half of periodic box length (src/domain.cpp:906)
Loop time of 0.0137502 on 1 procs for 55 steps with 180 atoms

99.5% CPU use with 1 MPI tasks x 1 OpenMP threads

Minimization stats:
  Stopping criterion = energy tolerance
  Energy initial, next-to-last, final = 
         1918.75968346      1918.75968346      1918.75968346
  Force two-norm initial, final = 4.00846e-05 3.52075e-05
  Force max component initial, final = 1.07449e-05 9.40699e-06
  Final line search alpha, max atom move = 0 0
  Iterations, force evaluations = 55 55

MPI task timing breakdown:
Section |  min time  |  avg time  |  max time  |%varavg| %total
---------------------------------------------------------------
Pair    | 0.0087745  | 0.0087745  | 0.0087745  |   0.0 | 63.81
Bond    | 0.0040108  | 0.0040108  | 0.0040108  |   0.0 | 29.17
Neigh   | 0          | 0          | 0          |   0.0 |  0.00
Comm    | 0.00041976 | 0.00041976 | 0.00041976 |   0.0 |  3.05
Output  | 0          | 0          | 0          |   0.0 |  0.00
Modify  | 0          | 0          | 0          |   0.0 |  0.00
Other   |            | 0.0005452  |            |       |  3.97

Nlocal:    180 ave 180 max 180 min
Histogram: 1 0 0 0 0 0 0 0 0 0
Nghost:    1722 ave 1722 max 1722 min
Histogram: 1 0 0 0 0 0 0 0 0 0
Neighs:    13482 ave 13482 max 13482 min
Histogram: 1 0 0 0 0 0 0 0 0 0

Total # of neighbors = 13482
Ave neighs/atom = 74.9
Ave special neighs/atom = 6.35556
Neighbor list builds = 0
Dangerous builds = 0
variable        AtomMinStep equal ${tempstp}
variable        AtomMinStep equal 26332
variable        temppe     equal $(pe)
variable        temppe     equal 1918.7596834635482992
variable        min_E      equal abs(${prev_E}-${temppe})
variable        min_E      equal abs(1918.75968346371-${temppe})
variable        min_E      equal abs(1918.75968346371-1918.75968346355)
print           "${iter},${CellMinStep},${AtomMinStep},${AtomMinStep},$(pe),${min_E}" append NiPyC2_relax_sc211_meta_functionalized_CH2-CH2-CH3.min.csv screen no
if              "${min_E} < ${min_eval}" then "jump SELF break_min"
jump SELF break_min
undump          NiPyC2_relax_sc211_meta_functionalized_CH2-CH2-CH3_xyzmov

# Dump last snapshot for restart
variable curr_lx equal lx
variable curr_ly equal ly
variable curr_lz equal lz
change_box all x final 0 ${curr_lx} y final 0 ${curr_ly} z final 0 ${curr_lz}
change_box all x final 0 14.214010493844 y final 0 ${curr_ly} z final 0 ${curr_lz}
change_box all x final 0 14.214010493844 y final 0 10.1010110221916 z final 0 ${curr_lz}
change_box all x final 0 14.214010493844 y final 0 10.1010110221916 z final 0 11.4881171867547
  triclinic box = (0 1.21119 -0.606919) to (14.214 11.3122 10.8812) with tilt (0 -0.254483 0)
  triclinic box = (0 0 -0.606919) to (14.214 10.101 10.8812) with tilt (0 -0.254483 0)
  triclinic box = (0 0 0) to (14.214 10.101 11.4881) with tilt (0 -0.254483 0)

reset_timestep 0
dump            NiPyC2_relax_sc211_meta_functionalized_CH2-CH2-CH3_restart all atom 1 NiPyC2_relax_sc211_meta_functionalized_CH2-CH2-CH3_restart.lammpstrj
dump_modify     NiPyC2_relax_sc211_meta_functionalized_CH2-CH2-CH3_restart scale no sort id
run 0
WARNING: No fixes defined, atoms won't move (src/verlet.cpp:52)
WARNING: Inconsistent image flags (src/domain.cpp:785)
WARNING: Bond/angle/dihedral extent > half of periodic box length (src/domain.cpp:906)
Per MPI rank memory allocation (min/avg/max) = 17.68 | 17.68 | 17.68 Mbytes
Step Temp E_pair E_mol TotEng Press 
       0 8.6062661e-11    146.86881    1771.8909    1918.7597    -152.0027 
WARNING: Bond/angle/dihedral extent > half of periodic box length (src/domain.cpp:906)
Loop time of 8.47998e-07 on 1 procs for 0 steps with 180 atoms

0.0% CPU use with 1 MPI tasks x 1 OpenMP threads

MPI task timing breakdown:
Section |  min time  |  avg time  |  max time  |%varavg| %total
---------------------------------------------------------------
Pair    | 0          | 0          | 0          |   0.0 |  0.00
Bond    | 0          | 0          | 0          |   0.0 |  0.00
Neigh   | 0          | 0          | 0          |   0.0 |  0.00
Comm    | 0          | 0          | 0          |   0.0 |  0.00
Output  | 0          | 0          | 0          |   0.0 |  0.00
Modify  | 0          | 0          | 0          |   0.0 |  0.00
Other   |            | 8.48e-07   |            |       |100.00

Nlocal:    180 ave 180 max 180 min
Histogram: 1 0 0 0 0 0 0 0 0 0
Nghost:    1721 ave 1721 max 1721 min
Histogram: 1 0 0 0 0 0 0 0 0 0
Neighs:    13482 ave 13482 max 13482 min
Histogram: 1 0 0 0 0 0 0 0 0 0

Total # of neighbors = 13482
Ave neighs/atom = 74.9
Ave special neighs/atom = 6.35556
Neighbor list builds = 0
Dangerous builds = 0
undump          NiPyC2_relax_sc211_meta_functionalized_CH2-CH2-CH3_restart
Total wall time: 0:00:06
units           real
atom_style      full
boundary        p p p

pair_style      lj/cut 5.000
bond_style      harmonic
angle_style     hybrid cosine/periodic fourier
dihedral_style  harmonic
improper_style  fourier

pair_modify     tail yes mix arithmetic
special_bonds   lj/coul 0.0 0.0 1.0
dielectric      1.0
box tilt        large
read_data       data.NiPyC2_relax_sc211_meta_functionalized_CH2-CH2-CH3
  triclinic box = (0 0 0) to (12.5056 12.5234 10.2743) with tilt (0 -0.227594 0)
  1 by 1 by 1 MPI processor grid
  reading atoms ...
  180 atoms
  scanning bonds ...
  6 = max bonds/atom
  scanning angles ...
  15 = max angles/atom
  scanning dihedrals ...
  14 = max dihedrals/atom
  scanning impropers ...
  3 = max impropers/atom
  reading bonds ...
  200 bonds
  reading angles ...
  388 angles
  reading dihedrals ...
  448 dihedrals
  reading impropers ...
  168 impropers
  6 = max # of 1-2 neighbors
  9 = max # of 1-3 neighbors
  12 = max # of special neighbors
  special bonds CPU = 0.000361624 secs
  read_data CPU = 0.056254 secs

#### Atom Groupings ####
group           fram     id   1:180
180 atoms in group fram
#### END Atom Groupings ####

dump            NiPyC2_relax_sc211_meta_functionalized_CH2-CH2-CH3_xyzmov all xyz 20000 NiPyC2_relax_sc211_meta_functionalized_CH2-CH2-CH3_mov.xyz
dump_modify     NiPyC2_relax_sc211_meta_functionalized_CH2-CH2-CH3_xyzmov element Ni O N C H C
min_style       cg
print           "MinStep,CellMinStep,AtomMinStep,FinalStep,Energy,EDiff" file NiPyC2_relax_sc211_meta_functionalized_CH2-CH2-CH3.min.csv screen no
variable        min_eval   equal 1.00e-06
variable        prev_E     equal 50000.00
variable        iter       loop 100000
label           loop_min
min_style       cg
fix             1 all box/freeze aniso 0.0 vmax 0.01
ERROR: Unrecognized fix style 'box/freeze' (src/modify.cpp:907)
Last command: fix             1 all box/freeze aniso 0.0 vmax 0.01
units           real
atom_style      full
boundary        p p p

pair_style      lj/cut 5.000
bond_style      harmonic
angle_style     hybrid cosine/periodic fourier
dihedral_style  harmonic
improper_style  fourier

pair_modify     tail yes mix arithmetic
special_bonds   lj/coul 0.0 0.0 1.0
dielectric      1.0
box tilt        large
read_data       data.NiPyC2_relax_sc211_meta_functionalized_CH2-CH2-CH3
  triclinic box = (0 0 0) to (12.5056 12.5234 10.2743) with tilt (0 -0.227594 0)
  1 by 1 by 1 MPI processor grid
  reading atoms ...
  180 atoms
  scanning bonds ...
  6 = max bonds/atom
  scanning angles ...
  15 = max angles/atom
  scanning dihedrals ...
  14 = max dihedrals/atom
  scanning impropers ...
  3 = max impropers/atom
  reading bonds ...
  200 bonds
  reading angles ...
  388 angles
  reading dihedrals ...
  448 dihedrals
  reading impropers ...
  168 impropers
  6 = max # of 1-2 neighbors
  9 = max # of 1-3 neighbors
  12 = max # of special neighbors
  special bonds CPU = 0.000149734 secs
  read_data CPU = 0.00409481 secs

#### Atom Groupings ####
group           fram     id   1:180
180 atoms in group fram
#### END Atom Groupings ####

dump            NiPyC2_relax_sc211_meta_functionalized_CH2-CH2-CH3_xyzmov all xyz 20000 NiPyC2_relax_sc211_meta_functionalized_CH2-CH2-CH3_mov.xyz
dump_modify     NiPyC2_relax_sc211_meta_functionalized_CH2-CH2-CH3_xyzmov element Ni O N C H C
min_style       cg
print           "MinStep,CellMinStep,AtomMinStep,FinalStep,Energy,EDiff" file NiPyC2_relax_sc211_meta_functionalized_CH2-CH2-CH3.min.csv screen no
variable        min_eval   equal 1.00e-06
variable        prev_E     equal 50000.00
variable        iter       loop 100000
label           loop_min
min_style       fire
variable        tempstp    equal $(step)
variable        tempstp    equal 0
variable        CellMinStep equal ${tempstp}
variable        CellMinStep equal 0
minimize        1.0e-15 1.0e-15 10000 100000
WARNING: Using 'neigh_modify every 1 delay 0 check yes' setting during minimization (src/min.cpp:190)
Neighbor list info ...
  update every 1 steps, delay 0 steps, check yes
  max neighbors/atom: 2000, page size: 100000
  master list distance cutoff = 7
  ghost atom cutoff = 7
  binsize = 3.5, bins = 4 4 3
  1 neighbor lists, perpetual/occasional/extra = 1 0 0
  (1) pair lj/cut, perpetual
      attributes: half, newton on
      pair build: half/bin/newton/tri
      stencil: half/bin/3d/newton/tri
      bin: standard
  Parameters for fire: 
    dmax delaystep dtgrow dtshrink alpha0 alphashrink tmax tmin    integrator halfstepback 
     0.1        20    1.1      0.5   0.25        0.99   10 0.02 eulerimplicit          yes 
WARNING: Inconsistent image flags (src/domain.cpp:785)
WARNING: Bond/angle/dihedral extent > half of periodic box length (src/domain.cpp:906)
Per MPI rank memory allocation (min/avg/max) = 17.68 | 17.68 | 17.68 Mbytes
Step Temp E_pair E_mol TotEng Press 
       0            0 1.6852807e+10     2228.566 1.6852809e+10 2.8726302e+12 
ERROR on proc 0: Bond atoms 1 6 missing on proc 0 at step 1 (src/ntopo_bond_all.cpp:63)
Last command: minimize        1.0e-15 1.0e-15 10000 100000
units           real
atom_style      full
boundary        p p p

pair_style      lj/cut 5.000
bond_style      harmonic
angle_style     hybrid cosine/periodic fourier
dihedral_style  harmonic
improper_style  fourier

pair_modify     tail yes mix arithmetic
special_bonds   lj/coul 0.0 0.0 1.0
dielectric      1.0
box tilt        large
read_data       data.NiPyC2_relax_sc211_meta_functionalized_CH2-CH2-CH3
  triclinic box = (0 0 0) to (12.5056 12.5234 10.2743) with tilt (0 -0.227594 0)
  1 by 1 by 1 MPI processor grid
  reading atoms ...
  180 atoms
  scanning bonds ...
  6 = max bonds/atom
  scanning angles ...
  15 = max angles/atom
  scanning dihedrals ...
  14 = max dihedrals/atom
  scanning impropers ...
  3 = max impropers/atom
  reading bonds ...
  200 bonds
  reading angles ...
  388 angles
  reading dihedrals ...
  448 dihedrals
  reading impropers ...
  168 impropers
  6 = max # of 1-2 neighbors
  9 = max # of 1-3 neighbors
  12 = max # of special neighbors
  special bonds CPU = 0.000128931 secs
  read_data CPU = 0.00677411 secs

#### Atom Groupings ####
group           fram     id   1:180
180 atoms in group fram
#### END Atom Groupings ####

dump            NiPyC2_relax_sc211_meta_functionalized_CH2-CH2-CH3_xyzmov all xyz 20000 NiPyC2_relax_sc211_meta_functionalized_CH2-CH2-CH3_mov.xyz
dump_modify     NiPyC2_relax_sc211_meta_functionalized_CH2-CH2-CH3_xyzmov element Ni O N C H C
min_style       cg
print           "MinStep,CellMinStep,AtomMinStep,FinalStep,Energy,EDiff" file NiPyC2_relax_sc211_meta_functionalized_CH2-CH2-CH3.min.csv screen no
variable        min_eval   equal 1.00e-06
variable        prev_E     equal 50000.00
variable        iter       loop 100000
label           loop_min
min_style       fire
variable        tempstp    equal $(step)
variable        tempstp    equal 0
variable        CellMinStep equal ${tempstp}
variable        CellMinStep equal 0
minimize        1.0e-15 1.0e-15 10000 100000
WARNING: Using 'neigh_modify every 1 delay 0 check yes' setting during minimization (src/min.cpp:190)
Neighbor list info ...
  update every 1 steps, delay 0 steps, check yes
  max neighbors/atom: 2000, page size: 100000
  master list distance cutoff = 7
  ghost atom cutoff = 7
  binsize = 3.5, bins = 4 4 3
  1 neighbor lists, perpetual/occasional/extra = 1 0 0
  (1) pair lj/cut, perpetual
      attributes: half, newton on
      pair build: half/bin/newton/tri
      stencil: half/bin/3d/newton/tri
      bin: standard
  Parameters for fire: 
    dmax delaystep dtgrow dtshrink alpha0 alphashrink tmax tmin    integrator halfstepback 
     0.1        20    1.1      0.5   0.25        0.99   10 0.02 eulerimplicit          yes 
WARNING: Inconsistent image flags (src/domain.cpp:785)
WARNING: Bond/angle/dihedral extent > half of periodic box length (src/domain.cpp:906)
Per MPI rank memory allocation (min/avg/max) = 17.68 | 17.68 | 17.68 Mbytes
Step Temp E_pair E_mol TotEng Press 
       0            0 1.6852807e+10     2228.566 1.6852809e+10 2.8726302e+12 
ERROR on proc 0: Bond atoms 1 6 missing on proc 0 at step 1 (src/ntopo_bond_all.cpp:63)
Last command: minimize        1.0e-15 1.0e-15 10000 100000
units           real
atom_style      full
boundary        p p p

pair_style      lj/cut 5.000
bond_style      harmonic
angle_style     hybrid cosine/periodic fourier
dihedral_style  harmonic
improper_style  fourier

pair_modify     tail yes mix arithmetic
special_bonds   lj/coul 0.0 0.0 1.0
dielectric      1.0
box tilt        large
read_data       data.NiPyC2_relax_sc211_meta_functionalized_CH2-CH2-CH3
  triclinic box = (0 0 0) to (12.5056 12.5234 10.2743) with tilt (0 -0.227594 0)
  1 by 1 by 1 MPI processor grid
  reading atoms ...
  180 atoms
  scanning bonds ...
  6 = max bonds/atom
  scanning angles ...
  15 = max angles/atom
  scanning dihedrals ...
  14 = max dihedrals/atom
  scanning impropers ...
  3 = max impropers/atom
  reading bonds ...
  200 bonds
  reading angles ...
  388 angles
  reading dihedrals ...
  448 dihedrals
  reading impropers ...
  168 impropers
  6 = max # of 1-2 neighbors
  9 = max # of 1-3 neighbors
  12 = max # of special neighbors
  special bonds CPU = 0.000189524 secs
  read_data CPU = 0.00723978 secs

#### Atom Groupings ####
group           fram     id   1:180
180 atoms in group fram
#### END Atom Groupings ####

dump            NiPyC2_relax_sc211_meta_functionalized_CH2-CH2-CH3_xyzmov all xyz 20000 NiPyC2_relax_sc211_meta_functionalized_CH2-CH2-CH3_mov.xyz
dump_modify     NiPyC2_relax_sc211_meta_functionalized_CH2-CH2-CH3_xyzmov element Ni O N C H C
min_style       cg
print           "MinStep,CellMinStep,AtomMinStep,FinalStep,Energy,EDiff" file NiPyC2_relax_sc211_meta_functionalized_CH2-CH2-CH3.min.csv screen no
variable        min_eval   equal 1.00e-06
variable        prev_E     equal 50000.00
variable        iter       loop 100000
label           loop_min
min_style       cg
variable        tempstp    equal $(step)
variable        tempstp    equal 0
variable        CellMinStep equal ${tempstp}
variable        CellMinStep equal 0
minimize        1.0e-15 1.0e-15 10000 100000
WARNING: Using 'neigh_modify every 1 delay 0 check yes' setting during minimization (src/min.cpp:190)
Neighbor list info ...
  update every 1 steps, delay 0 steps, check yes
  max neighbors/atom: 2000, page size: 100000
  master list distance cutoff = 7
  ghost atom cutoff = 7
  binsize = 3.5, bins = 4 4 3
  1 neighbor lists, perpetual/occasional/extra = 1 0 0
  (1) pair lj/cut, perpetual
      attributes: half, newton on
      pair build: half/bin/newton/tri
      stencil: half/bin/3d/newton/tri
      bin: standard
WARNING: Inconsistent image flags (src/domain.cpp:785)
WARNING: Bond/angle/dihedral extent > half of periodic box length (src/domain.cpp:906)
Per MPI rank memory allocation (min/avg/max) = 18.81 | 18.81 | 18.81 Mbytes
Step Temp E_pair E_mol TotEng Press 
       0            0 1.6852807e+10     2228.566 1.6852809e+10 2.8726302e+12 
     293            0    269.43558    2026.3898    2295.8254   -1064.6636 
WARNING: Bond/angle/dihedral extent > half of periodic box length (src/domain.cpp:906)
Loop time of 0.162629 on 1 procs for 293 steps with 180 atoms

100.0% CPU use with 1 MPI tasks x 1 OpenMP threads

Minimization stats:
  Stopping criterion = linesearch alpha is zero
  Energy initial, next-to-last, final = 
         16852809254.6      2295.82541036      2295.82541036
  Force two-norm initial, final = 4.79631e+11 12.6903
  Force max component initial, final = 2.12065e+11 3.72251
  Final line search alpha, max atom move = 4.45599e-11 1.65874e-10
  Iterations, force evaluations = 293 601

MPI task timing breakdown:
Section |  min time  |  avg time  |  max time  |%varavg| %total
---------------------------------------------------------------
Pair    | 0.096671   | 0.096671   | 0.096671   |   0.0 | 59.44
Bond    | 0.045333   | 0.045333   | 0.045333   |   0.0 | 27.88
Neigh   | 0.011945   | 0.011945   | 0.011945   |   0.0 |  7.34
Comm    | 0.0050577  | 0.0050577  | 0.0050577  |   0.0 |  3.11
Output  | 0          | 0          | 0          |   0.0 |  0.00
Modify  | 0          | 0          | 0          |   0.0 |  0.00
Other   |            | 0.003622   |            |       |  2.23

Nlocal:    180 ave 180 max 180 min
Histogram: 1 0 0 0 0 0 0 0 0 0
Nghost:    1789 ave 1789 max 1789 min
Histogram: 1 0 0 0 0 0 0 0 0 0
Neighs:    13850 ave 13850 max 13850 min
Histogram: 1 0 0 0 0 0 0 0 0 0

Total # of neighbors = 13850
Ave neighs/atom = 76.9444
Ave special neighs/atom = 6.35556
Neighbor list builds = 11
Dangerous builds = 0
variable        AtomMinStep equal ${tempstp}
variable        AtomMinStep equal 0
variable        temppe     equal $(pe)
variable        temppe     equal 2295.8254103629597012
variable        min_E      equal abs(${prev_E}-${temppe})
variable        min_E      equal abs(50000-${temppe})
variable        min_E      equal abs(50000-2295.82541036296)
print           "${iter},${CellMinStep},${AtomMinStep},${AtomMinStep},$(pe),${min_E}" append NiPyC2_relax_sc211_meta_functionalized_CH2-CH2-CH3.min.csv screen no
if              "${min_E} < ${min_eval}" then "jump SELF break_min"
variable        prev_E     equal ${temppe}
variable        prev_E     equal 2295.82541036296
next            iter
jump            SELF loop_min
min_style       cg
variable        tempstp    equal $(step)
variable        tempstp    equal 293
variable        CellMinStep equal ${tempstp}
variable        CellMinStep equal 293
minimize        1.0e-15 1.0e-15 10000 100000
WARNING: Using 'neigh_modify every 1 delay 0 check yes' setting during minimization (src/min.cpp:190)
WARNING: Inconsistent image flags (src/domain.cpp:785)
WARNING: Bond/angle/dihedral extent > half of periodic box length (src/domain.cpp:906)
Per MPI rank memory allocation (min/avg/max) = 18.81 | 18.81 | 18.81 Mbytes
Step Temp E_pair E_mol TotEng Press 
     293            0    269.43558    2026.3898    2295.8254   -1064.6636 
     315            0    270.13938    2024.6267    2294.7661   -684.90967 
WARNING: Bond/angle/dihedral extent > half of periodic box length (src/domain.cpp:906)
Loop time of 0.023934 on 1 procs for 22 steps with 180 atoms

100.0% CPU use with 1 MPI tasks x 1 OpenMP threads

Minimization stats:
  Stopping criterion = linesearch alpha is zero
  Energy initial, next-to-last, final = 
         2295.82541036      2294.76610126      2294.76610126
  Force two-norm initial, final = 12.6903 6.41937
  Force max component initial, final = 3.72251 1.31402
  Final line search alpha, max atom move = 2.63629e-10 3.46414e-10
  Iterations, force evaluations = 22 97

MPI task timing breakdown:
Section |  min time  |  avg time  |  max time  |%varavg| %total
---------------------------------------------------------------
Pair    | 0.01543    | 0.01543    | 0.01543    |   0.0 | 64.47
Bond    | 0.0072197  | 0.0072197  | 0.0072197  |   0.0 | 30.16
Neigh   | 0          | 0          | 0          |   0.0 |  0.00
Comm    | 0.00070579 | 0.00070579 | 0.00070579 |   0.0 |  2.95
Output  | 0          | 0          | 0          |   0.0 |  0.00
Modify  | 0          | 0          | 0          |   0.0 |  0.00
Other   |            | 0.0005788  |            |       |  2.42

Nlocal:    180 ave 180 max 180 min
Histogram: 1 0 0 0 0 0 0 0 0 0
Nghost:    1794 ave 1794 max 1794 min
Histogram: 1 0 0 0 0 0 0 0 0 0
Neighs:    13857 ave 13857 max 13857 min
Histogram: 1 0 0 0 0 0 0 0 0 0

Total # of neighbors = 13857
Ave neighs/atom = 76.9833
Ave special neighs/atom = 6.35556
Neighbor list builds = 0
Dangerous builds = 0
variable        AtomMinStep equal ${tempstp}
variable        AtomMinStep equal 293
variable        temppe     equal $(pe)
variable        temppe     equal 2294.7661012572370964
variable        min_E      equal abs(${prev_E}-${temppe})
variable        min_E      equal abs(2295.82541036296-${temppe})
variable        min_E      equal abs(2295.82541036296-2294.76610125724)
print           "${iter},${CellMinStep},${AtomMinStep},${AtomMinStep},$(pe),${min_E}" append NiPyC2_relax_sc211_meta_functionalized_CH2-CH2-CH3.min.csv screen no
if              "${min_E} < ${min_eval}" then "jump SELF break_min"
variable        prev_E     equal ${temppe}
variable        prev_E     equal 2294.76610125724
next            iter
jump            SELF loop_min
min_style       cg
variable        tempstp    equal $(step)
variable        tempstp    equal 315
variable        CellMinStep equal ${tempstp}
variable        CellMinStep equal 315
minimize        1.0e-15 1.0e-15 10000 100000
WARNING: Using 'neigh_modify every 1 delay 0 check yes' setting during minimization (src/min.cpp:190)
WARNING: Inconsistent image flags (src/domain.cpp:785)
WARNING: Bond/angle/dihedral extent > half of periodic box length (src/domain.cpp:906)
Per MPI rank memory allocation (min/avg/max) = 18.81 | 18.81 | 18.81 Mbytes
Step Temp E_pair E_mol TotEng Press 
     315            0    270.13938    2024.6267    2294.7661   -684.90967 
     324            0    270.08499    2024.6145    2294.6995   -727.94882 
WARNING: Bond/angle/dihedral extent > half of periodic box length (src/domain.cpp:906)
Loop time of 0.0189803 on 1 procs for 9 steps with 180 atoms

100.0% CPU use with 1 MPI tasks x 1 OpenMP threads

Minimization stats:
  Stopping criterion = linesearch alpha is zero
  Energy initial, next-to-last, final = 
         2294.76610126      2294.69947778      2294.69947778
  Force two-norm initial, final = 6.41937 5.92019
  Force max component initial, final = 1.31402 1.11871
  Final line search alpha, max atom move = 2.52235e-10 2.82179e-10
  Iterations, force evaluations = 9 73

MPI task timing breakdown:
Section |  min time  |  avg time  |  max time  |%varavg| %total
---------------------------------------------------------------
Pair    | 0.012297   | 0.012297   | 0.012297   |   0.0 | 64.79
Bond    | 0.0055847  | 0.0055847  | 0.0055847  |   0.0 | 29.42
Neigh   | 0          | 0          | 0          |   0.0 |  0.00
Comm    | 0.00059159 | 0.00059159 | 0.00059159 |   0.0 |  3.12
Output  | 0          | 0          | 0          |   0.0 |  0.00
Modify  | 0          | 0          | 0          |   0.0 |  0.00
Other   |            | 0.0005066  |            |       |  2.67

Nlocal:    180 ave 180 max 180 min
Histogram: 1 0 0 0 0 0 0 0 0 0
Nghost:    1790 ave 1790 max 1790 min
Histogram: 1 0 0 0 0 0 0 0 0 0
Neighs:    13861 ave 13861 max 13861 min
Histogram: 1 0 0 0 0 0 0 0 0 0

Total # of neighbors = 13861
Ave neighs/atom = 77.0056
Ave special neighs/atom = 6.35556
Neighbor list builds = 0
Dangerous builds = 0
variable        AtomMinStep equal ${tempstp}
variable        AtomMinStep equal 315
variable        temppe     equal $(pe)
variable        temppe     equal 2294.6994777776881165
variable        min_E      equal abs(${prev_E}-${temppe})
variable        min_E      equal abs(2294.76610125724-${temppe})
variable        min_E      equal abs(2294.76610125724-2294.69947777769)
print           "${iter},${CellMinStep},${AtomMinStep},${AtomMinStep},$(pe),${min_E}" append NiPyC2_relax_sc211_meta_functionalized_CH2-CH2-CH3.min.csv screen no
if              "${min_E} < ${min_eval}" then "jump SELF break_min"
variable        prev_E     equal ${temppe}
variable        prev_E     equal 2294.69947777769
next            iter
jump            SELF loop_min
min_style       cg
variable        tempstp    equal $(step)
variable        tempstp    equal 324
variable        CellMinStep equal ${tempstp}
variable        CellMinStep equal 324
minimize        1.0e-15 1.0e-15 10000 100000
WARNING: Using 'neigh_modify every 1 delay 0 check yes' setting during minimization (src/min.cpp:190)
WARNING: Inconsistent image flags (src/domain.cpp:785)
WARNING: Bond/angle/dihedral extent > half of periodic box length (src/domain.cpp:906)
Per MPI rank memory allocation (min/avg/max) = 18.81 | 18.81 | 18.81 Mbytes
Step Temp E_pair E_mol TotEng Press 
     324            0    270.08499    2024.6145    2294.6995   -727.94882 
     326            0    270.08248    2024.6131    2294.6956   -722.64602 
WARNING: Bond/angle/dihedral extent > half of periodic box length (src/domain.cpp:906)
Loop time of 0.0157659 on 1 procs for 2 steps with 180 atoms

100.0% CPU use with 1 MPI tasks x 1 OpenMP threads

Minimization stats:
  Stopping criterion = linesearch alpha is zero
  Energy initial, next-to-last, final = 
         2294.69947778      2294.69561121      2294.69561121
  Force two-norm initial, final = 5.92019 3.02944
  Force max component initial, final = 1.11871 0.449089
  Final line search alpha, max atom move = 8.29522e-10 3.72529e-10
  Iterations, force evaluations = 2 61

MPI task timing breakdown:
Section |  min time  |  avg time  |  max time  |%varavg| %total
---------------------------------------------------------------
Pair    | 0.010009   | 0.010009   | 0.010009   |   0.0 | 63.48
Bond    | 0.0047503  | 0.0047503  | 0.0047503  |   0.0 | 30.13
Neigh   | 0          | 0          | 0          |   0.0 |  0.00
Comm    | 0.00049922 | 0.00049922 | 0.00049922 |   0.0 |  3.17
Output  | 0          | 0          | 0          |   0.0 |  0.00
Modify  | 0          | 0          | 0          |   0.0 |  0.00
Other   |            | 0.0005075  |            |       |  3.22

Nlocal:    180 ave 180 max 180 min
Histogram: 1 0 0 0 0 0 0 0 0 0
Nghost:    1790 ave 1790 max 1790 min
Histogram: 1 0 0 0 0 0 0 0 0 0
Neighs:    13858 ave 13858 max 13858 min
Histogram: 1 0 0 0 0 0 0 0 0 0

Total # of neighbors = 13858
Ave neighs/atom = 76.9889
Ave special neighs/atom = 6.35556
Neighbor list builds = 0
Dangerous builds = 0
variable        AtomMinStep equal ${tempstp}
variable        AtomMinStep equal 324
variable        temppe     equal $(pe)
variable        temppe     equal 2294.6956112119037243
variable        min_E      equal abs(${prev_E}-${temppe})
variable        min_E      equal abs(2294.69947777769-${temppe})
variable        min_E      equal abs(2294.69947777769-2294.6956112119)
print           "${iter},${CellMinStep},${AtomMinStep},${AtomMinStep},$(pe),${min_E}" append NiPyC2_relax_sc211_meta_functionalized_CH2-CH2-CH3.min.csv screen no
if              "${min_E} < ${min_eval}" then "jump SELF break_min"
variable        prev_E     equal ${temppe}
variable        prev_E     equal 2294.6956112119
next            iter
jump            SELF loop_min
min_style       cg
variable        tempstp    equal $(step)
variable        tempstp    equal 326
variable        CellMinStep equal ${tempstp}
variable        CellMinStep equal 326
minimize        1.0e-15 1.0e-15 10000 100000
WARNING: Using 'neigh_modify every 1 delay 0 check yes' setting during minimization (src/min.cpp:190)
WARNING: Inconsistent image flags (src/domain.cpp:785)
WARNING: Bond/angle/dihedral extent > half of periodic box length (src/domain.cpp:906)
Per MPI rank memory allocation (min/avg/max) = 18.81 | 18.81 | 18.81 Mbytes
Step Temp E_pair E_mol TotEng Press 
     326            0    270.08248    2024.6131    2294.6956   -722.64602 
     327            0    270.08248    2024.6131    2294.6956   -722.64602 
WARNING: Bond/angle/dihedral extent > half of periodic box length (src/domain.cpp:906)
Loop time of 0.0143425 on 1 procs for 1 steps with 180 atoms

100.0% CPU use with 1 MPI tasks x 1 OpenMP threads

Minimization stats:
  Stopping criterion = linesearch alpha is zero
  Energy initial, next-to-last, final = 
         2294.69561121      2294.69561121      2294.69561121
  Force two-norm initial, final = 3.02944 3.02944
  Force max component initial, final = 0.449089 0.449089
  Final line search alpha, max atom move = 8.29522e-10 3.72529e-10
  Iterations, force evaluations = 1 56

MPI task timing breakdown:
Section |  min time  |  avg time  |  max time  |%varavg| %total
---------------------------------------------------------------
Pair    | 0.0090947  | 0.0090947  | 0.0090947  |   0.0 | 63.41
Bond    | 0.0043539  | 0.0043539  | 0.0043539  |   0.0 | 30.36
Neigh   | 0          | 0          | 0          |   0.0 |  0.00
Comm    | 0.00045449 | 0.00045449 | 0.00045449 |   0.0 |  3.17
Output  | 0          | 0          | 0          |   0.0 |  0.00
Modify  | 0          | 0          | 0          |   0.0 |  0.00
Other   |            | 0.0004393  |            |       |  3.06

Nlocal:    180 ave 180 max 180 min
Histogram: 1 0 0 0 0 0 0 0 0 0
Nghost:    1790 ave 1790 max 1790 min
Histogram: 1 0 0 0 0 0 0 0 0 0
Neighs:    13859 ave 13859 max 13859 min
Histogram: 1 0 0 0 0 0 0 0 0 0

Total # of neighbors = 13859
Ave neighs/atom = 76.9944
Ave special neighs/atom = 6.35556
Neighbor list builds = 0
Dangerous builds = 0
variable        AtomMinStep equal ${tempstp}
variable        AtomMinStep equal 326
variable        temppe     equal $(pe)
variable        temppe     equal 2294.6956112119037243
variable        min_E      equal abs(${prev_E}-${temppe})
variable        min_E      equal abs(2294.6956112119-${temppe})
variable        min_E      equal abs(2294.6956112119-2294.6956112119)
print           "${iter},${CellMinStep},${AtomMinStep},${AtomMinStep},$(pe),${min_E}" append NiPyC2_relax_sc211_meta_functionalized_CH2-CH2-CH3.min.csv screen no
if              "${min_E} < ${min_eval}" then "jump SELF break_min"
jump SELF break_min
undump          NiPyC2_relax_sc211_meta_functionalized_CH2-CH2-CH3_xyzmov

# Dump last snapshot for restart
variable curr_lx equal lx
variable curr_ly equal ly
variable curr_lz equal lz
change_box all x final 0 ${curr_lx} y final 0 ${curr_ly} z final 0 ${curr_lz}
change_box all x final 0 12.5056 y final 0 ${curr_ly} z final 0 ${curr_lz}
change_box all x final 0 12.5056 y final 0 12.5234 z final 0 ${curr_lz}
change_box all x final 0 12.5056 y final 0 12.5234 z final 0 10.274279
  triclinic box = (0 0 0) to (12.5056 12.5234 10.2743) with tilt (0 -0.227594 0)
  triclinic box = (0 0 0) to (12.5056 12.5234 10.2743) with tilt (0 -0.227594 0)
  triclinic box = (0 0 0) to (12.5056 12.5234 10.2743) with tilt (0 -0.227594 0)

reset_timestep 0
dump            NiPyC2_relax_sc211_meta_functionalized_CH2-CH2-CH3_restart all atom 1 NiPyC2_relax_sc211_meta_functionalized_CH2-CH2-CH3_restart.lammpstrj
dump_modify     NiPyC2_relax_sc211_meta_functionalized_CH2-CH2-CH3_restart scale no sort id
run 0
WARNING: No fixes defined, atoms won't move (src/verlet.cpp:52)
WARNING: Inconsistent image flags (src/domain.cpp:785)
WARNING: Bond/angle/dihedral extent > half of periodic box length (src/domain.cpp:906)
Per MPI rank memory allocation (min/avg/max) = 17.68 | 17.68 | 17.68 Mbytes
Step Temp E_pair E_mol TotEng Press 
       0            0    270.08248    2024.6131    2294.6956   -722.64602 
WARNING: Bond/angle/dihedral extent > half of periodic box length (src/domain.cpp:906)
Loop time of 2.80095e-06 on 1 procs for 0 steps with 180 atoms

178.5% CPU use with 1 MPI tasks x 1 OpenMP threads

MPI task timing breakdown:
Section |  min time  |  avg time  |  max time  |%varavg| %total
---------------------------------------------------------------
Pair    | 0          | 0          | 0          |   0.0 |  0.00
Bond    | 0          | 0          | 0          |   0.0 |  0.00
Neigh   | 0          | 0          | 0          |   0.0 |  0.00
Comm    | 0          | 0          | 0          |   0.0 |  0.00
Output  | 0          | 0          | 0          |   0.0 |  0.00
Modify  | 0          | 0          | 0          |   0.0 |  0.00
Other   |            | 2.801e-06  |            |       |100.00

Nlocal:    180 ave 180 max 180 min
Histogram: 1 0 0 0 0 0 0 0 0 0
Nghost:    1790 ave 1790 max 1790 min
Histogram: 1 0 0 0 0 0 0 0 0 0
Neighs:    13859 ave 13859 max 13859 min
Histogram: 1 0 0 0 0 0 0 0 0 0

Total # of neighbors = 13859
Ave neighs/atom = 76.9944
Ave special neighs/atom = 6.35556
Neighbor list builds = 0
Dangerous builds = 0
undump          NiPyC2_relax_sc211_meta_functionalized_CH2-CH2-CH3_restart
Total wall time: 0:00:00
