ITEM: TIMESTEP
0
ITEM: NUMBER OF ATOMS
180
ITEM: BOX BOUNDS xy xz yz pp pp pp
-2.2093413567837572e-01 1.6105019375037799e+01 0.0000000000000000e+00
0.0000000000000000e+00 1.0837519752993700e+01 -2.2093413567837572e-01
0.0000000000000000e+00 9.9736326554456003e+00 0.0000000000000000e+00
ITEM: ATOMS id type x y z
1 1 2.19274 9.11384 8.5745
2 1 5.98522 3.79478 3.68556
3 2 15.7859 4.61543 3.57709
4 2 3.55669 8.03393 8.61266
5 2 4.44145 2.90825 3.77866
6 2 0.785895 10.207 8.6957
7 2 5.56777 5.12727 4.84824
8 2 1.79831 8.06319 9.90985
9 2 14.9217 2.42071 4.94358
10 2 2.68939 10.3649 9.79372
11 3 3.02079 10.1877 7.25404
12 3 15.0939 2.309 2.22682
13 3 1.3259 7.85396 7.30632
14 3 5.33642 4.90664 2.27828
15 4 2.94074 0.862249 5.37391
16 4 0.0823106 2.04728 0.0415345
17 5 2.44771 1.18982 4.47014
18 5 6.88176 1.63393 9.12978
19 4 4.16301 1.44324 5.76706
20 4 1.01245 1.11648 0.540247
21 4 4.67416 1.10652 7.00557
22 4 1.02058 0.924121 1.908
23 5 14.2815 1.09078 7.37663
24 5 1.7091 0.206788 2.33801
25 4 1.14679 6.7738 5.12793
26 4 5.06871 5.83145 0.0945703
27 5 1.59464 6.53736 4.177
28 5 12.9554 5.84343 9.20072
29 4 1.84706 7.60845 6.05583
30 4 5.9292 5.32073 1.10402
31 5 2.81911 7.99837 5.789
32 5 14.7806 4.95698 0.932757
33 4 2.33234 10.7188 6.19458
34 4 15.059 2.46845 0.839796
35 5 1.32897 10.3803 5.97415
36 5 5.5198 2.68831 0.774842
37 4 4.27066 10.7493 7.61744
38 4 -0.0195315 1.44555 2.71459
39 5 15.9934 0.998003 3.68354
40 4 0.176574 7.12392 7.6759
41 4 4.07506 5.37573 2.58136
42 5 3.61085 5.12237 3.52164
43 4 15.4594 6.57098 6.69198
44 4 3.41005 6.25182 1.76081
45 5 6.27388 6.60598 7.10947
46 5 2.58027 6.81698 2.14518
47 4 15.9824 6.2483 5.46262
48 4 3.84882 6.43633 0.480594
49 4 4.95976 2.30912 4.83868
50 4 1.46991 0.0982644 9.5836
51 4 15.2172 5.30167 4.56544
52 4 2.94922 7.42911 9.6005
53 1 10.1171 9.20359 8.6719
54 1 14.3509 3.56172 3.6268
55 2 7.48842 4.69977 3.81476
56 2 11.4589 8.11932 8.88658
57 2 12.9971 2.52395 3.87469
58 2 8.70209 10.3035 8.65476
59 2 14.0251 4.74426 4.89732
60 2 9.50035 7.96118 9.88232
61 2 6.21532 2.75156 5.07529
62 2 10.6032 10.3422 0.0668623
63 3 11.1751 10.4026 7.56673
64 3 6.7843 2.39181 2.4672
65 3 9.36908 8.08013 7.18929
66 3 13.3029 4.73608 2.40873
67 4 11.648 0.486814 5.3919
68 4 7.35697 1.64721 0.195236
69 5 11.3505 0.546198 4.35183
70 5 -0.143321 2.25185 8.95032
71 4 12.8928 0.994259 5.78224
72 4 8.58315 1.05852 0.628253
73 4 13.2806 0.790734 7.09287
74 4 8.90736 1.23439 1.95907
75 5 5.50922 1.65797 7.39922
76 5 9.84569 0.835495 2.32739
77 4 8.81312 7.14304 4.98186
78 4 12.8878 5.78663 0.26977
79 5 9.03364 7.06285 3.9337
80 5 5.22187 5.97137 9.06443
81 4 9.77039 7.75617 5.87411
82 4 13.7726 5.17961 1.21521
83 4 10.7515 10.7616 6.33412
84 4 6.45897 2.29131 1.13155
85 5 9.77987 10.4421 6.00854
86 4 12.4844 10.8085 7.98097
87 4 7.91662 1.66191 2.88643
88 4 8.07379 7.71785 7.54103
89 4 12.0055 5.19933 2.79917
90 5 7.66993 8.05372 8.47417
91 4 7.23192 6.93089 6.72905
92 4 11.3491 6.21447 2.02177
93 5 14.5216 6.12316 6.99049
94 5 10.4548 6.6843 2.3858
95 4 7.60467 6.60356 5.45052
96 4 11.6934 6.39834 0.693082
97 4 13.6599 1.8787 4.80433
98 4 9.21326 0.115744 9.69246
99 4 6.86328 5.5259 4.65737
100 4 10.759 7.40921 9.74265
101 6 5.42438 9.92419 8.31107
102 6 5.41523 9.27967 9.77053
103 5 6.34746 10.5121 8.26041
104 5 5.62911 9.10693 7.59001
105 6 6.6398 9.55042 0.895617
106 5 5.62334 8.21716 9.58696
107 5 4.71161 9.34423 0.348875
108 5 7.66638 9.39796 0.558711
109 5 6.50071 8.78742 1.6941
110 5 6.42131 10.496 1.40923
111 6 13.7608 2.58388 0.0658215
112 6 12.3931 2.37359 0.710234
113 5 13.5816 3.45643 9.35943
114 5 13.5848 1.78193 9.33099
115 6 11.066 2.84359 9.75286
116 5 12.2262 1.32394 0.927746
117 5 12.2641 2.84202 1.6682
118 5 10.9101 2.11292 8.93763
119 5 10.3718 2.95596 0.375301
120 5 11.2797 3.82113 9.28575
121 6 0.000476373 6.49315 9.04903
122 6 15.6563 7.45843 0.0644295
123 5 0.9163 5.98903 9.40421
124 5 15.441 5.60623 8.97093
125 6 16.0147 7.21021 1.54259
126 5 14.3745 7.41583 9.87499
127 5 15.6553 8.49903 9.77804
128 5 0.439684 6.24722 1.67877
129 5 15.1052 7.18576 2.17049
130 5 0.542092 8.03189 1.93873
131 6 7.34973 5.84079 1.09937
132 6 8.37333 4.83535 0.599984
133 5 7.63926 6.24662 2.08227
134 5 7.42107 6.7277 0.439262
135 6 7.96248 4.4637 9.10611
136 5 8.4139 3.96112 1.26095
137 5 9.3627 5.28832 0.680729
138 5 6.90827 4.22642 8.8596
139 5 8.58281 3.58817 8.86116
140 5 8.32306 5.28374 8.46967
141 6 13.3441 10.0135 9.04288
142 6 13.2475 9.69721 0.593921
143 5 14.3317 10.5106 9.07088
144 5 13.639 9.06616 8.56123
145 6 14.3258 10.0337 1.60088
146 5 13.0769 8.62726 0.725919
147 5 12.4025 10.1309 1.07941
148 5 14.3779 9.26322 2.38824
149 5 14.0321 0.112675 2.13552
150 5 15.3136 10.1163 1.13896
151 6 7.99558 1.03057 4.24624
152 6 8.6938 1.98041 5.23008
153 5 7.00728 0.649529 4.5695
154 5 8.59176 0.094761 4.18816
155 6 8.28492 1.74496 6.68407
156 5 9.77055 1.97655 5.08988
157 5 8.48557 3.01441 4.97762
158 5 7.62819 2.56388 7.03018
159 5 7.74671 0.785368 6.79661
160 5 9.16599 1.74363 7.3476
161 6 11.1119 8.09494 5.23136
162 6 12.4493 8.0456 5.96325
163 5 11.2607 7.34256 4.44199
164 5 10.9923 8.98495 4.59236
165 6 13.5799 8.47096 5.02118
166 5 12.4742 8.69778 6.78729
167 5 12.6487 7.07999 6.43607
168 5 13.2966 9.36771 4.43752
169 5 14.4865 8.747 5.59606
170 5 13.8037 7.65718 4.3039
171 6 11.0824 4.42905 3.79914
172 6 11.4245 4.54936 5.30984
173 5 10.9211 3.38145 3.48715
174 5 10.0571 4.832 3.68724
175 6 10.301 4.5736 6.34112
176 5 11.9495 5.48001 5.42734
177 5 12.0754 3.73451 5.64893
178 5 10.2908 3.62692 6.90846
179 5 9.31857 4.73615 5.89599
180 5 10.4863 5.37031 7.09231
