180
Atoms. Timestep: 0
Ni 2.89857 9.41116 8.59265
Ni 6.17525 3.10579 3.48481
O 1.44827 4.35425 3.93374
O 4.4416 8.15245 9.05464
O 4.63665 1.84729 3.87523
O 1.36499 10.6744 9.00295
O 5.80609 4.46033 4.96242
O 2.54244 8.0327 10.0675
O 0.25117 1.69264 4.94273
O 3.23722 10.8047 10.0626
N 3.69677 10.6606 7.2416
N 0.71256 1.8642 2.11704
N 2.17217 8.14409 7.25198
N 5.44023 4.39481 2.13747
C 3.48546 12.1483 5.36301
C 0.47488 0.38955 0.2292
H 2.86453 12.5181 4.55267
H 5.86971 0.03371 9.69377
C 4.76073 0.1474 5.61481
C 1.74333 12.3699 0.47412
C 5.50345 12.1502 6.68209
C 2.49852 0.35508 1.54004
H 0.24768 12.5084 6.91993
H 3.49155 12.5067 1.77336
C 2.48363 6.6337 5.40822
C 5.72803 5.90364 0.28669
H 3.13294 6.27291 4.61605
H -0.10828 6.26667 9.7662
C 2.92756 7.68099 6.23068
C 6.1883 4.86756 1.11596
H 3.89994 8.14655 6.0889
H 0.91589 4.41889 0.97634
C 2.98256 11.1359 6.19748
C -0.01036 1.40553 1.07106
H 1.99392 10.709 6.04703
H 5.26093 1.85011 0.92351
C 4.93641 11.1381 7.47507
C 1.94823 1.3719 2.3406
H 2.50886 1.79214 3.17267
C 0.94573 7.62654 7.47302
C 4.21083 4.90458 2.35686
H 3.63605 4.47744 3.17528
C 0.43859 6.57577 6.69176
C 3.68763 5.945 1.56944
H 5.70774 6.17693 6.91975
H 2.69824 6.32683 1.80071
C 1.22745 6.06471 5.65205
C 4.46338 6.45777 0.52027
C 5.3126 1.24381 4.79419
C 2.0502 11.2675 9.92158
C 0.73548 4.94016 4.83586
C 3.73174 7.56629 9.95688
Ni 9.15137 9.41116 8.59265
Ni 12.4281 3.10579 3.48481
O 7.70109 4.35425 3.93374
O 10.6944 8.15245 9.05464
O 10.8895 1.84729 3.87523
O 7.61779 10.6744 9.00295
O 12.0589 4.46033 4.96242
O 8.79524 8.0327 10.0675
O 6.50397 1.69264 4.94273
O 9.49002 10.8047 10.0626
N 9.94957 10.6606 7.2416
N 6.96536 1.8642 2.11704
N 8.42499 8.14409 7.25198
N 11.693 4.39481 2.13747
C 9.73826 12.1483 5.36301
C 6.72768 0.38955 0.2292
H 9.11733 12.5181 4.55267
H 12.1225 0.03371 9.69377
C 11.0135 0.1474 5.61481
C 7.99613 12.3699 0.47412
C 11.7562 12.1502 6.68209
C 8.75132 0.35508 1.54004
H 6.50047 12.5084 6.91993
H 9.74435 12.5067 1.77336
C 8.73644 6.6337 5.40822
C 11.9808 5.90364 0.28669
H 9.38574 6.27291 4.61605
H 6.14452 6.26667 9.7662
C 9.18036 7.68099 6.23068
C 12.4411 4.86756 1.11596
C 9.23536 11.1359 6.19748
C 6.24244 1.40553 1.07106
H 8.24672 10.709 6.04703
C 11.1892 11.1381 7.47507
C 8.20102 1.3719 2.3406
C 7.19853 7.62654 7.47302
C 10.4636 4.90458 2.35686
H 6.61608 8.05184 8.28732
C 6.69139 6.57577 6.69176
C 9.94043 5.945 1.56944
H 11.9605 6.17693 6.91975
H 8.95104 6.32683 1.80071
C 7.48025 6.06471 5.65205
C 10.7162 6.45777 0.52027
C 11.5654 1.24381 4.79419
C 8.303 11.2675 9.92158
C 6.98827 4.94016 4.83586
C 9.98454 7.56629 9.95688
C 5.78083 10.556 8.66279
C 5.10454 9.45113 9.49265
H 6.02502 11.3887 9.35772
H 6.71937 10.1293 8.2468
C 6.24746 8.96638 0.34005
H 4.86367 8.58416 8.83956
H 4.16975 9.8428 9.94975
H 6.95958 8.54915 10.1937
H 5.73496 8.17109 0.92135
H 6.49532 9.80407 1.0263
C 11.0807 2.01245 0.77888
C 10.6104 3.11974 1.73777
H 10.8645 2.44493 10.029
H 10.3325 1.19171 0.82936
C 9.22396 3.62982 1.3525
H 10.5604 2.72285 2.77515
H 11.3196 3.97525 1.70124
H 8.4821 2.80408 1.39612
H 8.91046 4.42637 2.0598
H 9.23905 4.05279 0.32537
C 0.0552 8.20317 8.62684
C 0.67054 9.35241 9.44374
H -0.17252 7.37821 9.33647
H 11.6162 8.58353 8.18078
C 12.4461 9.82779 0.25934
H 0.8927 10.2124 8.77502
H 1.60918 9.00784 9.92995
H 11.2731 10.1986 10.0831
H 0.40941 10.6556 0.83187
H 12.2151 8.99754 0.96036
C 7.603 4.25425 0.84011
C 8.04468 3.12384 1.78554
H 8.35686 5.06724 0.92214
H 7.38098 3.84258 10.0817
C 9.43435 2.60956 1.41771
H 7.32932 2.27543 1.71752
H 8.07712 3.49934 2.83154
H 9.43641 2.20747 0.38213
H 9.72694 1.79627 2.11484
H 10.182 3.42778 1.49284
C 12.0336 10.556 8.66279
C 11.3573 9.45113 9.49265
H 12.2778 11.3887 9.35772
H 0.46657 10.1293 8.2468
C -0.00534 8.96638 0.34005
H 11.1165 8.58416 8.83956
H 10.4225 9.8428 9.94975
H 0.70678 8.54915 10.1937
H 11.9878 8.17109 0.92135
H 0.24252 9.80407 1.0263
C 9.06044 1.94024 3.52394
C 8.40268 3.05016 4.36187
H 9.29985 1.10257 4.21459
H 10.0009 2.3574 3.10273
C 9.33127 3.52084 5.47863
H 8.16728 3.92189 3.71313
H 7.46664 2.66782 4.82427
H 10.2728 3.92857 5.05272
H 8.83201 4.32012 6.06591
H 9.57423 2.6782 6.16056
C 10.5824 8.31882 5.94959
C 11.0054 9.46123 6.88913
H 11.3512 7.52006 6.03351
H 10.5784 8.72599 4.9151
C -0.12087 9.99912 6.51605
H 10.2746 10.2962 6.81898
H 11.0469 9.09097 7.93668
H 12.3773 10.3966 5.47873
H 0.15831 10.8207 7.20899
H 0.64173 9.19499 6.59311
C 9.58155 4.32982 3.52019
C 10.2105 3.19334 4.3445
H 8.63867 3.93703 3.08126
H 9.34912 5.1588 4.22357
C 9.26158 2.71874 5.44231
H 11.1479 3.55061 4.82395
H 10.4379 2.32962 3.68233
H 9.02579 3.5529 6.13705
H 9.7403 1.90016 6.02005
H 8.31788 2.33554 4.99882
180
Atoms. Timestep: 393
Ni 2.99105 9.38184 8.42635
Ni 5.68524 3.40034 3.68759
O 1.80216 4.0169 3.61407
O 4.37923 8.1582 8.40209
O 4.17481 2.33069 3.69679
O 1.66329 10.5605 8.72365
O 5.04644 4.80598 4.7071
O 2.73857 8.37206 9.79966
O 0.902457 1.72991 4.84882
O 3.59957 10.6164 9.54725
N 3.55246 10.4984 6.9645
N 0.9791 1.6975 2.07288
N 2.04595 8.08386 7.22621
N 5.27973 4.4355 2.03023
C 2.96222 12.629 5.90495
C 1.72824 1.19904 10.1244
H 2.3836 0.917051 6.29805
H 6.51135 0.895622 9.6571
C 4.27148 0.384129 5.50239
C 2.3631 12.4319 0.236152
C 5.23386 11.9966 6.03727
C 2.35897 12.2016 1.60044
H 0.35916 0.375787 7.56033
H 2.82189 11.3072 1.9981
C 2.12639 7.00126 5.00666
C 5.61732 6.56934 0.988346
H 2.23345 7.11677 3.93832
H 11.1156 5.2388 9.53983
C 2.25695 8.14576 5.85127
C 6.16341 5.34556 1.48571
H 2.52475 9.0587 5.37513
H 0.703693 4.43342 0.879335
C 2.61957 11.3066 6.33089
C 0.976149 1.8936 0.662544
H 1.58161 11.0162 6.33366
H 5.2681 2.01447 1.03714
C 4.83065 10.9806 7.00307
C 1.78835 0.629075 2.49402
H 2.02412 0.482085 3.51172
C 1.65106 6.83241 7.73345
C 4.0617 4.34358 1.3876
H 3.40599 3.51129 1.59125
C 1.80054 5.65357 6.9314
C 3.75205 5.24216 0.300359
H 5.60007 6.21819 7.26576
H 2.75156 4.98231 9.8737
C 1.84335 5.74316 5.53914
C 4.48057 6.46221 0.157056
C 4.66433 1.79185 4.85858
C 2.49769 11.2941 9.49177
C 1.22651 4.62448 4.67745
C 3.75837 7.61123 9.4988
Ni 9.18169 9.56495 9.00734
Ni 0.321692 2.95571 3.62311
O 7.10796 4.45266 3.99868
O 10.4094 8.27744 9.22218
O 11.4078 1.87229 3.95937
O 8.01801 10.947 9.08354
O 0.061896 4.03687 4.95677
O 8.74663 8.37722 0.0359979
O 5.79269 2.43194 5.14467
O 9.82989 10.6893 0.159069
N 10.1824 10.7169 7.70642
N 6.67178 1.96033 2.63699
N 8.29724 8.39188 7.48397
N 11.8107 4.32047 2.45436
C 10.445 11.7974 5.49876
C 7.02309 0.89559 0.41935
H 10.1718 11.7344 4.46592
H 1.88142 1.50823 9.0971
C 11.6011 0.000274908 5.84409
C 8.1048 0.0874962 0.845359
C 11.9905 12.3695 7.21485
C 8.49177 0.296359 2.18706
H 6.26301 12.0836 5.78031
H 9.31848 -0.25848 2.56109
C 7.90031 7.46528 5.19793
C 11.3226 5.42719 0.31925
H 8.10919 7.55597 4.146
H 6.21384 7.46717 1.00218
C 8.76707 8.16344 6.17028
C 12.2183 4.6928 1.20812
C 9.65808 11.0702 6.483
C 6.23281 1.66473 1.35681
H 8.66239 10.7506 6.21833
C 11.2463 11.4795 8.15505
C 7.79029 1.21865 3.09443
C 7.21453 7.58294 7.8593
C 10.8114 5.1699 3.01205
H 6.91532 7.53551 8.88313
C 6.50327 6.70695 6.94289
C 10.2546 6.30527 2.22003
H 1.59753 4.6845 7.37538
H 9.62163 7.03085 2.69729
C 6.90739 6.53034 5.62435
C 10.4191 6.38974 0.819515
C 12.1595 1.17677 4.85569
C 8.57798 11.5022 10.1478
C 6.33243 5.31372 4.7024
C 9.66285 7.64636 10.164
C 5.76335 10.7059 8.20534
C 5.85872 9.99674 9.71995
H 6.04643 11.7489 8.42053
H 6.54677 10.1951 7.61989
C 5.82409 10.7084 0.802255
H 6.7404 9.44356 9.82497
H 5.39516 9.11279 9.93523
H 6.70799 10.6704 1.4627
H 5.06552 10.1501 1.39887
H 5.36798 11.6994 0.680713
C 11.9919 2.20253 10.1572
C 10.9096 1.8903 0.574444
H 12.0717 3.1593 9.61916
H 11.9602 1.58778 9.2432
C 9.84277 2.88069 0.218673
H 10.584 0.890601 0.242279
H 11.0053 1.88011 1.66572
H 8.68396 2.36844 10.3411
H 9.70556 3.56949 1.06555
H 9.82088 3.41481 9.55339
C 0.664089 6.67791 8.89428
C 0.514701 7.59175 10.1341
H 0.774996 5.64785 9.26201
H 12.1947 6.73515 8.38493
C 1.36228 7.25551 1.24198
H 0.621588 8.60095 9.78906
H 12.278 7.6591 0.159233
H 2.01123 8.06785 1.62795
H 1.87563 6.30709 1.26532
H 0.584462 7.12474 2.008
C 7.2062 4.76608 0.59315
C 6.30449 4.32719 9.53912
H 7.62422 3.90719 1.12446
H 7.99284 5.51412 0.392237
C 7.2247 3.84646 8.47042
H 5.80228 5.17575 9.08158
H 5.53638 3.54752 9.70095
H 6.71391 3.91193 7.48848
H 7.39791 2.78038 8.65985
H 8.14721 4.4607 8.43275
C 11.8539 11.1852 9.53315
C 12.2462 10.5145 0.700356
H -0.0114246 12.0232 9.62937
H 12.1207 10.2341 9.07227
C 11.8418 11.2772 1.9561
H 0.800788 10.246 0.856632
H 11.7099 9.56165 0.777969
H 0.0699385 11.1074 2.76909
H 10.8948 10.8745 2.35264
H 11.7647 12.3427 1.77949
C 8.24488 1.08917 4.57899
C 8.01832 1.78704 5.9557
H 8.09383 0.0187357 4.78648
H 9.30349 1.26956 4.45057
C 9.09039 1.61925 7.03311
H 7.87294 2.84765 5.77934
H 7.14925 1.3618 6.4846
H 10.0682 1.55968 6.62544
H 9.21337 2.52793 7.62373
H 8.87866 0.774042 7.7186
C 10.2569 8.02898 5.90127
C 10.9051 8.9879 4.90198
H 10.8447 7.99533 6.83686
H 10.3302 7.07248 5.39427
C 11.8803 8.38061 3.90317
H 10.1103 9.50128 4.3208
H 11.5552 9.64884 5.50249
H 0.33658 8.93506 3.91056
H 12.0907 7.31529 4.11029
H 11.4751 8.50011 2.88184
C 9.89186 4.67969 4.1277
C 10.1091 4.33811 5.63559
H 9.4003 3.78752 3.68658
H 9.12697 5.45299 4.19591
C 10.9253 5.10865 6.68184
H 10.457 3.31197 5.65144
H 9.10827 4.3856 6.08872
H 11.4429 4.38043 7.3437
H 10.2595 5.70678 7.3415
H 11.6951 5.76096 6.24748
180
Atoms. Timestep: 404
Ni 2.99449 9.38232 8.42342
Ni 5.68634 3.40219 3.69108
O 1.79374 4.01381 3.61289
O 4.38433 8.1591 8.39837
O 4.17445 2.33513 3.69841
O 1.66304 10.5614 8.72114
O 5.04821 4.8077 4.70977
O 2.74574 8.37158 9.79856
O 0.896432 1.73086 4.84816
O 3.60166 10.6198 9.54344
N 3.55302 10.4976 6.96076
N 0.971445 1.69314 2.07304
N 2.0522 8.08236 7.22159
N 5.28578 4.43863 2.03256
C 2.96071 0.0996255 5.89517
C 1.72059 1.19976 10.1233
H 2.37709 0.910918 6.27919
H 6.4785 0.890334 9.66528
C 4.27058 0.38246 5.49804
C 2.36537 12.4353 0.234019
C 5.23327 11.9947 6.03221
C 2.36034 12.2036 1.59873
H 0.362095 0.380167 7.56226
H 2.81461 11.3037 1.99494
C 2.13196 6.99361 5.00279
C 5.63283 6.56876 0.978839
H 2.25258 7.1035 3.93441
H 11.1299 5.25162 9.53701
C 2.26311 8.14056 5.8459
C 6.17364 5.3438 1.4821
H 2.53668 9.05274 5.36751
H 0.700842 4.4284 0.881825
C 2.61966 11.3014 6.32396
C 0.96536 1.88731 0.663838
H 1.58249 11.0051 6.31706
H 5.24822 2.00756 1.05684
C 4.83041 10.9807 7.0006
C 1.78827 0.630289 2.4937
H 2.03222 0.490309 3.51047
C 1.66105 6.83067 7.73213
C 4.06468 4.35477 1.3981
H 3.39665 3.53748 1.62043
C 1.81134 5.65086 6.93019
C 3.75665 5.24711 0.306731
H 5.60115 6.21516 7.265
H 2.75361 4.98541 9.88349
C 1.8415 5.73885 5.53801
C 4.4898 6.46325 0.154523
C 4.66278 1.79338 4.85979
C 2.49864 11.2961 9.48861
C 1.221 4.62104 4.6773
C 3.76546 7.61137 9.49638
Ni 9.18333 9.567 9.008
Ni 0.313967 2.95318 3.62276
O 7.10929 4.45107 4.0026
O 10.412 8.28161 9.22406
O 11.4006 1.87068 3.96133
O 8.01827 10.9482 9.0797
O 0.0545514 4.03559 4.95698
O 8.74837 8.37893 0.0365354
O 5.79064 2.43226 5.14841
O 9.82792 10.6945 0.1598
N 10.1878 10.7176 7.70988
N 6.66951 1.96253 2.6413
N 8.29863 8.39181 7.48619
N 11.8015 4.31628 2.45223
C 10.4436 11.8034 5.50526
C 7.00588 0.895663 0.423526
H 10.1664 11.7468 4.47353
H 1.85713 1.50166 9.09248
C 11.6004 0.00407964 5.84816
C 8.09721 0.0922249 0.842453
C 11.995 12.3711 7.21752
C 8.49166 0.303912 2.18222
H 6.2615 12.0749 5.7651
H 9.30347 12.2515 2.55851
C 7.90202 7.46592 5.19972
C 11.3257 5.43026 0.317342
H 8.11286 7.55296 4.14816
H 6.25037 7.45183 0.955322
C 8.76681 8.16884 6.17122
C 12.2146 4.69014 1.20794
C 9.66008 11.0738 6.4884
C 6.21855 1.65938 1.36788
H 8.66336 10.7565 6.22728
C 11.2527 11.4797 8.15675
C 7.7931 1.22566 3.09345
C 7.21727 7.57907 7.86178
C 10.8022 5.1664 3.00889
H 6.91832 7.52991 8.88586
C 6.50382 6.70661 6.94372
C 10.2462 6.30187 2.2151
H 1.6375 4.67964 7.38084
H 9.60515 7.02294 2.68823
C 6.9097 6.53013 5.62661
C 10.421 6.39224 0.81687
C 12.155 1.17802 4.85819
C 8.57389 11.5062 10.1444
C 6.33418 5.31376 4.70502
C 9.66544 7.64956 10.1638
C 5.76375 10.7058 8.20439
C 5.86027 10.0015 9.72264
H 6.05369 11.7481 8.41111
H 6.54069 10.1831 7.62082
C 5.82184 10.7009 0.812238
H 6.74279 9.4484 9.83332
H 5.39735 9.11718 9.93007
H 6.70694 10.6646 1.47329
H 5.06845 10.131 1.40539
H 5.35868 11.69 0.703652
C 11.9814 2.19429 10.1611
C 10.8963 1.88847 0.575577
H 12.0672 3.1496 9.62265
H 11.9467 1.57994 9.24776
C 9.83669 2.87736 0.193296
H 10.5734 0.885089 0.252712
H 10.9815 1.88654 1.66828
H 8.90691 2.36363 0.0228221
H 9.69174 3.57288 1.03205
H 9.83777 3.41427 9.53365
C 0.67415 6.67977 8.8911
C 0.522537 7.59356 10.13
H 0.782102 5.64932 9.25938
H 12.2082 6.74477 8.37563
C 1.36395 7.25959 1.24334
H 0.628426 8.60375 9.78483
H 12.2847 7.65815 0.150311
H 2.0023 8.07847 1.63598
H 1.88394 6.31331 1.2775
H 0.579756 7.12313 2.00312
C 7.2147 4.75855 0.591633
C 6.31146 4.32696 9.53734
H 7.62301 3.89476 1.12274
H 8.00572 5.50127 0.386882
C 7.2237 3.84852 8.46095
H 5.81432 5.18023 9.08434
H 5.54341 3.54818 9.70379
H 6.71287 3.92848 7.48005
H 7.3804 2.77857 8.63994
H 8.15433 4.45073 8.42524
C 11.8493 11.2029 9.54446
C 12.2475 10.5176 0.702613
H -0.0152822 12.0374 9.64096
H 12.1211 10.2536 9.08813
C 11.8398 11.2639 1.96722
H 0.804218 10.2543 0.852381
H 11.7148 9.56262 0.771603
H 0.0765164 11.0926 2.77307
H 10.8981 10.8463 2.36312
H 11.7434 12.3318 1.80496
C 8.24134 1.08444 4.57965
C 8.01636 1.78275 5.95839
H 8.08908 0.0131953 4.78184
H 9.29874 1.26624 4.4543
C 9.0867 1.61465 7.03913
H 7.87472 2.84378 5.78028
H 7.14559 1.36065 6.48787
H 10.0669 1.56025 6.63702
H 9.20651 2.5222 7.63043
H 8.87355 0.771943 7.72756
C 10.2576 8.04218 5.9027
C 10.9166 8.99857 4.9068
H 10.8412 8.0103 6.84088
H 10.3297 7.08669 5.39327
C 11.8913 8.37819 3.91494
H 10.1283 9.51703 4.32282
H 11.5692 9.65765 5.50753
H 0.344854 8.93762 3.90773
H 12.1116 7.31793 4.14191
H 11.4798 8.47528 2.89412
C 9.88493 4.67912 4.12922
C 10.104 4.34105 5.6372
H 9.39399 3.78399 3.6945
H 9.12307 5.4543 4.19661
C 10.9216 5.12122 6.67375
H 10.4515 3.31481 5.65912
H 9.10457 4.38817 6.09165
H 11.4443 4.40075 7.33978
H 10.2549 5.72241 7.32927
H 11.69 5.77132 6.23142
180
Atoms. Timestep: 406
Ni 2.99437 9.3821 8.42304
Ni 5.68633 3.40214 3.69114
O 1.79376 4.01379 3.61269
O 4.38437 8.15927 8.39849
O 4.17441 2.33519 3.69835
O 1.66315 10.5615 8.72115
O 5.0482 4.80781 4.70966
O 2.74559 8.37174 9.7986
O 0.896562 1.73078 4.848
O 3.60174 10.6197 9.54345
N 3.55319 10.4975 6.961
N 0.971513 1.6933 2.07333
N 2.05206 8.08192 7.22198
N 5.28618 4.4391 2.0325
C 2.96079 0.0997566 5.89513
C 1.72059 1.19962 10.1233
H 2.37704 0.910798 6.2793
H 6.47857 0.890235 9.66533
C 4.27057 0.382318 5.49799
C 2.36519 12.4351 0.23417
C 5.23339 11.9948 6.03224
C 2.36028 12.2036 1.59892
H 0.36208 0.380096 7.56231
H 2.81466 11.3037 1.9949
C 2.13217 6.99379 5.00284
C 5.63296 6.56877 0.978722
H 2.25258 7.10347 3.93454
H 11.1298 5.25156 9.53688
C 2.26327 8.14079 5.84576
C 6.17348 5.34366 1.48225
H 2.53674 9.05244 5.36756
H 0.700765 4.4285 0.881789
C 2.61971 11.3015 6.3239
C 0.965409 1.88753 0.663748
H 1.58264 11.0051 6.31712
H 5.24843 2.00734 1.05676
C 4.83034 10.9809 7.0005
C 1.78814 0.630183 2.49347
H 2.03225 0.490342 3.51061
C 1.66127 6.83105 7.73169
C 4.06417 4.35446 1.39817
H 3.39653 3.53757 1.62038
C 1.81133 5.6508 6.9305
C 3.75697 5.24732 0.30673
H 5.60118 6.2152 7.26507
H 2.75363 4.98549 9.88361
C 1.84156 5.73884 5.53776
C 4.48984 6.46317 0.154655
C 4.66255 1.79324 4.85979
C 2.49842 11.2961 9.48866
C 1.22099 4.62113 4.67748
C 3.76554 7.61151 9.49629
Ni 9.18319 9.56704 9.00817
Ni 0.313669 2.95307 3.62298
O 7.10931 4.45112 4.00274
O 10.4122 8.28165 9.22414
O 11.4007 1.87064 3.96134
O 8.01802 10.9482 9.07969
O 0.0548192 4.03555 4.95678
O 8.74831 8.37903 0.036356
O 5.79103 2.43241 5.14849
O 9.82781 10.6946 0.159832
N 10.1875 10.7178 7.70933
N 6.66941 1.9625 2.64103
N 8.29882 8.39195 7.48588
N 11.8017 4.3163 2.45235
C 10.4438 11.8032 5.50516
C 7.00578 0.895563 0.423456
H 10.1664 11.7467 4.4735
H 1.85716 1.50179 9.09232
C 11.6002 0.00388794 5.84818
C 8.09712 0.0921596 0.842621
C 11.995 12.3712 7.21717
C 8.49163 0.303722 2.1821
H 6.26133 12.0749 5.76522
H 9.30364 12.2515 2.55861
C 7.90213 7.46606 5.19959
C 11.3257 5.43015 0.317571
H 8.11284 7.55302 4.14825
H 6.25045 7.45175 0.955221
C 8.76669 8.16895 6.17138
C 12.2146 4.69024 1.20779
C 9.66013 11.0737 6.48867
C 6.21846 1.65956 1.36788
H 8.66325 10.7565 6.22725
C 11.2528 11.4797 8.15731
C 7.79304 1.22564 3.09384
C 7.21745 7.5792 7.86181
C 10.8023 5.16631 3.00879
H 6.91841 7.53006 8.88589
C 6.50391 6.7067 6.94377
C 10.2461 6.30191 2.21531
H 1.6375 4.67966 7.38075
H 9.60514 7.0229 2.68822
C 6.9096 6.53 5.62652
C 10.421 6.39213 0.816862
C 12.1549 1.17813 4.85814
C 8.57424 11.5062 10.1447
C 6.33439 5.31396 4.70514
C 9.66542 7.64938 10.164
C 5.7637 10.7059 8.20426
C 5.8604 10.0014 9.72302
H 6.05375 11.7481 8.41116
H 6.54074 10.1832 7.62079
C 5.82171 10.701 0.812079
H 6.7427 9.4484 9.83314
H 5.39741 9.11718 9.93004
H 6.70693 10.6646 1.47325
H 5.06846 10.1309 1.40541
H 5.35863 11.69 0.703699
C 11.9815 2.19431 10.1611
C 10.8963 1.88855 0.575481
H 12.0672 3.1497 9.62269
H 11.9465 1.57992 9.24767
C 9.83674 2.87725 0.193284
H 10.5734 0.885074 0.25278
H 10.9815 1.88667 1.66823
H 8.90695 2.3636 0.0226718
H 9.6917 3.57288 1.03195
H 9.83772 3.41424 9.53361
C 0.674063 6.67945 8.89107
C 0.522679 7.59366 10.1301
H 0.78207 5.64924 9.25942
H 12.2081 6.74468 8.37564
C 1.36388 7.25958 1.24328
H 0.628324 8.60393 9.78484
H 12.2845 7.65819 0.150276
H 2.00223 8.07844 1.63585
H 1.88383 6.31348 1.27741
H 0.579829 7.12315 2.00309
C 7.21475 4.75841 0.591493
C 6.31139 4.32682 9.53736
H 7.62291 3.89468 1.12274
H 8.00581 5.50116 0.387043
C 7.22359 3.84851 8.46089
H 5.81424 5.18021 9.08432
H 5.54324 3.54815 9.70374
H 6.71281 3.92857 7.47998
H 7.38021 2.77839 8.6398
H 8.15437 4.45073 8.4253
C 11.8493 11.2028 9.54428
C 12.2475 10.5176 0.702642
H -0.015265 12.0376 9.64088
H 12.1213 10.2534 9.08817
C 11.8398 11.2639 1.96734
H 0.804239 10.2542 0.852415
H 11.7147 9.56239 0.771572
H 0.0764899 11.0927 2.77318
H 10.898 10.8463 2.3632
H 11.7433 12.3319 1.80498
C 8.24124 1.08455 4.57966
C 8.01632 1.78282 5.95829
H 8.0891 0.0132733 4.78181
H 9.29875 1.26621 4.45425
C 9.08664 1.61454 7.03916
H 7.87466 2.8437 5.78028
H 7.1456 1.36049 6.48782
H 10.0669 1.56024 6.63697
H 9.2065 2.52218 7.63029
H 8.87351 0.771901 7.72749
C 10.2576 8.04214 5.90271
C 10.9166 8.99841 4.90692
H 10.8413 8.01024 6.84084
H 10.3297 7.08679 5.39325
C 11.8914 8.37812 3.91486
H 10.1284 9.51701 4.32276
H 11.5691 9.65775 5.50756
H 0.344834 8.93765 3.90771
H 12.1116 7.31801 4.14193
H 11.4799 8.47521 2.89417
C 9.885 4.67898 4.12918
C 10.104 4.3414 5.63723
H 9.39395 3.784 3.69439
H 9.123 5.45436 4.19665
C 10.9216 5.12112 6.67382
H 10.4516 3.31471 5.65918
H 9.10448 4.38813 6.09165
H 11.4443 4.40084 7.33979
H 10.255 5.72251 7.32929
H 11.6901 5.77135 6.2314
180
Atoms. Timestep: 407
Ni 2.99437 9.3821 8.42304
Ni 5.68633 3.40214 3.69114
O 1.79376 4.01379 3.61269
O 4.38437 8.15927 8.39849
O 4.17441 2.33519 3.69835
O 1.66315 10.5615 8.72115
O 5.0482 4.80781 4.70966
O 2.74559 8.37174 9.7986
O 0.896562 1.73078 4.848
O 3.60174 10.6197 9.54345
N 3.55319 10.4975 6.961
N 0.971513 1.6933 2.07333
N 2.05206 8.08192 7.22198
N 5.28618 4.4391 2.0325
C 2.96079 0.0997566 5.89513
C 1.72059 1.19962 10.1233
H 2.37704 0.910798 6.2793
H 6.47857 0.890235 9.66533
C 4.27057 0.382318 5.49799
C 2.36519 12.4351 0.23417
C 5.23339 11.9948 6.03224
C 2.36028 12.2036 1.59892
H 0.36208 0.380096 7.56231
H 2.81466 11.3037 1.9949
C 2.13217 6.99379 5.00284
C 5.63296 6.56877 0.978722
H 2.25258 7.10347 3.93454
H 11.1298 5.25156 9.53688
C 2.26327 8.14079 5.84576
C 6.17348 5.34366 1.48225
H 2.53674 9.05244 5.36756
H 0.700765 4.4285 0.881789
C 2.61971 11.3015 6.3239
C 0.965409 1.88753 0.663748
H 1.58264 11.0051 6.31712
H 5.24843 2.00734 1.05676
C 4.83034 10.9809 7.0005
C 1.78814 0.630183 2.49347
H 2.03225 0.490342 3.51061
C 1.66127 6.83105 7.73169
C 4.06417 4.35446 1.39817
H 3.39653 3.53757 1.62038
C 1.81133 5.6508 6.9305
C 3.75697 5.24732 0.30673
H 5.60118 6.2152 7.26507
H 2.75363 4.98549 9.88361
C 1.84156 5.73884 5.53776
C 4.48984 6.46317 0.154655
C 4.66255 1.79324 4.85979
C 2.49842 11.2961 9.48866
C 1.22099 4.62113 4.67748
C 3.76554 7.61151 9.49629
Ni 9.18319 9.56704 9.00817
Ni 0.313669 2.95307 3.62298
O 7.10931 4.45112 4.00274
O 10.4122 8.28165 9.22414
O 11.4007 1.87064 3.96134
O 8.01802 10.9482 9.07969
O 0.0548192 4.03555 4.95678
O 8.74831 8.37903 0.036356
O 5.79103 2.43241 5.14849
O 9.82781 10.6946 0.159832
N 10.1875 10.7178 7.70933
N 6.66941 1.9625 2.64103
N 8.29882 8.39195 7.48588
N 11.8017 4.3163 2.45235
C 10.4438 11.8032 5.50516
C 7.00578 0.895563 0.423456
H 10.1664 11.7467 4.4735
H 1.85716 1.50179 9.09232
C 11.6002 0.00388794 5.84818
C 8.09712 0.0921596 0.842621
C 11.995 12.3712 7.21717
C 8.49163 0.303722 2.1821
H 6.26133 12.0749 5.76522
H 9.30364 12.2515 2.55861
C 7.90213 7.46606 5.19959
C 11.3257 5.43015 0.317571
H 8.11284 7.55302 4.14825
H 6.25045 7.45175 0.955221
C 8.76669 8.16895 6.17138
C 12.2146 4.69024 1.20779
C 9.66013 11.0737 6.48867
C 6.21846 1.65956 1.36788
H 8.66325 10.7565 6.22725
C 11.2528 11.4797 8.15731
C 7.79304 1.22564 3.09384
C 7.21745 7.5792 7.86181
C 10.8023 5.16631 3.00879
H 6.91841 7.53006 8.88589
C 6.50391 6.7067 6.94377
C 10.2461 6.30191 2.21531
H 1.6375 4.67966 7.38075
H 9.60514 7.0229 2.68822
C 6.9096 6.53 5.62652
C 10.421 6.39213 0.816862
C 12.1549 1.17813 4.85814
C 8.57424 11.5062 10.1447
C 6.33439 5.31396 4.70514
C 9.66542 7.64938 10.164
C 5.7637 10.7059 8.20426
C 5.8604 10.0014 9.72302
H 6.05375 11.7481 8.41116
H 6.54074 10.1832 7.62079
C 5.82171 10.701 0.812079
H 6.7427 9.4484 9.83314
H 5.39741 9.11718 9.93004
H 6.70693 10.6646 1.47325
H 5.06846 10.1309 1.40541
H 5.35863 11.69 0.703699
C 11.9815 2.19431 10.1611
C 10.8963 1.88855 0.575481
H 12.0672 3.1497 9.62269
H 11.9465 1.57992 9.24767
C 9.83674 2.87725 0.193284
H 10.5734 0.885074 0.25278
H 10.9815 1.88667 1.66823
H 8.90695 2.3636 0.0226718
H 9.6917 3.57288 1.03195
H 9.83772 3.41424 9.53361
C 0.674063 6.67945 8.89107
C 0.522679 7.59366 10.1301
H 0.78207 5.64924 9.25942
H 12.2081 6.74468 8.37564
C 1.36388 7.25958 1.24328
H 0.628324 8.60393 9.78484
H 12.2845 7.65819 0.150276
H 2.00223 8.07844 1.63585
H 1.88383 6.31348 1.27741
H 0.579829 7.12315 2.00309
C 7.21475 4.75841 0.591493
C 6.31139 4.32682 9.53736
H 7.62291 3.89468 1.12274
H 8.00581 5.50116 0.387043
C 7.22359 3.84851 8.46089
H 5.81424 5.18021 9.08432
H 5.54324 3.54815 9.70374
H 6.71281 3.92857 7.47998
H 7.38021 2.77839 8.6398
H 8.15437 4.45073 8.4253
C 11.8493 11.2028 9.54428
C 12.2475 10.5176 0.702642
H -0.015265 12.0376 9.64088
H 12.1213 10.2534 9.08817
C 11.8398 11.2639 1.96734
H 0.804239 10.2542 0.852415
H 11.7147 9.56239 0.771572
H 0.0764899 11.0927 2.77318
H 10.898 10.8463 2.3632
H 11.7433 12.3319 1.80498
C 8.24124 1.08455 4.57966
C 8.01632 1.78282 5.95829
H 8.0891 0.0132733 4.78181
H 9.29875 1.26621 4.45425
C 9.08664 1.61454 7.03916
H 7.87466 2.8437 5.78028
H 7.1456 1.36049 6.48782
H 10.0669 1.56024 6.63697
H 9.2065 2.52218 7.63029
H 8.87351 0.771901 7.72749
C 10.2576 8.04214 5.90271
C 10.9166 8.99841 4.90692
H 10.8413 8.01024 6.84084
H 10.3297 7.08679 5.39325
C 11.8914 8.37812 3.91486
H 10.1284 9.51701 4.32276
H 11.5691 9.65775 5.50756
H 0.344834 8.93765 3.90771
H 12.1116 7.31801 4.14193
H 11.4799 8.47521 2.89417
C 9.885 4.67898 4.12918
C 10.104 4.3414 5.63723
H 9.39395 3.784 3.69439
H 9.123 5.45436 4.19665
C 10.9216 5.12112 6.67382
H 10.4516 3.31471 5.65918
H 9.10448 4.38813 6.09165
H 11.4443 4.40084 7.33979
H 10.255 5.72251 7.32929
H 11.6901 5.77135 6.2314
