ITEM: TIMESTEP
0
ITEM: NUMBER OF ATOMS
180
ITEM: BOX BOUNDS xy xz yz pp pp pp
-2.5448272749866413e-01 1.4214010493844000e+01 0.0000000000000000e+00
0.0000000000000000e+00 1.0101011022191599e+01 -2.5448272749866413e-01
0.0000000000000000e+00 1.1488117186754700e+01 0.0000000000000000e+00
ITEM: ATOMS id type x y z
1 1 2.69225 8.72556 8.9407
2 1 6.33711 3.87008 3.3887
3 2 0.563936 4.76361 3.24055
4 2 4.20336 7.79962 9.17711
5 2 4.84931 2.90761 3.5638
6 2 1.16244 9.65319 9.05641
7 2 5.85419 5.12791 4.44889
8 2 2.26889 7.56508 10.1953
9 2 13.7316 2.6158 4.33804
10 2 3.04665 9.87717 10.1851
11 3 3.46535 9.91496 7.63614
12 3 14.1686 2.50044 1.70891
13 3 1.99441 7.51218 7.52081
14 3 5.64241 4.91216 1.94138
15 4 3.24413 1.31898 5.80089
16 4 13.8126 1.02847 11.2678
17 4 4.68286 1.32246 5.56492
18 4 0.994517 0.843396 11.2632
19 4 5.44255 0.527679 6.42002
20 4 1.91945 1.16933 0.955417
21 4 1.86126 6.77184 5.18372
22 4 5.64286 6.21094 11.444
23 5 2.33392 6.72386 4.21024
24 4 2.52628 7.46541 6.25284
25 4 6.40865 5.72086 1.17839
26 5 3.41194 8.02775 6.02527
27 5 12.6614 6.71044 2.79163
28 4 2.75883 0.767285 7.00397
29 4 13.4335 1.73119 0.841562
30 5 1.75474 0.961784 7.30654
31 5 5.31015 2.0847 1.34449
32 4 4.82771 9.90668 7.46177
33 4 1.33239 2.22362 1.77584
34 5 5.4518 9.48142 8.21234
35 5 1.97831 2.89759 2.31023
36 4 0.724759 6.99333 7.69497
37 4 4.27495 5.01059 1.82067
38 5 0.226255 7.15889 8.62261
39 5 3.63478 4.64118 2.60527
40 4 -0.0528028 6.46722 6.60448
41 4 3.68327 5.72057 0.761264
42 5 2.61908 5.85088 0.753811
43 4 0.583244 6.20141 5.36853
44 4 4.22312 6.32782 11.2731
45 4 5.42378 2.30999 4.61296
46 4 1.75951 0.193978 10.0816
47 4 14.1062 5.39234 4.23464
48 4 3.5467 7.13261 10.144
49 1 9.60911 9.22482 8.99301
50 1 13.3173 3.73352 3.05272
51 2 7.83156 4.87613 3.51849
52 2 11.068 8.1995 9.17268
53 2 11.8491 2.72359 3.19756
54 2 8.14705 0.133213 9.16244
55 2 12.8396 4.89878 4.30771
56 2 9.13466 8.04841 10.2426
57 2 6.699 2.79269 4.79355
58 2 10.0555 0.256748 10.2846
59 3 10.3542 0.328249 7.6422
60 3 7.11722 2.59494 2.18126
61 3 8.89481 8.06429 7.57677
62 3 12.5461 4.90776 1.64549
63 4 10.3602 1.15315 5.34994
64 4 6.67627 1.61499 11.4743
65 5 9.85235 1.19317 4.39829
66 5 13.2063 0.527524 10.5404
67 4 11.7005 1.57674 5.45622
68 4 8.08449 1.38763 11.4019
69 4 12.2837 1.5224 6.74279
70 4 9.09119 1.7524 1.0475
71 5 6.51129 0.515468 6.33001
72 5 10.1453 1.53469 1.0886
73 4 9.01596 7.09965 5.33172
74 4 11.9707 7.11999 0.817744
75 5 9.57781 6.96401 4.41603
76 4 9.59827 7.8179 6.41682
77 4 12.3396 6.25276 1.87783
78 5 10.5608 8.26881 6.27379
79 5 7.46111 5.82421 1.39331
80 4 9.67036 0.653694 6.49412
81 4 6.36031 2.02759 1.22513
82 5 8.64179 0.369503 6.39547
83 5 12.409 1.49973 1.06579
84 4 11.661 0.718475 7.75174
85 4 8.47659 2.42274 2.13601
86 5 12.2302 0.37798 8.594
87 5 9.09394 2.8221 2.92584
88 4 7.58518 7.65738 7.64257
89 4 11.8302 4.3682 0.595033
90 5 6.96391 8.04503 8.41414
91 5 11.5431 3.34625 0.613622
92 4 7.03915 6.76604 6.67716
93 4 10.9818 5.19509 11.0833
94 5 10.5646 4.73516 10.204
95 4 7.74567 6.51927 5.46944
96 4 11.0014 6.59945 11.2057
97 4 12.4702 2.12902 4.23903
98 4 8.79878 0.755286 10.1835
99 4 7.11049 5.64309 4.35483
100 4 10.367 7.51976 10.1266
101 6 2.21507 1.4569 4.71245
102 6 1.22948 0.212773 4.74441
103 5 2.70107 1.59731 3.77154
104 5 1.70254 2.40753 4.92059
105 6 0.478705 9.81317 3.51534
106 5 0.473923 0.320938 5.54005
107 5 1.82142 9.44963 5.03182
108 5 14.0168 0.455219 3.09974
109 5 14.0481 8.96376 3.82955
110 5 1.13769 9.40819 2.73408
111 6 3.17418 0.289318 1.29382
112 6 3.90161 9.9614 2.57665
113 5 3.97688 0.647086 0.646888
114 5 2.87744 9.38132 0.932565
115 6 4.98274 8.90846 2.31396
116 5 3.23695 9.51178 3.31926
117 5 4.44204 0.705719 2.96863
118 5 4.50667 7.92917 2.12717
119 5 5.63146 8.80491 3.21051
120 5 5.61968 9.18508 1.44646
121 6 12.6454 6.61715 6.66736
122 6 11.9084 5.57533 7.54611
123 5 12.1842 6.70247 5.66508
124 5 12.4734 7.61649 7.11694
125 6 10.9242 4.63672 6.83933
126 5 11.2947 6.09288 8.275
127 5 12.6035 5.00855 8.16565
128 5 11.2836 4.26512 5.87571
129 5 9.95958 5.12577 6.65701
130 5 10.7172 3.76688 7.49606
131 6 6.5818 6.26019 10.3
132 6 7.62597 5.11075 10.342
133 5 6.04707 6.24823 9.36807
134 5 7.05462 7.23752 10.4029
135 6 8.12866 4.64358 8.98703
136 5 8.46915 5.45659 10.9543
137 5 7.24478 4.21505 10.86
138 5 8.74324 5.43695 8.53214
139 5 8.76143 3.74112 9.118
140 5 7.29261 4.35416 8.32657
141 6 13.4236 2.46489 7.09288
142 6 13.7069 2.59203 8.57863
143 5 13.2608 3.46289 6.66349
144 5 0.122342 2.11908 6.61015
145 6 0.64543 3.52573 8.87458
146 5 -0.161187 1.60079 8.86063
147 5 12.8034 2.88512 9.15671
148 5 0.383082 4.5786 8.7286
149 5 1.45298 3.27861 8.17576
150 5 0.987964 3.39492 9.92199
151 6 5.81085 1.63286 10.2458
152 6 4.72234 2.72711 10.3346
153 5 6.42304 1.85018 9.34555
154 5 5.3521 0.633719 10.1445
155 6 3.86549 2.76617 9.1272
156 5 4.00688 2.60529 11.1639
157 5 5.18941 3.71424 10.4504
158 5 3.08662 2.02162 9.19615
159 5 3.35142 3.74286 9.12556
160 5 4.47625 2.58207 8.23086
161 6 5.62613 6.24821 6.76309
162 6 4.57638 5.42038 7.50364
163 5 6.06499 5.24969 6.57795
164 5 5.10952 6.75315 5.92848
165 6 3.73302 4.58744 6.52193
166 5 3.83676 6.01292 7.98397
167 5 5.04127 4.78589 8.27511
168 5 3.67733 5.01448 5.507
169 5 2.69882 4.45178 6.87943
170 5 4.21701 3.63163 6.41123
171 6 12.8778 8.26071 0.581986
172 6 13.9233 7.80718 11.3564
173 5 13.1255 8.74485 1.54682
174 5 12.0834 9.02735 11.487
175 6 -0.0675915 6.28059 11.1587
176 5 0.825682 8.20773 0.438578
177 5 13.9027 8.28169 10.3665
178 5 13.3544 5.82838 10.5508
179 5 0.354415 5.77876 0.637383
180 5 0.802246 5.99374 10.568
