180
Atoms. Timestep: 0
Ni 2.89857 9.41116 8.59265
Ni 6.17525 3.10579 3.48481
O 1.44827 4.35425 3.93374
O 4.4416 8.15245 9.05464
O 4.63665 1.84729 3.87523
O 1.36499 10.6744 9.00295
O 5.80609 4.46033 4.96242
O 2.54244 8.0327 10.0675
O 0.25117 1.69264 4.94273
O 3.23722 10.8047 10.0626
N 3.69677 10.6606 7.2416
N 0.71256 1.8642 2.11704
N 2.17217 8.14409 7.25198
N 5.44023 4.39481 2.13747
C 3.48546 12.1483 5.36301
C 0.47488 0.38955 0.2292
H 2.86453 12.5181 4.55267
H 5.86971 0.03371 9.69377
C 4.76073 0.1474 5.61481
C 1.74333 12.3699 0.47412
C 5.50345 12.1502 6.68209
C 2.49852 0.35508 1.54004
H 0.24768 12.5084 6.91993
H 3.49155 12.5067 1.77336
C 2.48363 6.6337 5.40822
C 5.72803 5.90364 0.28669
H 3.13294 6.27291 4.61605
H -0.10828 6.26667 9.7662
C 2.92756 7.68099 6.23068
C 6.1883 4.86756 1.11596
H 3.89994 8.14655 6.0889
H 0.91589 4.41889 0.97634
C 2.98256 11.1359 6.19748
C -0.01036 1.40553 1.07106
H 1.99392 10.709 6.04703
H 5.26093 1.85011 0.92351
C 4.93641 11.1381 7.47507
C 1.94823 1.3719 2.3406
H 2.50886 1.79214 3.17267
C 0.94573 7.62654 7.47302
C 4.21083 4.90458 2.35686
H 3.63605 4.47744 3.17528
C 0.43859 6.57577 6.69176
C 3.68763 5.945 1.56944
H 5.70774 6.17693 6.91975
H 2.69824 6.32683 1.80071
C 1.22745 6.06471 5.65205
C 4.46338 6.45777 0.52027
C 5.3126 1.24381 4.79419
C 2.0502 11.2675 9.92158
C 0.73548 4.94016 4.83586
C 3.73174 7.56629 9.95688
Ni 9.15137 9.41116 8.59265
Ni 12.4281 3.10579 3.48481
O 7.70109 4.35425 3.93374
O 10.6944 8.15245 9.05464
O 10.8895 1.84729 3.87523
O 7.61779 10.6744 9.00295
O 12.0589 4.46033 4.96242
O 8.79524 8.0327 10.0675
O 6.50397 1.69264 4.94273
O 9.49002 10.8047 10.0626
N 9.94957 10.6606 7.2416
N 6.96536 1.8642 2.11704
N 8.42499 8.14409 7.25198
N 11.693 4.39481 2.13747
C 9.73826 12.1483 5.36301
C 6.72768 0.38955 0.2292
H 9.11733 12.5181 4.55267
H 12.1225 0.03371 9.69377
C 11.0135 0.1474 5.61481
C 7.99613 12.3699 0.47412
C 11.7562 12.1502 6.68209
C 8.75132 0.35508 1.54004
H 6.50047 12.5084 6.91993
H 9.74435 12.5067 1.77336
C 8.73644 6.6337 5.40822
C 11.9808 5.90364 0.28669
H 9.38574 6.27291 4.61605
H 6.14452 6.26667 9.7662
C 9.18036 7.68099 6.23068
C 12.4411 4.86756 1.11596
C 9.23536 11.1359 6.19748
C 6.24244 1.40553 1.07106
H 8.24672 10.709 6.04703
C 11.1892 11.1381 7.47507
C 8.20102 1.3719 2.3406
C 7.19853 7.62654 7.47302
C 10.4636 4.90458 2.35686
H 6.61608 8.05184 8.28732
C 6.69139 6.57577 6.69176
C 9.94043 5.945 1.56944
H 11.9605 6.17693 6.91975
H 8.95104 6.32683 1.80071
C 7.48025 6.06471 5.65205
C 10.7162 6.45777 0.52027
C 11.5654 1.24381 4.79419
C 8.303 11.2675 9.92158
C 6.98827 4.94016 4.83586
C 9.98454 7.56629 9.95688
C 5.78083 10.556 8.66279
C 5.10454 9.45113 9.49265
H 6.02502 11.3887 9.35772
H 6.71937 10.1293 8.2468
C 6.24746 8.96638 0.34005
H 4.86367 8.58416 8.83956
H 4.16975 9.8428 9.94975
H 6.95958 8.54915 10.1937
H 5.73496 8.17109 0.92135
H 6.49532 9.80407 1.0263
C 11.0807 2.01245 0.77888
C 10.6104 3.11974 1.73777
H 10.8645 2.44493 10.029
H 10.3325 1.19171 0.82936
C 9.22396 3.62982 1.3525
H 10.5604 2.72285 2.77515
H 11.3196 3.97525 1.70124
H 8.4821 2.80408 1.39612
H 8.91046 4.42637 2.0598
H 9.23905 4.05279 0.32537
C 0.0552 8.20317 8.62684
C 0.67054 9.35241 9.44374
H -0.17252 7.37821 9.33647
H 11.6162 8.58353 8.18078
C 12.4461 9.82779 0.25934
H 0.8927 10.2124 8.77502
H 1.60918 9.00784 9.92995
H 11.2731 10.1986 10.0831
H 0.40941 10.6556 0.83187
H 12.2151 8.99754 0.96036
C 7.603 4.25425 0.84011
C 8.04468 3.12384 1.78554
H 8.35686 5.06724 0.92214
H 7.38098 3.84258 10.0817
C 9.43435 2.60956 1.41771
H 7.32932 2.27543 1.71752
H 8.07712 3.49934 2.83154
H 9.43641 2.20747 0.38213
H 9.72694 1.79627 2.11484
H 10.182 3.42778 1.49284
C 12.0336 10.556 8.66279
C 11.3573 9.45113 9.49265
H 12.2778 11.3887 9.35772
H 0.46657 10.1293 8.2468
C -0.00534 8.96638 0.34005
H 11.1165 8.58416 8.83956
H 10.4225 9.8428 9.94975
H 0.70678 8.54915 10.1937
H 11.9878 8.17109 0.92135
H 0.24252 9.80407 1.0263
C 9.06044 1.94024 3.52394
C 8.40268 3.05016 4.36187
H 9.29985 1.10257 4.21459
H 10.0009 2.3574 3.10273
C 9.33127 3.52084 5.47863
H 8.16728 3.92189 3.71313
H 7.46664 2.66782 4.82427
H 10.2728 3.92857 5.05272
H 8.83201 4.32012 6.06591
H 9.57423 2.6782 6.16056
C 10.5824 8.31882 5.94959
C 11.0054 9.46123 6.88913
H 11.3512 7.52006 6.03351
H 10.5784 8.72599 4.9151
C -0.12087 9.99912 6.51605
H 10.2746 10.2962 6.81898
H 11.0469 9.09097 7.93668
H 12.3773 10.3966 5.47873
H 0.15831 10.8207 7.20899
H 0.64173 9.19499 6.59311
C 9.58155 4.32982 3.52019
C 10.2105 3.19334 4.3445
H 8.63867 3.93703 3.08126
H 9.34912 5.1588 4.22357
C 9.26158 2.71874 5.44231
H 11.1479 3.55061 4.82395
H 10.4379 2.32962 3.68233
H 9.02579 3.5529 6.13705
H 9.7403 1.90016 6.02005
H 8.31788 2.33554 4.99882
180
Atoms. Timestep: 759
Ni 2.23814 9.05683 8.60808
Ni 6.00784 3.75519 3.58548
O -0.398055 4.65 3.71081
O 3.6319 7.94981 8.46851
O 4.47425 2.86177 3.71199
O 0.839081 10.115 8.87307
O 5.57509 5.12556 4.68921
O 1.946 7.83597 9.81229
O -1.33841 2.48687 5.05883
O 2.76522 10.2346 9.92741
N 2.99058 10.2606 7.34395
N -1.0552 2.33835 2.35448
N 1.27418 7.95842 7.36786
N 5.36151 4.79468 2.13042
C 2.94598 0.915101 5.3941
C 0.193338 2.06511 0.250629
H 2.48015 1.18276 4.45918
H 7.0436 1.74005 9.01322
C 4.17072 1.50469 5.77075
C 1.02786 1.04375 0.778526
C 4.66308 1.22098 7.03
C 0.823782 11.4938 2.10403
H 14.2711 1.07259 7.36823
H 1.39953 10.6986 2.5625
C 1.08664 6.76777 5.26062
C 4.98723 5.73215 9.86347
H 1.53173 6.50746 4.30609
H 13.0784 5.81687 9.19406
C 1.80094 7.61173 6.15219
C 6.00691 5.27864 1.0133
H 2.7961 7.94271 5.88913
H -1.31371 5.07941 1.02983
C 2.31866 10.7429 6.25172
C -0.983423 2.52567 0.968708
H 1.32735 10.3826 6.01912
H 5.58905 2.65331 0.676801
C 4.24856 10.8165 7.6828
C -0.0982637 1.45229 2.89177
H 0.0478491 1.34179 3.94348
C 0.0564501 7.36446 7.79277
C 4.04082 5.12405 2.32311
H 3.5784 4.96707 3.28035
C -0.649922 6.51408 6.90255
C 3.27657 5.66647 1.32741
H 6.3699 6.38088 7.04347
H 2.23603 5.88788 1.525
C -0.166777 6.22995 5.63213
C 3.88629 6.11966 0.188849
C 4.98529 2.31408 4.80041
C 1.51999 10.809 9.76565
C -0.967322 5.3455 4.68899
C 3.0319 7.21704 9.38468
Ni 10.1563 9.11361 8.59326
Ni -1.84166 3.61547 3.7142
O 7.51087 4.68011 3.69573
O 11.4993 8.03597 8.81228
O 13.0537 2.59367 3.91112
O 8.73955 10.2023 8.58053
O 14.0817 4.82317 4.97039
O 9.56774 7.88806 9.83911
O 6.2439 2.76528 5.01769
O 10.445 10.292 9.93817
N 11.1932 10.2845 7.46226
N 6.7978 2.31937 2.40417
N 9.40935 7.96059 7.12592
N 13.423 4.77954 2.45786
C 11.7097 11.213 5.30512
C 7.23616 1.66806 10.0582
H 11.4445 11.2704 4.25374
H 0.0703845 2.3199 9.13069
C 12.9224 0.996707 5.75347
C 8.65245 1.04954 0.581038
C 13.2724 11.5547 7.0659
C 8.90636 1.1206 1.93654
H 5.52838 1.74977 7.38567
H 9.79738 11.4107 2.32634
C 8.74235 7.27157 4.85088
C 13.0462 5.84991 0.319713
H 8.95369 7.24066 3.795
H 5.44068 5.98512 8.92738
C 9.73521 7.80937 5.76185
C 13.9252 5.25714 1.28554
C 10.8015 10.6185 6.21329
C 6.52701 2.27284 1.05322
H 9.82079 10.3425 5.88044
C 12.465 10.7228 7.91685
C 7.88525 1.54108 2.83837
C 8.14005 7.5364 7.49346
C 12.1275 5.26049 2.8389
H 7.74773 7.82942 8.43911
C 7.29296 6.78125 6.65508
C 11.5042 6.29236 2.0554
H -1.53676 5.99831 7.25009
H 10.6191 6.78606 2.41505
C 7.59199 6.61118 5.32786
C 11.8153 6.4095 0.717437
C 13.6845 1.94562 4.85583
C 9.26741 10.8774 9.59793
C 6.86471 5.53989 4.49711
C 10.8264 7.33376 9.68202
C 5.42411 9.96616 8.29716
C 5.46156 9.19012 9.68396
H 6.32945 10.5841 8.29787
H 5.66254 9.23076 7.49876
C 6.61704 9.5229 0.895529
H 5.77475 8.17229 9.41637
H 4.75247 9.08233 0.290299
H 7.66703 9.40361 0.610423
H 6.47127 8.77046 1.70144
H 6.3399 10.4778 1.35835
C 13.8175 2.69824 10.0155
C 12.5916 2.44023 0.56905
H 13.9145 3.61874 9.41996
H 13.9307 1.97221 9.22298
C 11.3352 3.08885 9.56673
H 12.3728 1.36698 0.516001
H 12.3984 2.74362 1.60318
H 10.7272 2.32871 9.04188
H 10.8748 3.70417 0.247776
H 11.7685 3.73287 8.7768
C -0.40567 7.22764 9.30669
C -0.165203 8.24452 0.606778
H -0.029783 6.24183 9.65701
H -1.4876 7.10468 9.21
C -0.489255 7.60537 1.96742
H -0.731856 9.09114 0.318495
H 0.689103 8.83427 0.929687
H 0.0731669 6.66223 2.11176
H -1.56419 7.44285 2.10155
H -0.19907 8.27292 2.80821
C 7.39426 5.8533 1.10622
C 8.47044 4.86307 0.717452
H 7.59368 6.32996 2.07718
H 7.48883 6.70829 0.412424
C 8.21501 4.52607 9.15359
H 8.4587 3.96603 1.35278
H 9.42522 5.34117 0.928056
H 7.18896 4.45267 8.74477
H 8.70699 3.56073 8.97366
H 8.78445 5.28968 8.59873
C 13.279 9.95585 9.00846
C 13.1617 9.57445 0.599991
H -2.03313 10.5004 9.07319
H 13.6511 9.03885 8.51501
C 13.8664 10.3965 1.67309
H 13.5338 8.54829 0.693315
H 12.2032 9.30047 1.01845
H 14.347 9.76332 2.43582
H 13.1841 11.0782 2.21685
H -1.60367 10.9372 1.18536
C 7.94831 0.953056 4.21602
C 8.70722 1.9187 5.12182
H 6.95714 11.3904 4.58362
H 8.52008 10.7719 4.17705
C 8.36211 1.76353 6.60354
H 9.76791 1.8219 4.93746
H 8.52246 2.93921 4.79654
H 7.63183 2.53152 6.93069
H 7.94641 0.757855 6.79238
H 9.26756 1.8882 7.22246
C 11.1405 7.91759 5.16836
C 12.4618 7.79336 5.92111
H 11.2102 7.05108 4.50858
H 11.145 8.7578 4.4494
C 13.6125 8.34489 5.07386
H 12.4602 8.33838 6.83739
H 12.6804 6.73851 6.16203
H 13.3766 9.32919 4.63813
H -1.76468 8.50082 5.7054
H 13.8321 7.65906 4.23274
C 11.1226 4.43571 3.71981
C 11.2876 4.22424 5.2777
H 10.9422 3.45788 3.231
H 10.1247 4.9072 3.59917
C 10.1487 4.64409 6.1995
H 12.1208 4.71931 5.73085
H 11.4033 3.15242 5.4885
H 10.0618 3.93786 7.04188
H 9.18039 4.70195 5.70657
H 10.382 5.59279 6.69597
180
Atoms. Timestep: 4787
Ni 2.15652 9.09172 8.55114
Ni 5.99442 3.82297 3.6991
O -0.416317 4.62354 3.57036
O 3.52134 8.01371 8.58157
O 4.44603 2.94995 3.78541
O 0.74935 10.181 8.67582
O 5.58885 5.15353 4.86749
O 1.76694 8.0343 9.8815
O -1.26733 2.42929 4.94583
O 2.6518 10.3398 9.77663
N 2.98644 10.1698 7.23622
N -1.10245 2.31685 2.22901
N 1.28258 7.83848 7.28409
N 5.35033 4.94212 2.30171
C 2.91905 0.920337 5.36418
C -0.184274 2.0848 9.98979
H 2.4339 1.25056 4.4566
H 6.90012 1.64278 9.10476
C 4.14234 1.49471 5.76723
C 0.958959 1.14947 0.570675
C 4.64155 1.15686 7.00833
C 0.934984 0.935617 1.93506
H -1.88398 1.03285 7.33856
H 1.61167 10.978 2.36907
C 1.07583 6.76222 5.10753
C 4.83451 5.82234 10.0328
H 1.51884 6.51158 4.15779
H 13.0363 5.90389 9.18631
C 1.79195 7.59043 6.02998
C 5.92945 5.33219 1.11522
H 2.76521 7.97258 5.75606
H -1.41645 5.00269 0.963905
C 2.30319 10.7069 6.17733
C -1.1076 2.49943 0.845093
H 1.30028 10.3712 5.95063
H 5.53055 2.70996 0.782298
C 4.23899 10.7254 7.60427
C -0.12812 1.43827 2.72337
H -0.256503 0.959936 3.67449
C 0.12331 7.1265 7.65794
C 4.09766 5.42605 2.61852
H 3.64165 5.18363 3.56562
C -0.715741 6.59476 6.67722
C 3.41499 6.2734 1.78709
H 6.3011 6.64017 7.11244
H 2.58105 6.83631 2.1676
C -0.202525 6.25857 5.44781
C 3.83205 6.42643 0.497175
C 4.95598 2.34152 4.84125
C 1.4284 10.9073 9.56662
C -0.978357 5.31042 4.56021
C 2.91713 7.40028 9.56375
Ni 10.1618 9.19774 8.66885
Ni -1.84548 3.56735 3.62798
O 7.50342 4.71516 3.82679
O 11.4971 8.11533 8.88052
O 13.0809 2.53013 3.87578
O 8.74989 10.297 8.64639
O 14.0993 4.75353 4.90039
O 9.5405 7.95542 9.87843
O 6.21504 2.77278 5.0848
O 10.4261 10.339 10.0384
N 11.228 10.3895 7.56876
N 6.7872 2.42131 2.48122
N 9.41088 8.07947 7.18958
N 13.3633 4.73059 2.41502
C 11.6982 11.3197 5.39933
C 7.38096 1.68483 0.214842
H 11.3942 11.3915 4.36201
H -0.169269 2.30024 8.92705
C 12.961 1.01994 5.78077
C 8.61624 1.11859 0.655347
C 13.3645 11.554 7.07656
C 8.92904 1.29843 1.98593
H 5.47829 1.70271 7.40785
H 9.87068 0.913472 2.36075
C 8.85577 7.12853 4.99116
C 12.9574 5.82228 0.298401
H 9.07865 7.035 3.94498
H 5.19577 5.94567 9.02203
C 9.81503 7.74045 5.88018
C 13.8415 5.21257 1.24179
C 10.803 10.7577 6.34052
C 6.47347 2.32592 1.14343
H 9.8308 10.4401 6.01414
C 12.5485 10.771 7.97735
C 7.92117 1.69714 2.90421
C 8.10912 7.73741 7.53866
C 12.0542 5.16619 2.80111
H 7.70504 8.08523 8.46738
C 7.26332 6.95292 6.73227
C 11.3864 6.17903 2.0356
H -1.66246 6.16905 6.97905
H 10.482 6.62782 2.39962
C 7.63865 6.6103 5.46012
C 11.7394 6.391 0.716791
C 13.7402 1.88577 4.80246
C 9.2555 10.9465 9.68374
C 6.88717 5.54155 4.67277
C 10.7999 7.40388 9.7322
C 5.39554 9.88942 8.27631
C 5.39032 9.25657 9.73736
H 6.33083 10.4613 8.21147
H 5.57975 9.06628 7.55588
C 6.62193 9.54281 0.898074
H 5.59981 8.19476 9.55766
H 4.68532 9.32159 0.364253
H 7.64605 9.41438 0.544931
H 6.50695 8.77688 1.69724
H 6.39261 10.4845 1.41384
C 13.6574 2.6344 9.97613
C 12.507 2.37803 0.677176
H 13.6959 3.52891 9.32717
H 13.7243 1.8663 9.23317
C 11.1667 2.87899 9.70195
H 12.3581 1.31412 0.829859
H 12.3787 2.79151 1.6634
H 10.976 2.15681 8.88657
H 10.4823 3.00628 0.391129
H 11.3911 3.85204 9.23147
C -0.0513659 6.48889 9.02849
C -0.705567 7.45527 10.0292
H 0.862885 5.97447 9.37446
H -0.725218 5.60873 8.94867
C -0.111687 7.20195 1.57616
H -1.76703 7.40956 9.88119
H -0.49012 8.49834 9.77237
H 0.427401 6.24207 1.70152
H -1.01472 7.16745 2.21262
H 0.517157 8.02773 1.96986
C 7.34575 5.8658 1.09721
C 8.3861 4.86555 0.61962
H 7.62857 6.28381 2.07856
H 7.40888 6.74273 0.424489
C 8.00355 4.4819 9.07923
H 8.43154 3.99649 1.28728
H 9.36818 5.33129 0.708837
H 6.95218 4.2493 8.81564
H 8.62774 3.60233 8.85721
H 8.38134 5.2935 8.44148
C 13.3959 9.97274 9.04703
C 13.2963 9.63913 0.641581
H -1.88716 10.4715 9.08442
H 13.6978 9.02856 8.56132
C 14.3657 9.99593 1.64949
H 13.1632 8.56355 0.760522
H 12.4305 10.0318 1.13228
H -1.82646 9.21826 2.42707
H 14.0485 10.9034 2.18899
H -0.919746 10.1039 1.18431
C 7.99346 1.05355 4.25691
C 8.69172 1.99859 5.24382
H 7.00336 11.4413 4.57547
H 8.58989 10.8861 4.19471
C 8.27996 1.76037 6.69395
H 9.76778 1.98864 5.10257
H 8.48826 3.03538 4.99877
H 7.61888 2.57605 7.03869
H 7.74476 11.5676 6.80134
H 9.15989 1.76379 7.35833
C 11.1533 8.08195 5.23424
C 12.491 8.02322 5.96411
H 11.2991 7.33575 4.43795
H 11.0332 8.97804 4.6041
C 13.6206 8.45401 5.02441
H 12.515 8.66879 6.79195
H 12.6917 7.05546 6.43287
H 13.331 9.34633 4.43748
H -1.74712 8.7406 5.60034
H 13.852 7.63972 4.31033
C 11.1432 4.38519 3.80136
C 11.4879 4.52845 5.30775
H 10.9952 3.33382 3.49521
H 10.1102 4.77034 3.68773
C 10.3644 4.55491 6.33785
H 12.0014 5.46691 5.40749
H 12.1516 3.72923 5.65833
H 10.3391 3.59958 6.88881
H 9.385 4.74223 5.89415
H 10.5627 5.33847 7.09982
180
Atoms. Timestep: 4789
Ni 2.16326 9.09468 8.55657
Ni 5.99462 3.82042 3.69681
O -0.404564 4.62182 3.56787
O 3.52563 8.01554 8.58706
O 4.44901 2.94649 3.78325
O 0.75862 10.1851 8.68146
O 5.5897 5.15237 4.86706
O 1.77428 8.03616 9.88906
O -1.25415 2.42528 4.94552
O 2.65756 10.344 9.78401
N 2.99179 10.1739 7.23956
N -1.08936 2.31272 2.22438
N 1.291 7.84013 7.28751
N 5.3518 4.94074 2.2972
C 2.92466 0.914753 5.36454
C -0.173422 2.08044 9.99752
H 2.44046 1.24532 4.45552
H 6.89828 1.63795 9.11108
C 4.14572 1.48972 5.76824
C 0.96846 1.14412 0.563403
C 4.64393 1.15153 7.01131
C 0.944427 0.930049 1.92996
H -1.86986 1.02739 7.34207
H 1.61986 10.9829 2.36466
C 1.08478 6.76275 5.10748
C 4.83632 5.82188 10.0406
H 1.52706 6.51184 4.15623
H 13.0234 5.90351 9.19276
C 1.79954 7.59182 6.0314
C 5.92997 5.33122 1.10881
H 2.77107 7.97437 5.75704
H -1.4027 5.00137 0.957259
C 2.30985 10.7116 6.17899
C -1.0944 2.49549 0.838258
H 1.30876 10.3755 5.95193
H 5.53181 2.70625 0.775363
C 4.24206 10.7301 7.60819
C -0.116823 1.43323 2.71952
H -0.245046 0.954393 3.67216
C 0.133783 7.12741 7.66196
C 4.10135 5.42517 2.61451
H 3.64609 5.1825 3.56312
C -0.703683 6.59511 6.67967
C 3.41998 6.27341 1.78175
H 6.30049 6.64056 7.11559
H 2.58751 6.83691 2.16288
C -0.191298 6.25856 5.4483
C 3.83638 6.4266 0.489786
C 4.95797 2.33742 4.84077
C 1.43638 10.9122 9.57367
C -0.965667 5.30943 4.5593
C 2.92243 7.40147 9.5708
Ni 10.1541 9.20081 8.67447
Ni -1.83116 3.56454 3.62558
O 7.50089 4.71355 3.82471
O 11.487 8.11727 8.88648
O 13.0683 2.52622 3.87377
O 8.74476 10.3012 8.65198
O 14.0848 4.75195 4.90001
O 9.53385 7.95719 9.88598
O 6.21474 2.76913 5.08472
O 10.4179 10.3433 10.0462
N 11.2185 10.3938 7.57264
N 6.78606 2.4173 2.47699
N 9.40466 8.08137 7.19285
N 13.3503 4.72899 2.41069
C 11.688 11.325 5.39975
C 7.37893 1.68004 0.207004
H 11.3846 11.3969 4.36077
H -0.158364 2.29609 8.93309
C 12.9485 1.01446 5.7818
C 8.61195 1.11322 0.64821
C 13.3512 11.5595 7.07965
C 8.92408 1.29324 1.98091
H 5.47914 1.69795 7.41147
H 9.86401 0.90788 2.35633
C 8.85072 7.12943 4.99092
C 12.9453 5.82182 0.290695
H 9.07328 7.0358 3.94308
H 5.19701 5.94534 9.02822
C 9.80819 7.74199 5.88137
C 13.8278 5.21148 1.23558
C 10.7943 10.7624 6.34244
C 6.473 2.32181 1.13707
H 9.82392 10.4445 6.01553
C 12.5366 10.7757 7.98187
C 7.91796 1.69237 2.90066
C 8.10523 7.73895 7.54248
C 12.0435 5.16504 2.79739
H 7.7018 8.08714 8.47269
C 7.26101 6.95364 6.73481
C 11.377 6.17894 2.03066
H -1.64872 6.16896 6.98199
H 10.4742 6.6282 2.39526
C 7.63576 6.61067 5.46064
C 11.7295 6.39114 0.709752
C 13.7264 1.8812 4.80192
C 9.24938 10.9514 9.69098
C 6.88569 5.5408 4.67203
C 10.791 7.40507 9.73952
C 5.39648 9.89321 8.28131
C 5.39116 9.2597 9.74468
H 6.33008 10.4657 8.21636
H 5.58041 9.06922 7.55973
C 6.62121 9.54624 0.891323
H 5.60028 8.19678 9.5647
H 4.68812 9.32479 0.356653
H 7.64352 9.41768 0.537618
H 6.50638 8.77951 1.69176
H 6.39226 10.4889 1.40791
C 13.6433 2.63061 9.98384
C 12.4957 2.37397 0.670074
H 13.6818 3.52606 9.33385
H 13.7101 1.8617 9.23969
C 11.1572 2.87545 9.70922
H 12.3471 1.30895 0.823
H 12.3675 2.78788 1.65787
H 10.9668 2.15252 8.89254
H 10.4747 3.00288 0.383572
H 11.3812 3.84952 9.23799
C -0.0406808 6.48913 9.03468
C -0.693779 7.45651 10.037
H 0.871898 5.97417 9.38121
H -0.713313 5.60805 8.95474
C -0.100333 7.20293 1.57049
H -1.75332 7.41076 9.88874
H -0.478701 8.50068 9.77975
H 0.437775 6.24205 1.69605
H -1.00179 7.1684 2.20797
H 0.527349 8.02957 1.96482
C 7.34371 5.86539 1.09078
C 8.38222 4.86409 0.612426
H 7.62595 6.28383 2.07369
H 7.40678 6.74324 0.416984
C 7.99973 4.48004 9.08551
H 8.42754 3.99412 1.28115
H 9.36253 5.33032 0.701785
H 6.95027 4.24719 8.82149
H 8.62281 3.59955 8.86314
H 8.37689 5.29249 8.44674
C 13.3824 9.97662 9.05326
C 13.2836 9.64266 0.634421
H -1.87317 10.4759 9.0907
H 13.6837 9.03145 8.56677
C -1.8898 9.99984 1.64394
H 13.1507 8.56596 0.753552
H 12.4193 10.0357 1.1259
H -1.81208 9.22135 2.42275
H 14.0343 10.9083 2.1843
H -0.906908 10.1079 1.17801
C 7.99002 1.0481 4.25551
C 8.68695 1.99414 5.24399
H 7.00167 11.4467 4.57457
H 8.58538 10.891 4.19321
C 8.27582 1.75566 6.69643
H 9.76108 1.98417 5.10252
H 8.48387 3.03201 4.99855
H 7.6159 2.5722 7.04172
H 7.74158 11.5731 6.80399
H 9.15411 1.75909 7.36186
C 11.1441 8.08386 5.23439
C 12.4793 8.02506 5.96543
H 11.2897 7.33687 4.43683
H 11.0242 8.98088 4.60325
C 13.6069 8.45631 5.02423
H 12.5032 8.6713 6.79458
H 12.6796 7.05629 6.43494
H 13.3179 9.34955 4.43637
H -1.73313 8.74319 5.60108
H 13.838 7.64116 4.30901
C 11.1341 4.38323 3.79923
C 11.4781 4.52664 5.30802
H 10.9864 3.33076 3.4926
H 10.103 4.76878 3.68542
C 10.3566 4.55313 6.33976
H 11.9907 5.46608 5.40792
H 12.1406 3.72658 5.65916
H 10.3313 3.59679 6.8916
H 9.37893 4.74064 5.89535
H 10.5544 5.3375 7.10295
180
Atoms. Timestep: 8272
Ni 2.16299 9.0953 8.55827
Ni 5.99289 3.81804 3.69539
O -0.398944 4.62332 3.57065
O 3.52783 8.01698 8.5906
O 4.44537 2.94201 3.78334
O 0.755607 10.1853 8.68233
O 5.58495 5.14886 4.86285
O 1.77228 8.03895 9.88951
O -1.25258 2.42873 4.94461
O 2.65801 10.3439 9.783
N 2.99286 10.1731 7.24226
N -1.08622 2.31614 2.22734
N 1.29079 7.84052 7.29027
N 5.34774 4.93592 2.29585
C 2.9236 0.909254 5.36694
C -0.177301 2.07833 9.99963
H 2.43706 1.23791 4.45958
H 6.89581 1.64379 9.11364
C 4.14694 1.485 5.76732
C 0.96738 1.1433 0.562575
C 4.64857 1.14819 7.0083
C 0.949274 0.932765 1.92775
H -1.87513 1.04899 7.34833
H 1.62803 10.9878 2.36078
C 1.08854 6.76584 5.11192
C 4.83737 5.82415 10.0443
H 1.53176 6.52011 4.16097
H 13.0202 5.89092 9.19317
C 1.80197 7.59431 6.03632
C 5.92967 5.33032 1.11153
H 2.7748 7.97846 5.76376
H -1.40089 4.99389 0.955358
C 2.30873 10.7085 6.18284
C -1.09743 2.49408 0.842663
H 1.30554 10.3726 5.95778
H 5.52796 2.70659 0.779927
C 4.2452 10.7298 7.60883
C -0.109005 1.43977 2.72017
H -0.230291 0.967764 3.67515
C 0.13392 7.12404 7.66299
C 4.09319 5.41676 2.60964
H 3.63566 5.17258 3.55559
C -0.702193 6.58855 6.68144
C 3.4133 6.26856 1.77928
H 6.29714 6.63049 7.11364
H 2.57856 6.83027 2.15951
C -0.187722 6.25677 5.45115
C 3.83536 6.42811 0.491328
C 4.95725 2.33529 4.84
C 1.43514 10.9118 9.57328
C -0.962148 5.31008 4.56043
C 2.92292 7.40514 9.57393
Ni 10.1532 9.19891 8.67148
Ni -1.82931 3.56733 3.62671
O 7.50073 4.71309 3.82345
O 11.49 8.11602 8.88441
O 13.0657 2.52973 3.87497
O 8.74042 10.2984 8.64992
O 14.0862 4.75297 4.89877
O 9.53285 7.95689 9.88181
O 6.21559 2.76904 5.08186
O 10.4176 10.3401 10.0405
N 11.2181 10.3919 7.56991
N 6.78693 2.41623 2.47703
N 9.40319 8.07887 7.19147
N 13.3524 4.73277 2.41238
C 11.6891 11.32 5.39901
C 7.37577 1.679 0.208783
H 11.3864 11.3886 4.36104
H -0.166282 2.2919 8.9365
C 12.9484 1.01684 5.78201
C 8.60926 1.10783 0.647135
C 13.3483 11.5698 7.08151
C 8.92457 1.28562 1.97812
H 5.4855 1.69499 7.40597
H 9.86558 0.897422 2.35118
C 8.84766 7.13215 4.99036
C 12.9442 5.81548 0.290663
H 9.07044 7.04135 3.94373
H 5.20142 5.95052 9.03489
C 9.80653 7.74391 5.88041
C 13.8287 5.20655 1.23454
C 10.7934 10.7582 6.34069
C 6.47035 2.32 1.13967
H 9.82123 10.4404 6.01453
C 12.5364 10.7783 7.97956
C 7.9207 1.69077 2.89889
C 8.1029 7.73193 7.54108
C 12.0457 5.17412 2.79943
H 7.69858 8.07727 8.47068
C 7.25821 6.9466 6.73329
C 11.38 6.18746 2.03128
H -1.64731 6.15852 6.98246
H 10.4778 6.64093 2.39565
C 7.63255 6.60872 5.45909
C 11.731 6.39321 0.710015
C 13.7257 1.88548 4.80262
C 9.24704 10.948 9.68762
C 6.88272 5.5392 4.66911
C 10.7923 7.40535 9.73764
C 5.40129 9.89583 8.28521
C 5.39506 9.26057 9.74582
H 6.33437 10.4709 8.22339
H 5.58974 9.0738 7.56465
C 6.62577 9.54296 0.892978
H 5.60393 8.19857 9.56518
H 4.69049 9.32619 0.35667
H 7.65033 9.40988 0.542608
H 6.50608 8.77719 1.69167
H 6.39883 10.4851 1.40902
C 13.6351 2.62414 9.99372
C 12.4857 2.37634 0.682865
H 13.6737 3.51424 9.33831
H 13.6978 1.84883 9.25778
C 11.1476 2.8717 9.71784
H 12.3335 1.31452 0.848082
H 12.3577 2.80102 1.66385
H 10.9637 2.14844 8.90183
H 10.4613 2.99592 0.387567
H 11.3697 3.84585 9.24841
C -0.0411526 6.48804 9.03413
C -0.69956 7.45458 10.0314
H 0.873421 5.97623 9.38274
H -0.712905 5.60622 8.95479
C -0.109768 7.20391 1.56416
H -1.76046 7.40792 9.8786
H -0.483918 8.49724 9.77342
H 0.426467 6.243 1.69333
H -1.01458 7.17368 2.19839
H 0.52043 8.02869 1.95767
C 7.34697 5.86111 1.09603
C 8.38426 4.85982 0.614121
H 7.63115 6.27667 2.07774
H 7.41168 6.74003 0.425745
C 7.99675 4.47893 9.089
H 8.42861 3.98951 1.28017
H 9.36781 5.323 0.702415
H 6.94473 4.2466 8.82795
H 8.61943 3.59945 8.86255
H 8.37253 5.29194 8.4519
C 13.3867 9.97983 9.04687
C 13.2884 9.64776 0.626252
H -1.86654 10.4776 9.08226
H 13.6869 9.03532 8.56117
C -1.88297 10.004 1.63438
H 13.1526 8.57256 0.746923
H 12.4243 10.0431 1.11647
H -1.8117 9.23042 2.41702
H 14.044 10.9152 2.16862
H -0.896981 10.1049 1.17074
C 7.99503 1.05014 4.25361
C 8.69273 1.99649 5.2402
H 7.00555 11.4485 4.57329
H 8.59205 10.8944 4.19251
C 8.2812 1.75937 6.69143
H 9.76899 1.98781 5.09955
H 8.48828 3.03255 4.99316
H 7.62158 2.57623 7.03659
H 7.74495 11.5784 6.80017
H 9.16123 1.7615 7.3559
C 11.1458 8.08425 5.23531
C 12.4835 8.02702 5.96557
H 11.2919 7.33702 4.44005
H 11.0262 8.97917 4.60342
C 13.6134 8.45621 5.02514
H 12.5075 8.67437 6.7923
H 12.6839 7.05978 6.43564
H 13.3256 9.34973 4.43899
H -1.7239 8.73993 5.60079
H 13.8426 7.64213 4.31004
C 11.1324 4.39521 3.79973
C 11.4769 4.5335 5.30704
H 10.9818 3.34459 3.49222
H 10.1008 4.78404 3.68669
C 10.3537 4.55916 6.33788
H 11.9928 5.47028 5.4104
H 12.1381 3.7312 5.65508
H 10.3319 3.60555 6.89235
H 9.37342 4.74139 5.89421
H 10.5494 5.3454 7.09767
180
Atoms. Timestep: 8275
Ni 2.16934 9.09946 8.56155
Ni 5.99312 3.81446 3.69399
O -0.387985 4.62093 3.56916
O 3.53192 8.01954 8.59393
O 4.44814 2.93714 3.78206
O 0.764263 10.191 8.68575
O 5.58575 5.14721 4.86258
O 1.77919 8.04157 9.89408
O -1.24027 2.42313 4.94441
O 2.66349 10.3498 9.78747
N 2.99791 10.1788 7.24428
N -1.07407 2.31038 2.22454
N 1.29866 7.84284 7.29234
N 5.34912 4.93397 2.29311
C 2.92887 0.901404 5.36718
C -0.167105 2.0722 10.0043
H 2.44318 1.23055 4.45894
H 6.89421 1.63703 9.11747
C 4.15012 1.478 5.76792
C 0.97619 1.13579 0.558164
C 4.65087 1.1407 7.01009
C 0.958053 0.924949 1.92466
H -1.86195 1.04136 7.35046
H 1.63564 10.9947 2.3581
C 1.09688 6.76658 5.11191
C 4.83914 5.8235 10.0491
H 1.53942 6.5205 4.16004
H 13.0084 5.89037 9.19708
C 1.80909 7.59628 6.03718
C 5.93018 5.32894 1.10766
H 2.7803 7.98098 5.76436
H -1.38812 4.99203 0.951333
C 2.31494 10.715 6.18384
C -1.08517 2.48857 0.838538
H 1.31346 10.3786 5.95857
H 5.52913 2.70139 0.775736
C 4.24812 10.7363 7.6112
C -0.0985112 1.43271 2.71782
H -0.219659 0.960018 3.67373
C 0.14371 7.12529 7.6654
C 4.09665 5.41553 2.6072
H 3.63984 5.17099 3.55406
C -0.690971 6.58901 6.68293
C 3.41794 6.26858 1.77605
H 6.29665 6.63102 7.11554
H 2.58459 6.83111 2.15664
C -0.177246 6.25677 5.45145
C 3.83938 6.42836 0.486851
C 4.95915 2.32955 4.83971
C 1.44265 10.9186 9.57755
C -0.950346 5.30869 4.55988
C 2.92794 7.40682 9.5782
Ni 10.1462 9.20322 8.67487
Ni -1.81599 3.56339 3.62524
O 7.49847 4.71084 3.82219
O 11.4807 8.11873 8.88802
O 13.054 2.52425 3.87376
O 8.73573 10.3044 8.65332
O 14.0729 4.75074 4.89853
O 9.52676 7.95939 9.88637
O 6.21539 2.76394 5.08179
O 10.4101 10.3461 10.0452
N 11.2094 10.398 7.57224
N 6.7859 2.41061 2.47448
N 9.39752 8.08154 7.19344
N 13.3404 4.73053 2.40975
C 11.6797 11.3274 5.39928
C 7.37389 1.67229 0.204062
H 11.3775 11.3961 4.36031
H -0.156061 2.28609 8.94017
C 12.9369 1.00916 5.78263
C 8.60529 1.10028 0.642808
C 13.3361 11.5776 7.08339
C 8.92002 1.27832 1.97509
H 5.48636 1.6883 7.40816
H 9.85943 0.889559 2.34849
C 8.84302 7.13343 4.99024
C 12.933 5.81481 0.286019
H 9.06551 7.04249 3.94259
H 5.20266 5.95006 9.03865
C 9.80027 7.74609 5.88112
C 13.816 5.20499 1.23078
C 10.7854 10.7648 6.34185
C 6.46991 2.31424 1.13583
H 9.81491 10.4465 6.01537
C 12.5255 10.785 7.98228
C 7.91775 1.68407 2.89672
C 8.09937 7.73408 7.54338
C 12.0358 5.17253 2.79717
H 7.69567 8.07992 8.47388
C 7.25612 6.9476 6.73483
C 11.3713 6.18735 2.0283
H -1.63451 6.15836 6.98423
H 10.4706 6.64149 2.39301
C 7.62995 6.60922 5.45939
C 11.7218 6.39341 0.705749
C 13.713 1.87907 4.8023
C 9.24148 10.9549 9.692
C 6.8814 5.53814 4.66866
C 10.7841 7.40703 9.74207
C 5.40225 9.90115 8.28824
C 5.39594 9.26497 9.75023
H 6.33377 10.4771 8.22636
H 5.59041 9.07793 7.567
C 6.6251 9.54777 0.888906
H 5.60447 8.20142 9.56944
H 4.69308 9.33068 0.352072
H 7.64798 9.41449 0.538186
H 6.50556 8.78089 1.68835
H 6.39851 10.4913 1.40543
C 13.6222 2.61882 9.99839
C 12.4753 2.37065 0.67859
H 13.6607 3.51021 9.34236
H 13.6849 1.84237 9.26174
C 11.1388 2.86673 9.72224
H 12.3233 1.30728 0.843953
H 12.3475 2.79595 1.6605
H 10.9553 2.14242 8.90546
H 10.4542 2.99113 0.382998
H 11.3606 3.84231 9.25238
C -0.0311537 6.48839 9.03787
C -0.688502 7.45632 10.0361
H 0.881887 5.97581 9.38683
H -0.701776 5.60527 8.95847
C -0.0992056 7.20528 1.5607
H -1.74765 7.4096 9.88316
H -0.473218 8.50051 9.77789
H 0.43612 6.24298 1.69001
H -1.00256 7.17502 2.19556
H 0.529912 8.03128 1.95461
C 7.3451 5.86053 1.09214
C 8.38066 4.85775 0.609761
H 7.62873 6.27668 2.07479
H 7.40973 6.74073 0.421219
C 7.99333 4.47633 9.09282
H 8.42491 3.98619 1.27645
H 9.36258 5.32163 0.698147
H 6.94306 4.24365 8.8315
H 8.61497 3.59556 8.86614
H 8.3685 5.29051 8.4551
C 13.3743 9.98527 9.05063
C 13.2766 9.65271 0.621899
H -1.85347 10.4838 9.08606
H 13.674 9.03939 8.56446
C -1.86945 10.0095 1.63102
H 13.141 8.57596 0.7427
H 12.4139 10.0486 1.1126
H -1.79834 9.23477 2.4144
H 14.0309 10.9221 2.16576
H -0.885072 10.1105 1.16692
C 7.99189 1.04252 4.25275
C 8.68834 1.99025 5.2403
H 7.00402 11.4561 4.57274
H 8.58791 10.9012 4.1916
C 8.27743 1.75278 6.69291
H 9.76284 1.98155 5.09951
H 8.48426 3.02782 4.99302
H 7.61889 2.57083 7.03842
H 7.74206 11.5862 6.80177
H 9.15596 1.75491 7.35803
C 11.1373 8.08693 5.2354
C 12.4727 8.0296 5.96638
H 11.2832 7.3386 4.43939
H 11.0179 8.98314 4.60291
C 13.6008 8.45942 5.02502
H 12.4967 8.6779 6.79389
H 12.6727 7.06096 6.43689
H 13.3136 9.35424 4.43832
H -1.71087 8.74356 5.60124
H 13.8297 7.64416 4.30925
C 11.124 4.39247 3.79845
C 11.4678 4.53097 5.30719
H 10.9737 3.34033 3.49064
H 10.0942 4.78188 3.68529
C 10.3465 4.55666 6.33905
H 11.9829 5.46912 5.41067
H 12.1279 3.72749 5.65558
H 10.3247 3.60167 6.89403
H 9.36785 4.73916 5.89493
H 10.5419 5.34405 7.09955
180
Atoms. Timestep: 11626
Ni 2.16877 9.10011 8.5631
Ni 5.99165 3.81184 3.69276
O -0.382776 4.62153 3.57172
O 3.53365 8.02169 8.59731
O 4.44497 2.93306 3.78221
O 0.761137 10.1906 8.68626
O 5.58166 5.14315 4.85929
O 1.77714 8.04469 9.89549
O -1.23939 2.42682 4.94428
O 2.66347 10.3495 9.78688
N 2.99876 10.1775 7.24594
N -1.07138 2.31386 2.2268
N 1.29806 7.84372 7.29456
N 5.3452 4.92847 2.29122
C 2.92785 0.896519 5.36874
C -0.171399 2.069 10.0046
H 2.43983 1.22482 4.46211
H 6.89259 1.64014 9.1186
C 4.15118 1.47337 5.76727
C 0.974854 1.13488 0.556734
C 4.65484 1.13661 7.00784
C 0.962537 0.928693 1.9227
H -1.86647 1.05881 7.35563
H 1.64327 11.0011 2.35524
C 1.10046 6.76834 5.11561
C 4.83998 5.82663 10.0517
H 1.5445 6.52528 4.1644
H 13.0064 5.88011 9.19595
C 1.81107 7.59827 6.04102
C 5.92974 5.3282 1.10937
H 2.78347 7.98418 5.76952
H -1.38609 4.98482 0.94854
C 2.31397 10.7119 6.1862
C -1.08831 2.48691 0.841392
H 1.31067 10.3756 5.96218
H 5.52692 2.70208 0.778032
C 4.25091 10.735 7.61147
C -0.0912711 1.43995 2.71856
H -0.205866 0.974074 3.67714
C 0.142963 7.12386 7.66641
C 4.08866 5.40582 2.6024
H 3.62985 5.15946 3.54718
C -0.690335 6.58462 6.68418
C 3.41155 6.26302 1.77411
H 6.29311 6.62374 7.11351
H 2.57637 6.82355 2.15477
C -0.174215 6.25512 5.45385
C 3.83827 6.43017 0.488327
C 4.95837 2.32802 4.83967
C 1.44109 10.9177 9.577
C -0.947034 5.3085 4.5612
C 2.92838 7.41132 9.58177
Ni 10.1458 9.20104 8.67222
Ni -1.81446 3.56601 3.62631
O 7.49849 4.70946 3.82108
O 11.4839 8.11786 8.88598
O 13.0513 2.52837 3.87484
O 8.73217 10.3007 8.65159
O 14.0741 4.75146 4.89797
O 9.52643 7.95895 9.88299
O 6.21614 2.76394 5.08014
O 10.4102 10.3421 10.041
N 11.2092 10.3955 7.5694
N 6.78701 2.40971 2.47411