180
Atoms. Timestep: 0
Ni 2.89857 9.41116 8.59265
Ni 6.17525 3.10579 3.48481
O 1.44827 4.35425 3.93374
O 4.4416 8.15245 9.05464
O 4.63665 1.84729 3.87523
O 1.36499 10.6744 9.00295
O 5.80609 4.46033 4.96242
O 2.54244 8.0327 10.0675
O 0.25117 1.69264 4.94273
O 3.23722 10.8047 10.0626
N 3.69677 10.6606 7.2416
N 0.71256 1.8642 2.11704
N 2.17217 8.14409 7.25198
N 5.44023 4.39481 2.13747
C 3.48546 12.1483 5.36301
C 0.47488 0.38955 0.2292
C 4.76073 0.1474 5.61481
C 1.74333 12.3699 0.47412
C 5.50345 12.1502 6.68209
C 2.49852 0.35508 1.54004
C 2.48363 6.6337 5.40822
C 5.72803 5.90364 0.28669
H 3.13294 6.27291 4.61605
C 2.92756 7.68099 6.23068
C 6.1883 4.86756 1.11596
H 3.89994 8.14655 6.0889
H 0.91589 4.41889 0.97634
C 2.98256 11.1359 6.19748
C -0.01036 1.40553 1.07106
H 1.99392 10.709 6.04703
H 5.26093 1.85011 0.92351
C 4.93641 11.1381 7.47507
C 1.94823 1.3719 2.3406
H 5.48559 10.7097 8.30944
H 2.50886 1.79214 3.17267
C 0.94573 7.62654 7.47302
C 4.21083 4.90458 2.35686
H 0.36328 8.05184 8.28732
H 3.63605 4.47744 3.17528
C 0.43859 6.57577 6.69176
C 3.68763 5.945 1.56944
H 2.69824 6.32683 1.80071
C 1.22745 6.06471 5.65205
C 4.46338 6.45777 0.52027
C 5.3126 1.24381 4.79419
C 2.0502 11.2675 9.92158
C 0.73548 4.94016 4.83586
C 3.73174 7.56629 9.95688
Ni 9.15137 9.41116 8.59265
Ni 12.4281 3.10579 3.48481
O 7.70109 4.35425 3.93374
O 10.6944 8.15245 9.05464
O 10.8895 1.84729 3.87523
O 7.61779 10.6744 9.00295
O 12.0589 4.46033 4.96242
O 8.79524 8.0327 10.0675
O 6.50397 1.69264 4.94273
O 9.49002 10.8047 10.0626
N 9.94957 10.6606 7.2416
N 6.96536 1.8642 2.11704
N 8.42499 8.14409 7.25198
N 11.693 4.39481 2.13747
C 9.73826 12.1483 5.36301
C 6.72768 0.38955 0.2292
H 9.11733 12.5181 4.55267
H 12.1225 0.03371 9.69377
C 11.0135 0.1474 5.61481
C 7.99613 12.3699 0.47412
C 11.7562 12.1502 6.68209
C 8.75132 0.35508 1.54004
H 6.50047 12.5084 6.91993
H 9.74435 12.5067 1.77336
C 8.73644 6.6337 5.40822
C 11.9808 5.90364 0.28669
H 9.38574 6.27291 4.61605
C 9.18036 7.68099 6.23068
C 12.4411 4.86756 1.11596
H 10.1527 8.14655 6.0889
H 7.16869 4.41889 0.97634
C 9.23536 11.1359 6.19748
C 6.24244 1.40553 1.07106
H 8.24672 10.709 6.04703
H 11.5137 1.85011 0.92351
C 11.1892 11.1381 7.47507
C 8.20102 1.3719 2.3406
H 11.7384 10.7097 8.30944
H 8.76167 1.79214 3.17267
C 7.19853 7.62654 7.47302
C 10.4636 4.90458 2.35686
H 6.61608 8.05184 8.28732
H 9.88885 4.47744 3.17528
C 6.69139 6.57577 6.69176
C 9.94043 5.945 1.56944
H 8.95104 6.32683 1.80071
C 7.48025 6.06471 5.65205
C 10.7162 6.45777 0.52027
C 11.5654 1.24381 4.79419
C 8.303 11.2675 9.92158
C 6.98827 4.94016 4.83586
C 9.98454 7.56629 9.95688
C 2.63205 0.14397 4.18859
C 1.24681 12.0247 4.00204
H 3.20394 12.4983 3.25033
H 2.47326 1.23416 4.33785
C 0.51452 0.1079 2.80758
H 0.62918 12.1914 4.91138
H 1.35943 10.9329 3.82457
H 0.36626 1.19855 2.95793
H 12.0256 12.1499 2.69686
H 1.09435 12.4672 1.87434
C 3.91006 12.3427 1.8426
C 4.64897 0.44919 3.03591
H 4.5383 12.5077 0.94033
H 3.82526 11.2527 2.04434
C 6.03053 12.3493 3.21957
H 4.06572 0.28591 3.96828
H 4.77828 1.54017 2.86496
H 5.94045 11.2589 3.41211
H 6.54 0.29836 4.08573
H 6.6509 12.5094 2.31205
C 11.5447 6.00542 6.98398
C 10.7672 6.64229 8.14873
H 11.6581 4.92378 7.21456
H 10.9274 6.1292 6.06766
C 9.40166 5.98263 8.32541
H 10.6086 7.72433 7.94819
H 11.3389 6.51967 9.09435
H 8.79246 6.10165 7.40411
H 8.86371 6.46095 9.17091
H 9.52057 4.90054 8.54688
C 6.39051 6.41467 9.40929
C 7.76131 5.73708 9.24038
H 5.83246 6.27323 8.45821
H 6.57565 7.49812 9.5761
C 8.53253 6.33891 8.06821
H 8.36557 5.87524 10.1634
H 7.62281 4.65113 9.04622
H 8.70713 7.42312 8.23591
H 9.51564 5.83211 7.96988
H 7.96656 6.20263 7.12205
C 0.66689 0.14446 6.99457
C 1.39135 12.025 8.1898
H 0.5941 1.23469 7.19968
H 1.29819 12.4984 6.09529
C 2.77924 0.10751 8.38347
H 1.50847 10.9331 8.01576
H 0.80479 12.192 9.11943
H 3.40281 12.4664 7.47893
H 3.27804 12.1493 9.25084
H 2.70121 1.19821 8.57933
C 5.63518 12.4132 9.32934
C 4.25917 0.55417 9.15078
H 6.20651 0.05525 8.3901
H 5.4605 11.3247 9.47339
C 3.51396 12.4884 7.95558
H 3.64204 0.39193 10.0613
H 4.38761 1.64507 8.97869
H 3.34981 11.3993 8.10068
H 2.52648 0.4619 7.85071
H 4.09318 0.12532 7.0213
C 5.29187 6.00542 6.98398
C 4.51436 6.64229 8.14873
H 5.40531 4.92378 7.21456
H 4.67461 6.1292 6.06766
C 3.14886 5.98263 8.32541
H 4.35585 7.72433 7.94819
H 5.08612 6.51967 9.09435
H 2.53966 6.10165 7.40411
H 2.61091 6.46095 9.17091
H 3.26777 4.90054 8.54688
C 0.13773 6.4147 9.40932
C 1.50856 5.73716 9.24045
H 0.32285 7.49816 9.57614
H 12.0853 6.27326 8.45822
C 2.2798 6.33902 8.06831
H 1.37012 4.6512 9.04628
H 2.11277 5.87533 10.1635
H 1.71389 6.20271 7.12212
H 3.26295 5.83227 7.97004
H 2.45434 7.42323 8.23604
180
Atoms. Timestep: 596
Ni 2.49417 8.91159 9.07263
Ni 6.31334 3.68515 3.41233
O 0.518427 4.70173 3.32712
O 3.96504 7.98879 9.4427
O 4.74727 2.83203 3.64375
O 0.978906 9.87681 9.12269
O 6.03649 4.84187 4.59539
O 2.04395 7.80114 10.4548
O -0.550957 2.49366 4.3902
O 2.84981 10.1335 10.2394
N 3.31414 9.9956 7.69877
N -0.17543 2.53288 1.72058
N 1.77121 7.64417 7.62103
N 5.58928 4.93142 2.10157
C 3.11643 11.3042 5.67499
C -0.339323 11.4386 -0.210377
C 4.57144 1.1115 5.59882
C 1.06261 11.2243 -0.234685
C 5.32286 10.8251 6.56145
C 1.77022 1.18931 0.918944
C 1.80368 6.70212 5.33012
C 5.79583 6.24043 0.109662
H 2.342 6.5938 4.39763
C 2.32897 7.57098 6.34018
C 6.3624 5.67589 1.28147
H 3.08829 8.25564 6.02468
H -0.481936 6.61307 2.18852
C 2.55699 10.613 6.79052
C -0.939643 1.91893 0.752925
H 1.49015 10.5144 6.88946
H 5.19168 2.66802 0.859605
C 4.69034 10.0991 7.60656
C 1.19908 2.24054 1.74959
H 5.30861 9.62585 8.3445
H 1.86028 2.87234 2.32127
C 0.423458 7.33231 7.6444
C 4.24072 5.22245 2.13944
H -0.214013 7.89368 8.30249
H 3.63333 4.84803 2.95227
C -0.192792 6.50318 6.61373
C 3.65564 6.15252 1.23069
H 2.77601 6.68222 1.5466
C 0.531481 6.13884 5.468
C 4.36499 6.57971 0.0913305
C 5.33144 2.10995 4.62055
C 1.57511 10.5725 10.1151
C -0.149699 5.31206 4.32969
C 3.35224 7.37408 10.4555
Ni 9.62295 9.32335 9.04852
Ni -0.974408 3.69643 3.13821
O 7.93033 4.57824 3.50288
O 11.1419 8.4183 9.44017
O 11.9613 2.67986 3.2934
O 8.08408 10.2601 9.10979
O 13 4.80066 4.40706
O 9.1523 8.14234 10.3589
O 6.66379 2.45677 4.70501
O 9.92047 10.5359 10.3073
N 10.362 10.5148 7.66356
N 6.89327 2.45487 2.04595
N 9.04837 8.04581 7.5708
N 12.6341 4.95446 1.82771
C 10.4837 11.2656 5.33233
C 6.8022 1.70238 -0.273363
H 10.0459 11.2433 4.34955
H -1.23253 10.8496 10.7024
C 11.7842 1.38098 5.50563
C 8.12201 1.15806 -0.19366
C 12.2616 1.39926 6.84486
C 8.76922 1.2624 1.05307
H 6.40246 10.8903 6.54935
H 9.76206 11.2515 1.18462
C 9.27915 6.89401 5.36677
C 12.7553 6.85232 0.403101
H 9.88335 6.69319 4.49204
C 9.75248 7.82816 6.3779
C 13.0778 6.23682 1.63941
H 10.6434 8.39188 6.15786
H 7.42791 5.70541 1.43358
C 9.74167 10.7543 6.45315
C 6.201 2.29776 0.893067
H 8.72764 10.4197 6.29912
H 12.4009 2.06606 0.743878
C 11.6102 11.0086 7.8476
C 8.15665 1.92715 2.14263
H 12.0069 10.9759 8.84305
H 8.72137 2.07977 3.0452
C 7.73292 7.71332 7.53316
C 11.3422 4.7387 1.36204
H 7.07797 8.20935 8.21781
H 10.8013 3.85559 1.65193
C 7.18635 6.90247 6.47145
C 10.6364 5.77799 0.642336
H 9.57238 5.83823 0.745933
C 7.9791 6.36704 5.45635
C 11.3579 6.85012 0.0439659
C 12.5784 2.02355 4.30033
C 8.65222 10.961 10.1451
C 7.31089 5.30923 4.45247
C 10.4586 7.75498 10.4196
C 2.12983 1.19698 4.57309
C 1.08277 10.4022 4.44837
H 2.61842 1.46925 3.66813
H 1.63787 2.1268 4.88745
C 0.399348 9.96839 3.16275
H 0.254323 10.5781 5.16619
H 1.59269 9.47142 4.73989
H -0.286328 10.7297 2.78624
H -0.246977 9.09675 3.40298
H 1.1089 9.58968 2.41135
C 3.11338 10.8155 1.18681
C 3.91517 10.3289 2.39751
H 3.87175 11.2666 0.539156
H 2.84827 9.79108 0.851977
C 5.08588 9.40245 2.03903
H 3.28704 9.77964 3.11857
H 4.39427 11.1899 2.80867
H 4.75682 8.35694 2.11867
H 5.90931 9.53758 2.77168
H 5.48511 9.59021 1.02079
C 12.7603 6.10642 6.64309
C 11.9724 6.43451 7.82387
H 12.7317 5.03296 6.60027
H 12.2408 6.54482 5.7588
C 10.8004 5.47731 8.1163
H 11.7233 7.45686 7.64371
H 12.6255 6.45666 8.6307
H 10.3872 5.02006 7.19019
H 9.98768 6.00044 8.6292
H 11.1181 4.69254 8.8294
C 6.31006 6.06101 10.4049
C 7.54947 5.12624 10.3701
H 5.58348 5.55295 9.80211
H 6.61778 7.06829 10.082
C 7.69755 4.3462 9.0647
H 8.44142 5.75656 10.4118
H 7.8288 4.38764 -0.352989
H 7.96095 5.02137 8.23408
H 8.51051 3.59203 9.16994
H 6.76505 3.8314 8.78385
C 12.9768 2.60286 7.32363
C -0.491754 2.32285 8.46543
H 12.1885 3.2642 7.69718
H -0.896226 3.11345 6.52031
C 0.896176 2.78253 8.15461
H -0.407641 1.25127 8.64473
H -0.882026 2.79617 9.39108
H 0.9456 3.81742 7.76233
H 1.31501 2.19666 7.35027
H 1.44725 2.65596 9.10206
C 5.72309 1.5266 10.0403
C 4.59888 2.56358 9.92544
H 6.36981 1.59758 9.14109
H 5.27821 10.9236 10.1069
C 4.03535 2.60516 8.55138
H 3.748 2.32564 10.5853
H 4.94713 3.56693 10.2077
H 3.43243 1.74088 8.44073
H 3.2894 3.3886 8.50892
H 4.80516 2.74478 7.76462
C 5.83539 6.37051 6.51418
C 4.92278 6.75031 7.50364
H 6.04131 5.2888 6.71947
H 5.3162 6.66803 5.56778
C 3.9339 5.62765 7.70599
H 4.55178 7.7117 7.25419
H 5.49557 6.90383 8.3539
H 3.54458 5.18396 6.76232
H 3.13651 5.84294 8.40036
H 4.55077 4.89392 8.18669
C -0.976394 6.45084 10.8837
C 0.535222 5.68307 -0.231532
H -0.705809 7.34953 10.3061
H 12.8751 5.6445 10.3703
C 0.988593 5.14289 10.1233
H 0.290148 4.78143 0.364787
H 1.15558 6.34201 0.362189
H 0.21916 4.63286 9.55465
H 1.84332 4.50038 10.417
H 1.31886 5.91633 9.45369
180
Atoms. Timestep: 7760
Ni 2.63389 8.84384 8.95901
Ni 6.30655 3.79483 3.35758
O 0.496546 4.6756 3.29377
O 4.15232 7.90435 9.20755
O 4.81052 2.82014 3.53886
O 1.09763 9.78907 9.08188
O 5.82719 5.05228 4.44644
O 2.22014 7.67532 10.236
O -0.615202 2.52014 4.37738
O 2.98106 10.016 10.2077
N 3.41386 10.0397 7.62424
N -0.136106 2.39771 1.71725
N 1.92186 7.61003 7.5366
N 5.60038 4.86849 1.89277
C 3.1923 1.19873 5.81608
C -0.240641 11.2932 -0.213927
C 4.63463 1.22631 5.57574
C 1.16472 11.1244 -0.244855
C 5.39796 10.8102 6.41604
C 1.8407 1.07725 0.927404
C 1.80048 6.78034 5.21369
C 5.85686 6.27465 -0.0399836
H 2.28636 6.68983 4.25008
C 2.46497 7.51351 6.27232
C 6.34949 5.75511 1.19073
H 3.38073 8.03124 6.04645
H 13.0258 6.69565 2.68966
C 2.7113 11.0195 7.0172
C -0.874842 1.62891 0.842839
H 1.70383 11.2026 7.32077
H 5.30585 1.98023 1.27862
C 4.7778 10.0204 7.42234
C 1.24589 2.12664 1.76414
H 5.40784 9.51979 8.12324
H 1.88861 2.77989 2.32606
C 0.63376 7.13282 7.70345
C 4.23136 4.90909 1.71124
H 0.100232 7.4114 8.58832
H 3.5789 4.44108 2.42782
C -0.125547 6.53309 6.62906
C 3.63893 5.67625 0.673371
H 2.56441 5.73192 0.609356
C 0.517784 6.20461 5.40546
C 4.43638 6.373 -0.246284
C 5.37957 2.22408 4.60039
C 1.68894 10.4444 10.1071
C -0.171902 5.32188 4.28624
C 3.50142 7.23895 10.1864
Ni 9.62559 9.23299 9.01961
Ni -0.987482 3.66141 3.07609
O 7.80314 4.80524 3.50547
O 11.0982 8.2021 9.19492
O 11.9238 2.66477 3.21806
O 8.15358 10.2469 9.21129
O 12.9564 4.84943 4.33864
O 9.17917 8.04063 10.2878
O 6.66137 2.70052 4.76283
O 10.0687 10.382 10.3221
N 10.3718 10.4649 7.63736
N 7.10646 2.51257 2.1212
N 8.88807 8.05033 7.59626
N 12.6839 4.86604 1.64207
C 10.4146 11.3228 5.33337
C 6.94208 1.46951 -0.0641397
H 9.92191 11.3759 4.37251
H -1.1098 10.7619 10.632
C 11.7255 1.43381 5.48064
C 8.34701 1.19483 -0.115382
C 12.2741 1.38496 6.78911
C 9.09478 1.61433 1.00904
H 6.47328 10.81 6.33254
H 10.1556 1.41965 1.05104
C 9.02542 7.00861 5.37368
C 12.152 7.10003 0.772245
H 9.59908 6.8474 4.46976
C 9.60088 7.76384 6.44973
C 12.5786 6.23231 1.83248
H 10.5745 8.19488 6.31118
H 7.39003 5.89468 1.44164
C 9.72032 10.7365 6.45086
C 6.3574 1.93046 1.164
H 8.70307 10.407 6.31694
H 12.4939 1.44344 1.04118
C 11.6405 10.9719 7.80312
C 8.47017 2.32657 2.08331
H 12.1711 10.7302 8.7043
H 9.0855 2.72544 2.87656
C 7.56941 7.64071 7.6559
C 11.915 4.34272 0.617223
H 6.93369 8.05439 8.40658
H 11.6363 3.31497 0.633281
C 7.02905 6.71297 6.69967
C 11.2941 5.17922 -0.372405
H 10.5603 4.71622 10.3295
C 7.74361 6.43784 5.50101
C 11.35 6.58852 -0.282149
C 12.5215 2.04819 4.26833
C 8.80646 10.8818 10.2284
C 7.09227 5.5619 4.3659
C 10.4231 7.51983 10.1714
C 2.16074 1.30323 4.72239
C 1.23275 10.4213 4.73492
H 2.64329 1.47881 3.78105
H 1.5893 2.21783 4.94014
C 0.427862 9.99806 3.51005
H 0.504796 10.4713 5.56388
H 1.86651 9.55511 4.95563
H -0.258265 10.7749 3.1729
H -0.205722 9.12964 3.79262
H 1.05948 9.64674 2.68074
C 3.12649 10.6519 1.23605
C 3.86233 10.1957 2.50312
H 3.90188 11.0394 0.568808
H 2.83698 9.63776 0.882006
C 4.94503 9.15143 2.20062
H 3.19718 9.71639 3.22465
H 4.39387 11.0318 2.9295
H 4.4729 8.18498 1.93352
H 5.57151 8.98936 3.10403
H 5.603 9.48026 1.36834
C 12.7661 6.60504 6.70623
C 12.1351 5.5355 7.62536
H 12.2878 6.6337 5.70889
H 12.5314 7.60123 7.13388
C 11.0676 4.64695 6.98303
H 11.6625 6.01872 8.48187
H 12.8993 4.91005 8.08112
H 11.3708 4.25815 5.99954
H 10.1242 5.19092 6.85669
H 10.8573 3.78595 7.65139
C 6.56141 6.33169 10.3757
C 7.62395 5.19331 10.4419
H 6.0305 6.2984 9.43499
H 7.02737 7.31959 10.463
C 8.10767 4.68552 9.09263
H 8.73356 5.56599 -0.520144
H 7.51873 4.30429 -0.554796
H 8.73754 5.45321 8.6143
H 8.7225 3.77235 9.23733
H 7.25863 4.40213 8.44483
C -0.935738 2.26046 7.11867
C -0.60679 2.41541 8.59197
H -1.05966 3.26168 6.6769
H -0.0571228 1.83532 6.62817
C 0.617962 3.28955 8.82399
H -0.323159 1.41209 8.90621
H 12.9332 2.78936 9.17548
H 0.455695 4.34952 8.57364
H 1.42526 2.9238 8.17298
H 0.933921 3.22893 9.8861
C 5.84189 1.48547 10.2416
C 4.82299 2.64681 10.2711
H 6.47574 1.6305 9.34172
H 5.32559 10.9141 10.1634
C 3.9197 2.61037 9.0971
H 4.38952 2.6404 -0.416653
H 5.34756 3.61326 10.2766
H 3.20126 1.80739 9.21892
H 3.34108 3.54996 9.0937
H 4.51606 2.45581 8.18519
C 5.61733 6.17147 6.77703
C 4.53214 5.44176 7.56725
H 6.02362 5.1568 6.59446
H 5.0957 6.6837 5.94571
C 3.66528 4.57974 6.62182
H 3.82295 6.11283 7.9946
H 4.9626 4.82925 8.37241
H 3.57191 5.0097 5.61027
H 2.64648 4.43408 7.02683
H 4.15224 3.61991 6.46414
C 13.0462 8.24239 0.480524
C -0.0172892 7.75442 -0.108698
H 13.2326 8.81356 1.41457
H 12.5441 8.94958 -0.203787
C 0.0797612 6.27051 -0.572631
H 0.789255 7.94593 0.632027
H -0.0950685 8.39045 10.5681
H -1.00731 5.99327 10.309
H 0.178536 5.58782 0.287101
H 0.709274 6.03751 10.3729
180
Atoms. Timestep: 7782
Ni 2.6692 8.79092 8.92891
Ni 6.30975 3.84516 3.37983
O 0.55127 4.71603 3.2975
O 4.18371 7.87047 9.1789
O 4.8241 2.88846 3.55718
O 1.13355 9.72032 9.03322
O 5.82614 5.09732 4.44594
O 2.24876 7.63923 10.1979
O -0.553397 2.58216 4.38074
O 3.01193 9.95536 10.1604
N 3.44003 9.96426 7.60872
N -0.0907234 2.4777 1.74813
N 1.97338 7.56853 7.52182
N 5.6093 4.89321 1.92489
C 3.21722 1.31762 5.80913
C -0.195915 11.1772 -0.174376
C 4.65599 1.31559 5.56419
C 1.20514 11.0286 -0.204723
C 5.42014 10.6992 6.40222
C 1.88519 1.19253 0.959734
C 1.84445 6.77788 5.19576
C 5.86299 6.29496 0.0116777
H 2.32904 6.68131 4.23075
C 2.515 7.48651 6.25739
C 6.35359 5.79089 1.23589
H 3.42332 8.01199 6.03319
H 12.9685 6.72681 2.72477
C 2.73902 10.9399 7.00444
C -0.82793 1.70758 0.879952
H 1.73002 11.1131 7.29852
H 5.30528 2.07401 1.31974
C 4.80439 9.93437 7.41183
C 1.29186 2.22804 1.79458
H 5.42876 9.45364 8.12145
H 1.92699 2.88882 2.35763
C 0.682304 7.10323 7.69167
C 4.23597 4.93058 1.75484
H 0.145461 7.39717 8.56688
H 3.58473 4.47404 2.47784
C -0.0761119 6.52893 6.61677
C 3.64615 5.67828 0.717052
H 2.5729 5.74027 0.653667
C 0.565999 6.2106 5.3966
C 4.4463 6.36413 -0.19792
C 5.39547 2.29823 4.61014
C 1.72395 10.3771 10.0524
C -0.120102 5.35353 4.28652
C 3.52521 7.20719 10.1449
Ni 9.59831 9.18019 8.99018
Ni -0.928887 3.71104 3.09118
O 7.80009 4.84437 3.51081
O 11.0679 8.16644 9.16066
O 11.8669 2.72246 3.22164
O 8.13232 10.1778 9.17027
O 12.8908 4.88508 4.34443
O 9.1477 8.00415 10.2511
O 6.67363 2.77086 4.78371
O 10.0473 10.3203 10.2772
N 10.3243 10.3903 7.62099
N 7.10088 2.57054 2.1677
N 8.87878 8.01112 7.58155
N 12.6271 4.89358 1.67771
C 10.3636 11.2217 5.31896
C 6.93512 1.5542 -0.0159057
H 9.87781 11.268 4.35417
H -1.05655 10.655 10.5623
C 11.6792 1.52058 5.46776
C 8.33737 1.30495 -0.0678018
C 12.232 1.47648 6.77075
C 9.08804 1.70932 1.05355
H 6.49282 10.7109 6.32495
H 10.1461 1.51277 1.09084
C 9.01412 7.00156 5.35436
C 12.0858 7.10885 0.823047
H 9.58485 6.83169 4.44875
C 9.59371 7.7315 6.43548
C 12.506 6.25508 1.87939
H 10.561 8.16813 6.29581
H 7.39972 5.91881 1.47363
C 9.66561 10.665 6.43955
C 6.35245 1.99768 1.21106
H 8.6552 10.3195 6.30209
H 12.4265 1.50694 1.08345
C 11.5958 10.8728 7.7852
C 8.46612 2.40122 2.13059
H 12.1203 10.621 8.68623
H 9.07691 2.80918 2.92047
C 7.55904 7.6231 7.63671
C 11.8672 4.35489 0.650911
H 6.93324 8.03864 8.38923
H 11.5677 3.34032 0.682604
C 7.02079 6.7099 6.68283
C 11.2505 5.17871 -0.333251
H 10.522 4.71656 10.2674
C 7.73305 6.44837 5.48412
C 11.2975 6.58169 -0.231393
C 12.4693 2.10716 4.26478
C 8.79083 10.817 10.176
C 7.08553 5.6053 4.35589
C 10.3856 7.4886 10.1294
C 2.18948 1.42635 4.72467
C 1.26082 10.3267 4.73802
H 2.67457 1.59688 3.78864
H 1.62647 2.34788 4.94507
C 0.466404 9.90109 3.51626
H 0.538091 10.3665 5.56792
H 1.90121 9.46787 4.95236
H -0.215999 10.6765 3.18066
H -0.169422 9.03611 3.80333
H 1.10063 9.55586 2.68802
C 3.15945 10.5495 1.26927
C 3.88978 10.0987 2.53242
H 3.92979 10.9426 0.603947
H 2.86516 9.53378 0.922002
C 4.97482 9.07025 2.22911
H 3.227 9.61955 3.25315
H 4.41808 10.9353 2.94908
H 4.4921 8.10977 1.961
H 5.59577 8.91877 3.13664
H 5.62234 9.4111 1.39209
C 12.7038 6.61687 6.68938
C 12.0758 5.54727 7.60961
H 12.2235 6.64802 5.69204
H 12.4811 7.61661 7.1212
C 11.0136 4.66175 6.96631
H 11.6125 6.02248 8.46668
H 12.8385 4.93028 8.07211
H 11.3161 4.28293 5.97892
H 10.0779 5.20907 6.84102
H 10.8054 3.80286 7.63927
C 6.56206 6.34291 10.3296
C 7.62473 5.20501 10.3983
H 6.03442 6.3045 9.39063
H 7.01548 7.33735 10.4206
C 8.10103 4.70196 9.04788
H 8.72155 5.58356 -0.45682
H 7.51876 4.31407 -0.493758
H 8.72925 5.47767 8.5782
H 8.71498 3.78772 9.1924
H 7.24911 4.42309 8.40272
C -0.867017 2.35363 7.09702
C -0.547675 2.50321 8.57054
H -0.984741 3.35321 6.64991
H 0.00750951 1.92905 6.6108
C 0.676946 3.36388 8.80292
H -0.264455 1.49289 8.86385
H 12.869 2.86939 9.15576
H 0.52046 4.42275 8.54384
H 1.47038 2.99104 8.14294
H 0.990066 3.29885 9.86477
C 5.84391 1.57235 10.1875
C 4.82524 2.73347 10.2266
H 6.47505 1.73128 9.28376
H 5.33068 10.7812 10.1121
C 3.93427 2.69368 9.05827
H 4.38699 2.72863 -0.363038
H 5.35166 3.69842 10.2324
H 3.22043 1.89858 9.18262
H 3.34918 3.62896 9.06501
H 4.53675 2.52709 8.15385
C 5.61536 6.17987 6.75938
C 4.53929 5.44861 7.54481
H 6.02704 5.16422 6.59039
H 5.1024 6.70081 5.92937
C 3.67137 4.60202 6.59776
H 3.82826 6.10758 7.97076
H 4.97661 4.84649 8.35226
H 3.59178 5.03052 5.58447
H 2.65627 4.46373 7.00329
H 4.16997 3.65653 6.44019
C 12.9845 8.23428 0.52674
C 0.0386169 7.73707 -0.0542186
H 13.1793 8.80659 1.46588
H 12.4808 8.93389 -0.165883
C 0.129858 6.2487 -0.523476
H 0.849789 7.92097 0.685314
H -0.0423111 8.36548 10.5132
H -0.952972 5.98104 10.2502
H 0.237517 5.56918 0.339741
H 0.754771 6.00533 10.3168
180
Atoms. Timestep: 12733
Ni 2.67011 8.74741 8.92321
Ni 6.33375 3.84209 3.39757
O 0.536549 4.72992 3.25123
O 4.18439 7.82257 9.16298
O 4.84784 2.87434 3.56817
O 1.13598 9.67382 9.03606
O 5.84677 5.09672 4.4656
O 2.25068 7.58555 10.1849
O -0.526464 2.58062 4.34317
O 3.01939 9.90505 10.1646
N 3.4446 9.93825 7.61459
N -0.0822986 2.47064 1.71197
N 1.97362 7.52728 7.50533
N 5.63439 4.89045 1.94834
C 3.23251 1.2918 5.80971
C -0.184576 11.1538 -0.194965
C 4.67289 1.29153 5.5721
C 1.21378 10.9811 -0.206737
C 5.42963 10.6722 6.41782
C 1.88544 1.13621 0.96673
C 1.8343 6.77208 5.17131
C 5.88486 6.23284 -0.0104968
H 2.30527 6.716 4.1975
C 2.50191 7.47507 6.23536
C 6.38984 5.73647 1.2135
H 3.39168 8.03092 6.00481
H 12.7298 6.69351 2.80015
C 2.74849 10.9177 7.00853
C -0.81844 1.68829 0.855194
H 1.74765 11.1206 7.31944
H 5.32367 2.01785 1.36418
C 4.80823 9.92678 7.44109
C 1.29655 2.19693 1.77826
H 5.42984 9.49106 8.18803
H 1.94039 2.86766 2.31857
C 0.706099 7.00566 7.68503
C 4.26567 4.96394 1.81066
H 0.207224 7.18222 8.60872
H 3.62251 4.56747 2.57862
C -0.0733229 6.47294 6.59998
C 3.67158 5.68284 0.755908
H 2.60304 5.7723 0.723721
C 0.558464 6.19592 5.3652
C 4.46441 6.32889 -0.196617
C 5.41929 2.27651 4.6184
C 1.73008 10.3223 10.0587
C -0.13235 5.36244 4.2446
C 3.53136 7.15633 10.1328
Ni 9.61823 9.23636 8.97753
Ni -0.930906 3.70776 3.0582
O 7.8248 4.85084 3.53202
O 11.0782 8.20982 9.15416
O 11.8825 2.70513 3.1984
O 8.15661 10.2482 9.14858
O 12.8861 4.87502 4.31759
O 9.14983 8.06026 10.2348
O 6.69472 2.76008 4.80104
O 10.0678 10.3755 10.2666
N 10.3631 10.4413 7.61741
N 7.12471 2.57082 2.18565
N 8.89515 8.06947 7.56821
N 12.5947 4.8942 1.65031
C 10.3889 11.2681 5.32243
C 6.94404 1.57205 -0.00158805
H 9.89213 11.307 4.36427
H -1.04422 10.6365 10.5345
C 11.7187 1.53285 5.44875
C 8.35317 1.34796 -0.0743788
C 12.2855 1.48727 6.74392
C 9.10639 1.73752 1.05124
H 6.50184 10.6681 6.33876
H 10.1648 1.53891 1.08707
C 9.018 7.06811 5.33937
C 12.0106 7.11489 0.837934
H 9.58374 6.91299 4.42919
C 9.60254 7.79773 6.41712
C 12.3935 6.23998 1.88968
H 10.5736 8.23228 6.27632
H 7.43741 5.85941 1.442
C 9.69281 10.7438 6.45422
C 6.37271 1.98371 1.2379
H 8.66788 10.443 6.34043
H 12.4413 1.47194 1.07527
C 11.6561 10.8734 7.75257
C 8.48664 2.40973 2.13832
H 12.2096 10.5676 8.61751
H 9.10186 2.81149 2.92913
C 7.5809 7.67168 7.6351
C 11.8742 4.36235 0.598117
H 6.96062 8.07083 8.40246
H 11.6109 3.33366 0.596623
C 7.03038 6.76934 6.67906
C 11.258 5.19709 -0.384862
H 10.5687 4.74179 10.1881
C 7.74021 6.50103 5.47796
C 11.2804 6.60226 -0.257193
C 12.4971 2.1004 4.23829
C 8.81124 10.8769 10.1633
C 7.10373 5.61369 4.37108
C 10.3839 7.53143 10.1141
C 2.20125 1.41878 4.71907
C 1.23214 10.3515 4.74838
H 2.68521 1.57048 3.7769
H 1.6687 2.35825 4.9299
C 0.464172 9.86649 3.52368
H 0.486362 10.4407 5.55581
H 1.83768 9.48836 5.01758
H -0.211592 10.6184 3.12327
H -0.180839 9.01704 3.83692
H 1.11355 9.46549 2.73194
C 3.15551 10.4721 1.29937
C 3.88641 10.0223 2.57365
H 3.94601 10.8455 0.644864
H 2.86299 9.46066 0.941238
C 4.96337 8.96937 2.28921
H 3.22234 9.56082 3.30832
H 4.42817 10.8586 2.98261
H 4.4835 7.99652 2.07298
H 5.60746 8.83973 3.18563
H 5.60515 9.26535 1.43186
C 12.6999 6.61042 6.67151
C 11.992 5.56314 7.56435
H 12.23 6.68044 5.67197
H 12.5161 7.61124 7.11383
C 10.9804 4.64024 6.87699
H 11.4201 6.07403 8.33184
H 12.7082 4.97884 8.14043
H 11.3238 4.25622 5.91024
H 10.0253 5.14971 6.7048
H 10.7657 3.77725 7.54067
C 6.57992 6.28854 10.2982
C 7.63381 5.14544 10.3487
H 6.04942 6.27122 9.36231
H 7.04837 7.27 10.4016
C 8.11502 4.65235 8.99441
H 8.7382 5.51047 -0.50625
H 7.52559 4.25493 -0.552449
H 8.72444 5.43543 8.51547
H 8.74759 3.75045 9.13098
H 7.2672 4.35409 8.35254
C -0.842515 2.40778 7.08863
C -0.542922 2.53976 8.56996
H -0.988953 3.40763 6.6558
H 0.0603694 2.03552 6.60554
C 0.634941 3.45262 8.8475
H -0.215323 1.54225 8.85411
H 12.854 2.85564 9.15363
H 0.408276 4.51173 8.67329
H 1.44194 3.16599 8.16093
H 0.96837 3.33891 9.89982
C 5.82549 1.59741 10.2154
C 4.77009 2.72431 10.293
H 6.43918 1.78483 9.30952
H 5.33636 10.8007 10.1265
C 3.87225 2.72703 9.11472
H 4.33345 2.66058 -0.2953
H 5.26562 3.70265 10.3459
H 3.11691 1.96107 9.22403
H 3.33571 3.69182 9.11332
H 4.46042 2.54762 8.20272
C 5.61247 6.25509 6.76936
C 4.55444 5.43014 7.50889
H 6.05113 5.25453 6.59781
H 5.09923 6.74974 5.92571
C 3.72321 4.58164 6.52896
H 3.80808 6.02902 7.97249
H 5.00677 4.80474 8.29432
H 3.64625 5.0196 5.52009
H 2.69687 4.41478 6.89913
H 4.23183 3.63781 6.39916
C 12.91 8.26409 0.602951
C -0.0815114 7.82391 -0.123993
H 13.1638 8.74201 1.57009
H 12.3625 9.03377 0.0298048
C 0.151248 6.29852 -0.324667
H 0.782229 8.23163 0.439326
H -0.367315 8.30221 10.3333
H -0.90144 5.83877 10.5273
H 0.333176 5.79885 0.641391
H 0.760441 6.01903 10.5148
180
Atoms. Timestep: 12736
Ni 2.67368 8.74098 8.924
Ni 6.33355 3.84835 3.39721
O 0.542583 4.73389 3.25083
O 4.18635 7.81853 9.16381
O 4.8492 2.8831 3.56783
O 1.14115 9.665 9.03685
O 5.84703 5.09974 4.46546
O 2.25463 7.58212 10.1859
O -0.519321 2.59014 4.34301
O 3.02258 9.89562 10.1657
N 3.44736 9.92873 7.61511
N -0.0755921 2.48045 1.71127
N 1.97797 7.524 7.50583
N 5.63498 4.894 1.94769
C 3.23556 1.30467 5.80984
C -0.177709 11.1411 -0.196078
C 4.67441 1.30439 5.57219
C 1.21916 10.9689 -0.207851
C 5.43033 10.6608 6.41808
C 1.89007 11.3134 0.96586
C 1.83886 6.77076 5.17131
C 5.88524 6.23292 -0.0115715
H 2.30936 6.71482 4.1973
C 2.50575 7.47194 6.23558
C 6.38966 5.73785 1.21268
H 3.39456 8.02635 6.00499
H 12.7228 6.6924 2.79966
C 2.75201 10.9057 7.00891
C -0.810939 1.70012 0.854299
H 1.75223 11.1081 7.3199
H 5.3246 2.02884 1.3634
C 4.80957 9.91728 7.44157
C 1.3018 2.20745 1.77757
H 5.43048 9.48271 8.18866
H 1.94493 2.87645 2.31799
C 0.711788 7.00373 7.68557
C 4.26771 4.96729 1.80998
H 0.213424 7.17984 8.60944
H 3.62523 4.57186 2.57809
C -0.0667716 6.47238 6.60029
C 3.67428 5.68434 0.754996
H 2.60689 5.77357 0.722805
C 0.56439 6.19609 5.36524
C 4.46631 6.32872 -0.197726
C 5.42003 2.28681 4.61829
C 1.73461 10.3118 10.0597
C -0.125652 5.36478 4.24443
C 3.53398 7.154 10.1338
Ni 9.61436 9.22866 8.97833
Ni -0.923329 3.71436 3.05777
O 7.82303 4.8545 3.53168
O 11.0728 8.20477 9.15499
O 11.8764 2.71433 3.19798
O 8.15427 10.2379 9.1494
O 12.8789 4.87862 4.31742
O 9.1464 8.0556 10.2358
O 6.69414 2.76914 4.80097
O 10.0634 10.3649 10.2677
N 10.3585 10.4305 7.61793
N 7.1237 2.58036 2.18505
N 8.8921 8.06478 7.56873
N 12.5879 4.89773 1.64959
C 10.3843 11.2551 5.32247
C 6.94328 1.58418 -0.00265908
H 9.88809 11.294 4.36411
H -1.03674 10.6252 10.5356
C 11.7126 1.54509 5.44881
C 8.35091 1.36067 -0.0754628
C 12.2788 1.49963 6.74425
C 9.10331 1.74922 1.05038
H 6.50139 10.6567 6.33901
H 10.1606 1.55113 1.08623
C 9.01488 7.06603 5.33941
C 12.0044 7.1127 0.837045
H 9.58004 6.91131 4.42904
C 9.59878 7.79376 6.41738
C 12.3868 6.24005 1.88901
H 10.5688 8.22719 6.27656
H 7.4361 5.86046 1.44124
C 9.68891 10.7322 6.45449
C 6.37251 1.99478 1.23708
H 8.66509 10.4322 6.34068
H 12.4346 1.48433 1.07443
C 11.6501 10.8615 7.75312
C 8.48419 2.4197 2.1377
H 12.203 10.5565 8.61824
H 9.09872 2.82042 2.92867
C 7.57923 7.66803 7.63562
C 11.8681 4.36724 0.597168
H 6.9596 8.06615 8.40314
H 11.6051 3.34123 0.595678
C 7.02933 6.76802 6.67938
C 11.2527 5.19984 -0.386013
H 10.5638 4.74572 10.1891
C 7.73846 6.50041 5.47803
C 11.2751 6.60138 -0.258314
C 12.4903 2.11115 4.23811
C 8.8082 10.865 10.1644
C 7.10269 5.61539 4.37092
C 10.3792 7.52814 10.1151
C 2.20544 1.43132 4.71898
C 1.23735 10.3409 4.74829
H 2.6889 1.58263 3.77662
H 1.67345 2.36837 4.92986
C 0.47025 9.85716 3.52335
H 0.492349 10.4298 5.5559
H 1.84225 9.48 5.01756
H -0.204792 10.6072 3.12285
H -0.174093 9.0099 3.83665
H 1.11895 9.45719 2.73144
C 3.15878 10.4612 1.29858
C 3.88885 10.0125 2.57311
H 3.94845 10.8336 0.643927
H 2.86657 9.45236 0.940363
C 4.96469 8.96236 2.28862
H 3.22547 9.55228 3.30795
H 4.43002 10.8467 2.98216
H 4.48531 7.99201 2.07234
H 5.60805 8.83306 3.18523
H 5.60579 9.25757 1.43109
C 12.6928 6.60951 6.67182
C 11.9856 5.56495 7.56486
H 12.2235 6.67936 5.67208
H 12.5092 7.60777 7.11424
C 10.9751 4.64443 6.87734
H 11.4143 6.07452 8.33251
H 12.701 4.98216 8.14106
H 11.3182 4.26141 5.9104
H 10.0211 5.15259 6.70512
H 10.7606 3.78367 7.54117
C 6.57926 6.28847 10.2993
C 7.63203 5.14833 10.3498
H 6.04935 6.27119 9.36319
H 7.04721 7.2674 10.4027
C 8.11275 4.65651 8.99522
H 8.73555 5.51242 -0.507418
H 7.52423 4.26011 -0.553627
H 8.72154 5.43757 8.51617
H 8.74465 3.75693 9.13181
H 7.26585 4.35902 8.3532
C -0.835138 2.41776 7.08904
C -0.53592 2.5494 8.57066
H -0.981412 3.41502 6.65611
H 0.066796 2.04645 6.60585
C 0.640692 3.45989 8.84828
H -0.208669 1.55445 8.85488
H 12.8467 2.86446 9.15447
H 0.414263 4.51628 8.67402
H 1.44684 3.174 8.16155
H 0.973727 3.34648 9.90081
C 5.82565 1.60948 10.2164
C 4.77136 2.73347 10.2941
H 6.4387 1.79642 9.31039
H 5.33703 10.7889 10.1276
C 3.87452 2.73617 9.11555
H 4.33548 2.6699 -0.296426
H 5.26637 3.70928 10.3469
H 3.11998 1.97219 9.22488
H 3.33855 3.69848 9.11415
H 4.46209 2.55723 8.20335
C 5.61294 6.25512 6.7697
C 4.55603 5.43229 7.50938
H 6.05115 5.25712 6.59812
H 5.10027 6.74849 5.92587
C 3.72571 4.58599 6.52925
H 3.81045 6.02962 7.97308
H 5.00785 4.8085 8.29498
H 3.64887 5.02282 5.52017
H 2.70045 4.41956 6.8995
H 4.2338 3.64459 6.39942
C 12.9028 8.25892 0.602015
C -0.0747476 7.81987 -0.125091
H 13.1563 8.73559 1.56936
H 12.356 9.02661 0.0287405
C 0.157771 6.29841 -0.3258
H 0.78806 8.22654 0.438355
H -0.360545 8.29693 10.3343
H -0.894108 5.83986 10.5284
H 0.339476 5.80004 0.640459
H 0.766005 6.01965 10.516
180
Atoms. Timestep: 15020
Ni 2.67445 8.73938 8.92469
Ni 6.33559 3.84904 3.39775
O 0.541346 4.7387 3.24793
O 4.18772 7.81475 9.16343
O 4.85012 2.8822 3.56854
O 1.14147 9.66551 9.03741
O 5.8488 5.10395 4.46377
O 2.25402 7.57811 10.1847
O -0.51632 2.58974 4.34093
O 3.02503 9.89538 10.1661
N 3.44874 9.92933 7.61779
N -0.0748071 2.47974 1.71155
N 1.97785 7.52115 7.50699
N 5.63686 4.8952 1.94949
C 3.23617 1.30186 5.80795
C -0.176472 11.1433 -0.198507
C 4.67622 1.30003 5.57058
C 1.22118 10.9685 -0.208009
C 5.43279 10.6569 6.41801
C 1.89217 11.3096 0.966926
C 1.83914 6.77077 5.17241
C 5.88726 6.22946 -0.0136825
H 2.30999 6.717 4.1984
C 2.50662 7.47063 6.23746
C 6.39353 5.73547 1.21
H 3.39486 8.02868 6.0073
H 12.7091 6.69676 2.8021
C 2.75169 10.905 7.00755
C -0.810471 1.69929 0.853422
H 1.75079 11.1081 7.31755
H 5.32285 2.02957 1.36504
C 4.81213 9.91802 7.44532
C 1.30368 2.20535 1.77912
H 5.43356 9.48672 8.19476
H 1.94777 2.87729 2.31769
C 0.709809 7.00046 7.68571
C 4.26832 4.97197 1.81531
H 0.211728 7.17348 8.6107
H 3.62608 4.58213 2.58756
C -0.0697322 6.47055 6.59958
C 3.67419 5.6861 0.75852
H 2.60619 5.78007 0.729624
C 0.562729 6.19665 5.36455
C 4.4669 6.32628 -0.197669
C 5.42221 2.28417 4.61785
C 1.73626 10.3124 10.0603
C -0.128174 5.36977 4.24148
C 3.53411 7.14843 10.1323
Ni 9.61711 9.2342 8.97802
Ni -0.923988 3.71465 3.0567
O 7.82674 4.85749 3.5308
O 11.0762 8.20798 9.15529
O 11.8766 2.7103 3.19736
O 8.15598 10.2456 9.14775
O 12.8762 4.88052 4.31524
O 9.14663 8.0588 10.2335
O 6.6972 2.76826 4.80134
O 10.0665 10.3719 10.2669
N 10.3622 10.4377 7.62054
N 7.12466 2.57788 2.18766
N 8.89605 8.06915 7.56821