ITEM: TIMESTEP
0
ITEM: NUMBER OF ATOMS
172
ITEM: BOX BOUNDS xy xz yz pp pp pp
-2.2759399999999999e-01 1.2505599999999999e+01 0.0000000000000000e+00
0.0000000000000000e+00 1.2523400000000001e+01 -2.2759399999999999e-01
0.0000000000000000e+00 1.0274279000000000e+01 0.0000000000000000e+00
ITEM: ATOMS id type x y z
1 1 2.89576 9.94586 8.38144
2 1 6.01144 3.35755 2.75599
3 2 1.42687 4.25818 3.76666
4 2 4.43813 8.9651 8.43935
5 2 4.48979 2.3625 2.87369
6 2 1.41263 10.9164 8.68941
7 2 5.55289 4.5893 3.98733
8 2 2.68933 8.89725 9.79827
9 2 0.467618 1.90073 4.83105
10 2 3.47213 11.2516 9.47429
11 3 3.34886 11.1204 6.79524
12 3 0.741441 2.02715 2.15471
13 3 2.04431 8.50662 7.20664
14 3 5.40628 4.58917 1.30445
15 4 4.73069 11.6549 4.84714
16 4 0.478196 1.03062 10.1876
17 5 5.83258 0.0536366 8.99313
18 4 4.37496 0.534978 4.83761
19 4 1.9134 0.335908 0.152683
20 4 3.34508 0.861611 5.7565
21 4 2.59362 0.666874 1.32735
22 5 0.251961 11.2469 5.37884
23 5 3.59213 0.287402 1.49037
24 4 2.1345 6.13361 6.63753
25 4 5.65092 6.43449 10.0054
26 4 2.05806 7.18569 7.61269
27 4 6.28053 5.23643 0.451122
28 5 2.12122 6.93597 8.64663
29 5 1.05569 4.63807 1.06097
30 4 4.47526 10.8932 6.05898
31 4 0.0846707 1.78905 0.979959
32 5 5.10708 10.0562 6.31094
33 5 5.10276 1.9208 0.121432
34 4 2.73672 12.3592 6.58964
35 4 1.95 1.42747 2.35119
36 5 1.78516 0.0542001 7.04568
37 5 2.38452 1.47101 3.32298
38 4 1.52856 8.70753 5.93917
39 4 4.11119 5.04874 1.32245
40 5 1.60453 9.67007 5.48444
41 5 3.36784 4.48934 1.87023
42 4 0.967031 7.58676 5.16763
43 4 3.81722 6.41121 0.94513
44 5 7.08411 4.74173 6.67324
45 4 1.24131 6.22276 5.55508
46 4 4.37943 7.01921 10.2204
47 4 5.08023 1.65985 3.8887
48 4 2.19706 11.7047 9.49225
49 4 0.737338 4.90897 4.74794
50 4 3.92158 8.38621 9.5756
51 1 9.04446 9.19684 8.45378
52 1 -0.0172156 3.1511 3.57688
53 2 7.51749 4.34144 2.99313
54 2 10.5572 8.21025 8.72251
55 2 11.06 2.03948 3.71189
56 2 7.50133 10.1984 8.54909
57 2 12.0309 4.28922 4.90671
58 2 8.58873 8.00652 9.74024
59 2 6.31101 2.19869 4.08961
60 2 9.35682 10.3922 9.73912
61 3 9.83047 10.4885 7.06942
62 3 6.78634 2.05881 1.42644
63 3 8.41932 7.89594 7.02157
64 3 11.7005 4.39131 2.20567
65 4 9.78991 0.147747 5.93176
66 4 6.38599 0.410974 9.85158
67 4 11.1227 0.110444 5.51439
68 4 7.59498 12.2767 10.2349
69 4 11.7712 11.3939 5.76996
70 4 8.43209 0.266171 1.15843
71 5 2.93445 1.8588 5.76131
72 4 8.22208 7.2177 4.67215
73 4 11.8939 5.63898 0.020058
74 5 6.34394 6.92924 9.35777
75 4 8.30267 8.24843 5.69658
76 4 0.00303088 4.87623 1.08599
77 5 8.50068 9.26139 5.40367
78 5 7.26488 4.82564 0.288669
79 4 9.30849 11.7576 6.93581
80 4 6.07365 1.51467 0.370803
81 5 8.38018 12.0105 7.40262
82 5 11.56 2.09815 0.89106
83 4 11.0747 10.2956 6.47276
84 4 8.04925 1.56295 1.64605
85 5 11.5827 9.35872 6.61821
86 5 8.63191 1.98786 2.45158
87 4 8.02655 6.59557 7.34193
88 4 10.2885 4.638 2.152
89 5 8.15203 6.21098 8.33383
90 5 11.188 4.38413 2.57364
91 4 7.48407 5.69658 6.35865
92 4 9.83368 5.71689 1.30141
93 5 0.493563 7.799 4.2253
94 5 8.81172 6.0466 1.39813
95 4 7.49299 6.03268 4.99221
96 4 10.6471 6.30564 0.287798
97 4 11.7551 1.30187 4.62782
98 4 8.11494 10.9075 9.55345
99 4 6.82653 5.08249 3.90281
100 4 9.86563 7.52474 9.68377
101 6 4.77058 10.9293 3.59548
102 7 3.39747 10.6674 3.12156
103 5 2.72694 11.5277 3.29525
104 5 3.41012 10.4203 2.03905
105 5 2.91918 9.83797 3.66399
106 7 5.47548 9.63885 3.74664
107 5 4.91857 8.93729 4.38414
108 5 5.65936 9.17153 2.75629
109 5 6.41961 9.76893 4.29321
110 6 12.2097 0.642442 9.05711
111 7 11.4829 1.73551 8.38908
112 5 11.1535 2.53043 9.07532
113 5 12.107 2.14512 7.57053
114 5 10.5362 1.39009 7.96015
115 7 11.3379 12.1026 9.50112
116 5 12.0022 11.4774 0.0383699
117 5 10.3664 12.5204 9.82696
118 5 11.2648 11.399 8.69162
119 6 3.4245 5.54336 6.38312
120 7 4.49387 6.56129 6.35797
121 5 4.14035 7.59328 6.17815
122 5 5.1067 6.38172 5.48961
123 5 5.10354 6.56379 7.28163
124 7 3.74486 4.43066 7.28198
125 5 3.82203 4.76822 8.33712
126 5 4.71133 3.97429 6.98009
127 5 2.98005 3.63729 7.19673
128 6 3.17157 7.28294 1.89886
129 7 3.58131 6.97441 3.26747
130 5 3.20517 5.99028 3.59808
131 5 4.68701 6.96779 3.32743
132 5 3.19383 7.72506 3.95866
133 7 1.71923 7.40487 1.75212
134 5 1.40495 7.30761 0.694432
135 5 1.19682 6.6612 2.37703
136 5 1.39994 8.41197 2.09561
137 6 8.85501 0.916467 5.18519
138 7 8.65517 2.23093 5.82528
139 5 8.38731 2.97651 5.05813
140 5 7.88401 2.19748 6.626
141 5 9.59916 2.62463 6.2595
142 7 7.62541 0.127199 4.98359
143 5 6.85791 0.39241 5.7388
144 5 7.29505 0.215063 3.9465
145 5 7.76472 11.5568 5.06755
146 6 8.89154 11.8661 2.15247
147 7 10.3147 11.5467 2.22297
148 5 10.9288 12.4223 1.9502
149 5 10.5725 10.6567 1.62168
150 5 10.566 11.3001 3.26722
151 7 7.97414 10.7586 2.35404
152 5 6.93869 11.1429 2.33005
153 5 8.18341 10.3039 3.32357
154 5 8.03925 10.0061 1.55984
155 6 9.37497 7.03737 3.83533
156 7 9.76536 8.20835 3.05422
157 5 9.92716 9.09272 3.69682
158 5 9.01942 8.33635 2.26237
159 5 10.731 8.04204 2.53072
160 7 10.4883 6.6049 4.66406
161 5 11.334 6.39344 3.99704
162 5 10.2023 5.68907 5.21744
163 5 10.7886 7.38461 5.39623
164 6 12.1118 5.44972 8.91538
165 7 0.730302 4.49439 8.78463
166 5 0.557209 3.55841 9.32338
167 5 1.65567 4.91558 9.21466
168 5 0.900577 4.20588 7.73334
169 7 10.9955 5.07221 8.02042
170 5 10.1594 4.57124 8.55677
171 5 11.2953 4.38585 7.20959
172 5 10.6246 5.97914 7.51941
