Created on Mon Apr 11 15:06:46 2022 

        2233 atoms
        2592 bonds
        4824 angles
        5184 dihedrals
        3456 impropers

           6 atom types
           8 bond types
          15 angle types
           3 dihedral types
           1 improper types
           0.000000  31.854000 xlo xhi
           0.000000  35.635800 ylo yhi
           0.000000  28.367197 zlo zhi
           0.000000   0.013863   0.000000 xy xz yz

Masses

    1    58.693400000 # Ni4+2
    2    15.999400000 # O_R
    3    12.010700000 # C_R
    4     1.007940000 # H_
    5    14.006700000 # N_R
    6   131.293000000 # Xe4+4

Bond Coeffs

    1      321.720028        1.793457  # Ni4+2 O_R
    2      328.673665        1.841585  # Ni4+2 N_R
    3      646.680887        1.311940  # O_R C_R
    4      462.655054        1.379256  # C_R C_R
    5      357.440381        1.081418  # C_R H_
    6      663.718927        1.345073  # C_R N_R
    7      529.459447        1.043423  # H_ N_R
    8      391.669513        1.458000  # C_R C_R

Angle Coeffs

    1      161.490108               1               4 # O_R Ni4+2 O_R
    2      171.515475               1               4 # O_R Ni4+2 N_R
    3      182.482830               1               4 # N_R Ni4+2 N_R
    4      119.173173              -1               3 # C_R O_R Ni4+2
    5      111.297508              -1               3 # C_R C_R C_R
    6       57.289016              -1               3 # C_R C_R H_
    7      153.699352              -1               3 # C_R C_R N_R
    8       79.786967              -1               3 # H_ C_R N_R
    9       88.904516              -1               3 # C_R N_R Ni4+2
   10      120.000516              -1               3 # C_R N_R C_R
   11       62.535612              -1               3 # C_R N_R H_
   12       35.647060              -1               3 # H_ N_R H_
   13      102.183280              -1               3 # C_R C_R C_R
   14      187.136328              -1               3 # O_R C_R O_R
   15      131.755710              -1               3 # O_R C_R C_R

Dihedral Coeffs

    1        6.737110              -1               2 # Ni4+2 O_R C_R O_R
    2        3.368555              -1               2 # C_R C_R C_R N_R
    3        1.250000              -1               2 # C_R C_R C_R O_R

Improper Coeffs

    1        2.000000        1.000000       -1.000000        0.000000               0 # C_R C_R C_R H_

Pair Coeffs

    1        0.015000        2.524807 # Ni4+2 Ni4+2
    2        0.060000        3.118146 # O_R O_R
    3        0.105000        3.430851 # C_R C_R
    4        0.044000        2.571134 # H_ H_
    5        0.069000        3.260689 # N_R N_R
    6        0.332000        3.923518 # Xe4+4 Xe4+4

Atoms

       1      444        1     0.00000    5.29535    2.95182    0.32551
       2      444        2     0.00000    0.32121   10.33438    5.45359
       3      444        2     0.00000    1.38208   10.21561    3.57710
       4      444        3     0.00000    2.22242    0.23758    6.63651
       5      444        3     0.00000    3.21943    0.45140    4.45152
       6      444        3     0.00000    4.03729    1.42543    4.99688
       7      444        4     0.00000    4.78023    2.01937    4.35366
       8      444        4     0.00000    4.22728    0.47513    2.67503
       9      444        5     0.00000    4.03793    1.78179    6.29468
      10      444        5     0.00000    3.40993    0.08314    3.18493
      11      444        3     0.00000    2.23237   11.73604    5.29616
      12      444        4     0.00000    2.86825   11.18964    2.83459
      13      444        3     0.00000    1.27649   10.69074    4.76853
      14      444        3     0.00000    3.15356    1.17598    0.02269
      15      444        4     0.00000    3.18592    1.44920    1.07157
      16      444        4     0.00000    1.48666   11.64104    0.25601
      17      444        2     0.00000    5.90652    4.06131    5.97059
      18      444        2     0.00000    6.97002    4.44140    0.73826
      19      444        3     0.00000    7.31593    6.19945    4.61747
      20      444        3     0.00000    8.72697    6.36812    6.56417
      21      444        3     0.00000    9.51127    7.31008    5.84293
      22      444        4     0.00000   10.41720    7.71871    6.28617
      23      444        4     0.00000    9.77552    6.69479    1.19213
      24      444        5     0.00000    9.16134    7.75317    4.63591
      25      444        5     0.00000    9.04053    6.12223    0.74393
      26      444        3     0.00000    7.61599    5.75875    5.90605
      27      444        4     0.00000    8.41963    5.48079    1.25950
      28      444        3     0.00000    6.81147    4.74195    6.58474
      29      444        3     0.00000    8.08437    7.20438    4.01467
      30      444        4     0.00000    7.84394    7.60229    3.03245
      31      444        4     0.00000    6.45029    5.82171    4.07991
      32      444        1     0.00000   10.60609    8.92677    3.87141
      33      444        2     0.00000    5.62848    1.54421    1.90769
      34      444        2     0.00000    6.68936    1.66302    0.03120
      35      444        3     0.00000    7.52966   11.64104    3.09061
      36      444        3     0.00000    8.52671   11.42723    0.90562
      37      444        3     0.00000    9.34454   10.45316    1.45098
      38      444        4     0.00000   10.08751    9.85925    0.80776
      39      444        4     0.00000    9.53799   11.40346    6.22093
      40      444        5     0.00000    9.34517   10.09680    2.74878
      41      444        5     0.00000    8.72068   11.79545    6.73083
      42      444        3     0.00000    7.53965    0.14254    1.75026
      43      444        4     0.00000    8.17899    0.68895    6.38049
      44      444        3     0.00000    6.58377    1.18785    1.22263
      45      444        3     0.00000    8.46430   10.70261    3.56859
      46      444        4     0.00000    8.49667   10.42942    4.61747
      47      444        4     0.00000    6.79737    0.23758    3.80191
      48      444        2     0.00000    0.59580    7.81732    2.42469
      49      444        2     0.00000    1.66274    7.43719    4.28416
      50      444        3     0.00000    2.00519    5.67917    1.07157
      51      444        3     0.00000    3.41622    5.51047    3.01827
      52      444        3     0.00000    4.20053    4.56851    2.29703
      53      444        4     0.00000    5.10648    4.15987    2.74027
      54      444        4     0.00000    4.46825    5.18383    4.73803
      55      444        5     0.00000    3.85063    4.12545    1.09001
      56      444        5     0.00000    3.73325    5.75636    4.28983
      57      444        3     0.00000    2.30525    6.11984    2.36015
      58      444        4     0.00000    3.11235    6.39780    4.80540
      59      444        3     0.00000    1.50076    7.13667    3.03884
      60      444        3     0.00000    2.77366    4.67424    0.46877
      61      444        4     0.00000    2.53666    4.27630    6.57835
      62      444        4     0.00000    1.13958    6.05691    0.53401
      63      444        1     0.00000    5.29881    2.95182    7.41731
      64      444        2     0.00000    0.32467   10.33438   12.54539
      65      444        2     0.00000    1.38554   10.21561   10.66890
      66      444        3     0.00000    2.22588    0.23758   13.72830
      67      444        3     0.00000    3.22290    0.45140   11.54332
      68      444        3     0.00000    4.04076    1.42543   12.08868
      69      444        4     0.00000    4.78369    2.01937   11.44545
      70      444        4     0.00000    4.23075    0.47513    9.76683
      71      444        5     0.00000    4.04139    1.78179   13.38648
      72      444        5     0.00000    3.41340    0.08314   10.27673
      73      444        3     0.00000    2.23583   11.73604   12.38795
      74      444        4     0.00000    2.87171   11.18964    9.92639
      75      444        3     0.00000    1.27996   10.69074   11.86032
      76      444        3     0.00000    3.15702    1.17598    7.11449
      77      444        4     0.00000    3.18939    1.44920    8.16337
      78      444        4     0.00000    1.49012   11.64104    7.34781
      79      444        2     0.00000    5.90998    4.06131   13.06238
      80      444        2     0.00000    6.97348    4.44140    7.83006
      81      444        3     0.00000    7.31940    6.19945   11.70927
      82      444        3     0.00000    8.73043    6.36812   13.65597
      83      444        3     0.00000    9.51474    7.31008   12.93473
      84      444        4     0.00000   10.42066    7.71871   13.37797
      85      444        4     0.00000    9.77899    6.69479    8.28393
      86      444        5     0.00000    9.16481    7.75317   11.72771
      87      444        5     0.00000    9.04399    6.12223    7.83573
      88      444        3     0.00000    7.61946    5.75875   12.99785
      89      444        4     0.00000    8.42309    5.48079    8.35130
      90      444        3     0.00000    6.81493    4.74195   13.67653
      91      444        3     0.00000    8.08784    7.20438   11.10647
      92      444        4     0.00000    7.84740    7.60229   10.12425
      93      444        4     0.00000    6.45376    5.82171   11.17171
      94      444        1     0.00000   10.60955    8.92677   10.96321
      95      444        2     0.00000    5.63195    1.54421    8.99949
      96      444        2     0.00000    6.69282    1.66302    7.12300
      97      444        3     0.00000    7.53313   11.64104   10.18241
      98      444        3     0.00000    8.53017   11.42723    7.99742
      99      444        3     0.00000    9.34800   10.45316    8.54278
     100      444        4     0.00000   10.09097    9.85925    7.89956
     101      444        4     0.00000    9.54146   11.40346   13.31273
     102      444        5     0.00000    9.34864   10.09680    9.84058
     103      444        5     0.00000    8.72414   11.79545   13.82263
     104      444        3     0.00000    7.54311    0.14254    8.84206
     105      444        4     0.00000    8.18245    0.68895   13.47229
     106      444        3     0.00000    6.58723    1.18785    8.31443
     107      444        3     0.00000    8.46777   10.70261   10.66039
     108      444        4     0.00000    8.50013   10.42942   11.70927
     109      444        4     0.00000    6.80083    0.23758   10.89371
     110      444        2     0.00000    0.59927    7.81732    9.51649
     111      444        2     0.00000    1.66620    7.43719   11.37596
     112      444        3     0.00000    2.00866    5.67917    8.16337
     113      444        3     0.00000    3.41969    5.51047   10.11007
     114      444        3     0.00000    4.20400    4.56851    9.38883
     115      444        4     0.00000    5.10995    4.15987    9.83207
     116      444        4     0.00000    4.47171    5.18383   11.82983
     117      444        5     0.00000    3.85410    4.12545    8.18181
     118      444        5     0.00000    3.73672    5.75636   11.38163
     119      444        3     0.00000    2.30871    6.11984    9.45195
     120      444        4     0.00000    3.11582    6.39780   11.89720
     121      444        3     0.00000    1.50422    7.13667   10.13064
     122      444        3     0.00000    2.77713    4.67424    7.56057
     123      444        4     0.00000    2.54012    4.27630   13.67015
     124      444        4     0.00000    1.14305    6.05691    7.62581
     125      444        1     0.00000    5.30228    2.95182   14.50911
     126      444        2     0.00000    0.32814   10.33438   19.63719
     127      444        2     0.00000    1.38901   10.21561   17.76070
     128      444        3     0.00000    2.22935    0.23758   20.82010
     129      444        3     0.00000    3.22636    0.45140   18.63512
     130      444        3     0.00000    4.04422    1.42543   19.18048
     131      444        4     0.00000    4.78716    2.01937   18.53725
     132      444        4     0.00000    4.23421    0.47513   16.85862
     133      444        5     0.00000    4.04486    1.78179   20.47828
     134      444        5     0.00000    3.41687    0.08314   17.36853
     135      444        3     0.00000    2.23930   11.73604   19.47975
     136      444        4     0.00000    2.87518   11.18964   17.01819
     137      444        3     0.00000    1.28342   10.69074   18.95212
     138      444        3     0.00000    3.16049    1.17598   14.20629
     139      444        4     0.00000    3.19286    1.44920   15.25517
     140      444        4     0.00000    1.49359   11.64104   14.43961
     141      444        2     0.00000    5.91345    4.06131   20.15418
     142      444        2     0.00000    6.97695    4.44140   14.92185
     143      444        3     0.00000    7.32287    6.19945   18.80107
     144      444        3     0.00000    8.73390    6.36812   20.74777
     145      444        3     0.00000    9.51821    7.31008   20.02653
     146      444        4     0.00000   10.42413    7.71871   20.46977
     147      444        4     0.00000    9.78246    6.69479   15.37573
     148      444        5     0.00000    9.16827    7.75317   18.81951
     149      444        5     0.00000    9.04746    6.12223   14.92753
     150      444        3     0.00000    7.62292    5.75875   20.08965
     151      444        4     0.00000    8.42656    5.48079   15.44310
     152      444        3     0.00000    6.81840    4.74195   20.76833
     153      444        3     0.00000    8.09130    7.20438   18.19827
     154      444        4     0.00000    7.85087    7.60229   17.21605
     155      444        4     0.00000    6.45723    5.82171   18.26351
     156      444        1     0.00000   10.61302    8.92677   18.05501
     157      444        2     0.00000    5.63541    1.54421   16.09129
     158      444        2     0.00000    6.69629    1.66302   14.21480
     159      444        3     0.00000    7.53659   11.64104   17.27420
     160      444        3     0.00000    8.53364   11.42723   15.08922
     161      444        3     0.00000    9.35147   10.45316   15.63458
     162      444        4     0.00000   10.09444    9.85925   14.99135
     163      444        4     0.00000    9.54492   11.40346   20.40452
     164      444        5     0.00000    9.35210   10.09680   16.93238
     165      444        5     0.00000    8.72761   11.79545   20.91442
     166      444        3     0.00000    7.54658    0.14254   15.93385
     167      444        4     0.00000    8.18592    0.68895   20.56409
     168      444        3     0.00000    6.59070    1.18785   15.40622
     169      444        3     0.00000    8.47123   10.70261   17.75219
     170      444        4     0.00000    8.50360   10.42942   18.80107
     171      444        4     0.00000    6.80430    0.23758   17.98551
     172      444        2     0.00000    0.60273    7.81732   16.60828
     173      444        2     0.00000    1.66967    7.43719   18.46775
     174      444        3     0.00000    2.01212    5.67917   15.25517
     175      444        3     0.00000    3.42316    5.51047   17.20187
     176      444        3     0.00000    4.20746    4.56851   16.48063
     177      444        4     0.00000    5.11342    4.15987   16.92387
     178      444        4     0.00000    4.47518    5.18383   18.92163
     179      444        5     0.00000    3.85756    4.12545   15.27361
     180      444        5     0.00000    3.74018    5.75636   18.47343
     181      444        3     0.00000    2.31218    6.11984   16.54375
     182      444        4     0.00000    3.11928    6.39780   18.98900
     183      444        3     0.00000    1.50769    7.13667   17.22243
     184      444        3     0.00000    2.78059    4.67424   14.65237
     185      444        4     0.00000    2.54359    4.27630   20.76195
     186      444        4     0.00000    1.14651    6.05691   14.71761
     187      444        1     0.00000    5.30574    2.95182   21.60091
     188      444        2     0.00000    0.33160   10.33438   26.72899
     189      444        2     0.00000    1.39247   10.21561   24.85250
     190      444        3     0.00000    2.23281    0.23758   27.91190
     191      444        3     0.00000    3.22983    0.45140   25.72692
     192      444        3     0.00000    4.04769    1.42543   26.27228
     193      444        4     0.00000    4.79062    2.01937   25.62905
     194      444        4     0.00000    4.23768    0.47513   23.95042
     195      444        5     0.00000    4.04832    1.78179   27.57008
     196      444        5     0.00000    3.42033    0.08314   24.46032
     197      444        3     0.00000    2.24277   11.73604   26.57155
     198      444        4     0.00000    2.87864   11.18964   24.10999
     199      444        3     0.00000    1.28689   10.69074   26.04392
     200      444        3     0.00000    3.16395    1.17598   21.29809
     201      444        4     0.00000    3.19632    1.44920   22.34697
     202      444        4     0.00000    1.49705   11.64104   21.53141
     203      444        2     0.00000    5.91691    4.06131   27.24598
     204      444        2     0.00000    6.98041    4.44140   22.01365
     205      444        3     0.00000    7.32633    6.19945   25.89287
     206      444        3     0.00000    8.73736    6.36812   27.83957
     207      444        3     0.00000    9.52167    7.31008   27.11833
     208      444        4     0.00000   10.42759    7.71871   27.56157
     209      444        4     0.00000    9.78592    6.69479   22.46753
     210      444        5     0.00000    9.17174    7.75317   25.91131
     211      444        5     0.00000    9.05093    6.12223   22.01933
     212      444        3     0.00000    7.62639    5.75875   27.18145
     213      444        4     0.00000    8.43002    5.48079   22.53490
     214      444        3     0.00000    6.82187    4.74195   27.86013
     215      444        3     0.00000    8.09477    7.20438   25.29006
     216      444        4     0.00000    7.85433    7.60229   24.30785
     217      444        4     0.00000    6.46069    5.82171   25.35531
     218      444        1     0.00000   10.61649    8.92677   25.14681
     219      444        2     0.00000    5.63888    1.54421   23.18309
     220      444        2     0.00000    6.69975    1.66302   21.30660
     221      444        3     0.00000    7.54006   11.64104   24.36600
     222      444        3     0.00000    8.53710   11.42723   22.18102
     223      444        3     0.00000    9.35494   10.45316   22.72638
     224      444        4     0.00000   10.09790    9.85925   22.08315
     225      444        4     0.00000    9.54839   11.40346   27.49632
     226      444        5     0.00000    9.35557   10.09680   24.02418
     227      444        5     0.00000    8.73108   11.79545   28.00622
     228      444        3     0.00000    7.55004    0.14254   23.02565
     229      444        4     0.00000    8.18939    0.68895   27.65589
     230      444        3     0.00000    6.59417    1.18785   22.49802
     231      444        3     0.00000    8.47470   10.70261   24.84399
     232      444        4     0.00000    8.50706   10.42942   25.89287
     233      444        4     0.00000    6.80776    0.23758   25.07731
     234      444        2     0.00000    0.60620    7.81732   23.70008
     235      444        2     0.00000    1.67314    7.43719   25.55955
     236      444        3     0.00000    2.01559    5.67917   22.34697
     237      444        3     0.00000    3.42662    5.51047   24.29367
     238      444        3     0.00000    4.21093    4.56851   23.57243
     239      444        4     0.00000    5.11688    4.15987   24.01567
     240      444        4     0.00000    4.47864    5.18383   26.01343
     241      444        5     0.00000    3.86103    4.12545   22.36541
     242      444        5     0.00000    3.74365    5.75636   25.56523
     243      444        3     0.00000    2.31565    6.11984   23.63555
     244      444        4     0.00000    3.12275    6.39780   26.08080
     245      444        3     0.00000    1.51115    7.13667   24.31423
     246      444        3     0.00000    2.78406    4.67424   21.74417
     247      444        4     0.00000    2.54706    4.27630   27.85375
     248      444        4     0.00000    1.14998    6.05691   21.80941
     249      444        1     0.00000    5.29535   14.83044    0.32551
     250      444        2     0.00000    0.32121   22.21297    5.45359
     251      444        2     0.00000    1.38208   22.09420    3.57710
     252      444        3     0.00000    2.22242   12.11617    6.63651
     253      444        3     0.00000    3.21943   12.32999    4.45152
     254      444        3     0.00000    4.03729   13.30402    4.99688
     255      444        4     0.00000    4.78023   13.89796    4.35366
     256      444        4     0.00000    4.22728   12.35376    2.67503
     257      444        5     0.00000    4.03793   13.66038    6.29468
     258      444        5     0.00000    3.40993   11.96176    3.18493
     259      444        3     0.00000    2.23237   23.61467    5.29616
     260      444        4     0.00000    2.86825   23.06823    2.83459
     261      444        3     0.00000    1.27649   22.56933    4.76853
     262      444        3     0.00000    3.15356   13.05457    0.02269
     263      444        4     0.00000    3.18592   13.32779    1.07157
     264      444        4     0.00000    1.48666   23.51963    0.25601
     265      444        2     0.00000    5.90652   15.93989    5.97059
     266      444        2     0.00000    6.97002   16.32002    0.73826
     267      444        3     0.00000    7.31593   18.07804    4.61747
     268      444        3     0.00000    8.72697   18.24671    6.56417
     269      444        3     0.00000    9.51127   19.18870    5.84293
     270      444        4     0.00000   10.41720   19.59730    6.28617
     271      444        4     0.00000    9.77552   18.57338    1.19213
     272      444        5     0.00000    9.16134   19.63176    4.63591
     273      444        5     0.00000    9.04053   18.00082    0.74393
     274      444        3     0.00000    7.61599   17.63733    5.90605
     275      444        4     0.00000    8.41963   17.35937    1.25950
     276      444        3     0.00000    6.81147   16.62054    6.58474
     277      444        3     0.00000    8.08437   19.08297    4.01467
     278      444        4     0.00000    7.84394   19.48092    3.03245
     279      444        4     0.00000    6.45029   17.70030    4.07991
     280      444        1     0.00000   10.60609   20.80536    3.87141
     281      444        2     0.00000    5.62848   13.42283    1.90769
     282      444        2     0.00000    6.68936   13.54160    0.03120
     283      444        3     0.00000    7.52966   23.51963    3.09061
     284      444        3     0.00000    8.52671   23.30581    0.90562
     285      444        3     0.00000    9.34454   22.33178    1.45098
     286      444        4     0.00000   10.08751   21.73784    0.80776
     287      444        4     0.00000    9.53799   23.28204    6.22093
     288      444        5     0.00000    9.34517   21.97542    2.74878
     289      444        5     0.00000    8.72068   23.67404    6.73083
     290      444        3     0.00000    7.53965   12.02113    1.75026
     291      444        4     0.00000    8.17899   12.56757    6.38049
     292      444        3     0.00000    6.58377   13.06647    1.22263
     293      444        3     0.00000    8.46430   22.58123    3.56859
     294      444        4     0.00000    8.49667   22.30801    4.61747
     295      444        4     0.00000    6.79737   12.11617    3.80191
     296      444        2     0.00000    0.59580   19.69591    2.42469
     297      444        2     0.00000    1.66274   19.31578    4.28416
     298      444        3     0.00000    2.00519   17.55776    1.07157
     299      444        3     0.00000    3.41622   17.38909    3.01827
     300      444        3     0.00000    4.20053   16.44710    2.29703
     301      444        4     0.00000    5.10648   16.03850    2.74027
     302      444        4     0.00000    4.46825   17.06242    4.73803
     303      444        5     0.00000    3.85063   16.00404    1.09001
     304      444        5     0.00000    3.73325   17.63498    4.28983
     305      444        3     0.00000    2.30525   17.99847    2.36015
     306      444        4     0.00000    3.11235   18.27643    4.80540
     307      444        3     0.00000    1.50076   19.01526    3.03884
     308      444        3     0.00000    2.77366   16.55283    0.46877
     309      444        4     0.00000    2.53666   16.15488    6.57835
     310      444        4     0.00000    1.13958   17.93550    0.53401
     311      444        1     0.00000    5.29881   14.83044    7.41731
     312      444        2     0.00000    0.32467   22.21297   12.54539
     313      444        2     0.00000    1.38554   22.09420   10.66890
     314      444        3     0.00000    2.22588   12.11617   13.72830
     315      444        3     0.00000    3.22290   12.32999   11.54332
     316      444        3     0.00000    4.04076   13.30402   12.08868
     317      444        4     0.00000    4.78369   13.89796   11.44545
     318      444        4     0.00000    4.23075   12.35376    9.76683
     319      444        5     0.00000    4.04139   13.66038   13.38648
     320      444        5     0.00000    3.41340   11.96176   10.27673
     321      444        3     0.00000    2.23583   23.61467   12.38795
     322      444        4     0.00000    2.87171   23.06823    9.92639
     323      444        3     0.00000    1.27996   22.56933   11.86032
     324      444        3     0.00000    3.15702   13.05457    7.11449
     325      444        4     0.00000    3.18939   13.32779    8.16337
     326      444        4     0.00000    1.49012   23.51963    7.34781
     327      444        2     0.00000    5.90998   15.93989   13.06238
     328      444        2     0.00000    6.97348   16.32002    7.83006
     329      444        3     0.00000    7.31940   18.07804   11.70927
     330      444        3     0.00000    8.73043   18.24671   13.65597
     331      444        3     0.00000    9.51474   19.18870   12.93473
     332      444        4     0.00000   10.42066   19.59730   13.37797
     333      444        4     0.00000    9.77899   18.57338    8.28393
     334      444        5     0.00000    9.16481   19.63176   11.72771
     335      444        5     0.00000    9.04399   18.00082    7.83573
     336      444        3     0.00000    7.61946   17.63733   12.99785
     337      444        4     0.00000    8.42309   17.35937    8.35130
     338      444        3     0.00000    6.81493   16.62054   13.67653
     339      444        3     0.00000    8.08784   19.08297   11.10647
     340      444        4     0.00000    7.84740   19.48092   10.12425
     341      444        4     0.00000    6.45376   17.70030   11.17171
     342      444        1     0.00000   10.60955   20.80536   10.96321
     343      444        2     0.00000    5.63195   13.42283    8.99949
     344      444        2     0.00000    6.69282   13.54160    7.12300
     345      444        3     0.00000    7.53313   23.51963   10.18241
     346      444        3     0.00000    8.53017   23.30581    7.99742
     347      444        3     0.00000    9.34800   22.33178    8.54278
     348      444        4     0.00000   10.09097   21.73784    7.89956
     349      444        4     0.00000    9.54146   23.28204   13.31273
     350      444        5     0.00000    9.34864   21.97542    9.84058
     351      444        5     0.00000    8.72414   23.67404   13.82263
     352      444        3     0.00000    7.54311   12.02113    8.84206
     353      444        4     0.00000    8.18245   12.56757   13.47229
     354      444        3     0.00000    6.58723   13.06647    8.31443
     355      444        3     0.00000    8.46777   22.58123   10.66039
     356      444        4     0.00000    8.50013   22.30801   11.70927
     357      444        4     0.00000    6.80083   12.11617   10.89371
     358      444        2     0.00000    0.59927   19.69591    9.51649
     359      444        2     0.00000    1.66620   19.31578   11.37596
     360      444        3     0.00000    2.00866   17.55776    8.16337
     361      444        3     0.00000    3.41969   17.38909   10.11007
     362      444        3     0.00000    4.20400   16.44710    9.38883
     363      444        4     0.00000    5.10995   16.03850    9.83207
     364      444        4     0.00000    4.47171   17.06242   11.82983
     365      444        5     0.00000    3.85410   16.00404    8.18181
     366      444        5     0.00000    3.73672   17.63498   11.38163
     367      444        3     0.00000    2.30871   17.99847    9.45195
     368      444        4     0.00000    3.11582   18.27643   11.89720
     369      444        3     0.00000    1.50422   19.01526   10.13064
     370      444        3     0.00000    2.77713   16.55283    7.56057
     371      444        4     0.00000    2.54012   16.15488   13.67015
     372      444        4     0.00000    1.14305   17.93550    7.62581
     373      444        1     0.00000    5.30228   14.83044   14.50911
     374      444        2     0.00000    0.32814   22.21297   19.63719
     375      444        2     0.00000    1.38901   22.09420   17.76070
     376      444        3     0.00000    2.22935   12.11617   20.82010
     377      444        3     0.00000    3.22636   12.32999   18.63512
     378      444        3     0.00000    4.04422   13.30402   19.18048