Created on Tue Nov 29 02:57:33 2016 

        3600 atoms
        4380 bonds
        9120 angles
        9720 dihedrals
        5400 impropers

           7 atom types
          14 bond types
          44 angle types
           5 dihedral types
           1 improper types
           0.000000  27.836500 xlo xhi
           0.000000  35.464199 ylo yhi
           0.000000  44.779061 zlo zhi
           0.000000   0.000000  -8.182953 xy xz yz

Masses

    1    40.078000000 # Ca6+2
    2     1.007940000 # H_
    3    12.010700000 # C_R
    4    32.065000000 # S_3+6
    5    15.999400000 # O_3_z
    6    15.999400000 # O_R
    7    15.999400000 # O_2

Bond Coeffs

    1      160.511910        2.461632  # Ca6+2 O_3_z
    2       34.840297        3.904632  # Ca6+2 Ca6+2
    3      133.916156        2.435451  # Ca6+2 O_R
    4      133.916156        2.295953  # Ca6+2 O_R
    5      133.916156        2.295477  # Ca6+2 O_R
    6      133.916156        2.356809  # Ca6+2 O_R
    7      133.916156        2.372749  # Ca6+2 O_R
    8      357.440381        1.081418  # H_ C_R
    9      391.669513        1.458000  # C_R C_R
   10      646.680887        1.311940  # C_R O_R
   11      462.655054        1.379256  # C_R C_R
   12      320.755144        1.749010  # C_R S_3+6
   13      554.219568        1.550135  # S_3+6 O_3_z
   14      454.920199        1.655586  # S_3+6 O_2

Angle Coeffs

    1                      fourier        2.320055        0.525901        0.709363        0.341967 # O_3_z Ca6+2 Ca6+2
    2                      fourier        6.370589       98.600764      131.633403       33.033588 # O_R Ca6+2 O_R
    3                      fourier       33.864146        0.271718       -0.172614        0.257239 # O_3_z Ca6+2 O_R
    4                      fourier       20.310288        1.645937       -2.307704        0.715312 # Ca6+2 Ca6+2 O_R
    5                      fourier        1.828759        2.036759        2.838647        0.845586 # Ca6+2 Ca6+2 O_R
    6                      fourier       14.416470        0.316185        0.309893        0.272062 # O_R Ca6+2 O_R
    7                      fourier       28.128653        0.250467       -0.024950        0.250156 # O_R Ca6+2 O_R
    8                      fourier       24.558161        0.257300        0.099138        0.252433 # O_R Ca6+2 O_R
    9                      fourier       24.133889        0.250027        0.005982        0.250009 # O_3_z Ca6+2 O_R
   10                      fourier        5.264172        8.469888       11.448938        2.989963 # O_3_z Ca6+2 O_R
   11                      fourier        6.605463       18.870418       25.322289        6.456806 # O_R Ca6+2 O_R
   12                      fourier       14.940016        0.331886        0.347997        0.277295 # O_R Ca6+2 O_R
   13                      fourier       23.148865        0.251658        0.047075        0.250553 # O_R Ca6+2 O_R
   14                      fourier        3.443879        0.307680        0.287787        0.269227 # Ca6+2 Ca6+2 O_R
   15                      fourier        7.249142        0.304360       -0.278808        0.268120 # Ca6+2 Ca6+2 O_R
   16                      fourier       43.142656        0.306064       -0.283444        0.268688 # O_R Ca6+2 O_R
   17                      fourier       24.114539        0.250559       -0.027317        0.250186 # O_3_z Ca6+2 O_R
   18                      fourier       30.694282        0.264201       -0.138900        0.254734 # O_R Ca6+2 O_R
   19                      fourier       34.994602        0.262453       -0.129921        0.254151 # O_R Ca6+2 O_R
   20                      fourier       24.299360        0.251199       -0.040016        0.250400 # O_3_z Ca6+2 O_R
   21                      fourier        6.308662        0.264696       -0.141346        0.254899 # Ca6+2 Ca6+2 O_R
   22                      fourier        1.915616        0.884891        1.250248        0.461630 # Ca6+2 Ca6+2 O_3_z
   23                      fourier       22.230449        1.760852       -2.464255        0.753617 # Ca6+2 Ca6+2 O_R
   24                      fourier        8.507542        0.338732       -0.363739        0.279577 # Ca6+2 Ca6+2 O_R
   25                      fourier       16.529109        0.891687       -1.260001        0.463896 # Ca6+2 Ca6+2 O_R
   26                      fourier        1.922203        1.532404        2.152565        0.677468 # Ca6+2 Ca6+2 O_R
   27                      fourier        3.289640        0.320937        0.321759        0.273646 # Ca6+2 Ca6+2 O_R
   28              cosine/periodic      217.450257              -1               3 # O_R C_R O_R
   29              cosine/periodic      137.761490              -1               3 # C_R C_R O_R
   30              cosine/periodic       87.834471              -1               3 # C_R C_R S_3+6
   31              cosine/periodic      117.010657              -1               3 # C_R C_R C_R
   32              cosine/periodic       76.817955              -1               3 # H_ C_R C_R
   33              cosine/periodic      101.626578              -1               3 # C_R C_R C_R
   34                      fourier       62.516847        0.343737        0.374972        0.281246 # C_R S_3+6 O_2
   35                      fourier      101.580747        0.343737        0.374972        0.281246 # O_3_z S_3+6 O_2
   36                      fourier       45.421306        0.343737        0.374972        0.281246 # C_R S_3+6 C_R
   37                      fourier       72.983808        0.343737        0.374972        0.281246 # O_3_z S_3+6 C_R
   38                      fourier       18.967259        1.898490        2.651251        0.799497 # Ca6+2 O_3_z S_3+6
   39              cosine/periodic       11.454959              -1               3 # Ca6+2 O_R Ca6+2
   40              cosine/periodic       33.152507              -1               3 # Ca6+2 O_R C_R
   41              cosine/periodic       36.256407              -1               3 # Ca6+2 O_R C_R
   42              cosine/periodic       40.537934              -1               3 # Ca6+2 O_R C_R
   43              cosine/periodic       40.566298              -1               3 # Ca6+2 O_R C_R
   44              cosine/periodic       37.099428              -1               3 # Ca6+2 O_R C_R

Dihedral Coeffs

    1        0.555556              -1               2 # O_R C_R C_R C_R
    2        2.245703              -1               2 # C_R C_R O_R Ca6+2
    3        1.497136              -1               2 # O_R C_R O_R Ca6+2
    4        0.329404               1               2 # C_R C_R S_3+6 O_3_z
    5        0.230489               1               2 # C_R S_3+6 O_3_z Ca6+2

Improper Coeffs

    1        2.000000        1.000000       -1.000000        0.000000               0 # O_R C_R C_R O_R

Pair Coeffs

    1        0.238000        3.028165 # Ca6+2 Ca6+2
    2        0.044000        2.571134 # H_ H_
    3        0.105000        3.430851 # C_R C_R
    4        0.274000        3.594776 # S_3+6 S_3+6
    5        0.060000        3.118146 # O_3_z O_3_z
    6        0.060000        3.118146 # O_R O_R
    7        0.060000        3.118146 # O_2 O_2

Atoms

       1      444        1     1.59378    4.20804    4.57050   16.18472
       2      444        1     1.59378    1.42439    7.02439   17.39958
       3      444        1     1.59378    1.35926    3.15943    6.20481
       4      444        1     1.59378    4.14291    0.70554    4.98995
       5      444        2     0.09973    1.11123   -0.23295   13.85688
       6      444        2     0.11530    0.69536    1.07865    9.09239
       7      444        2     0.09828    3.08484    2.77414   12.02766
       8      444        2     0.10222    3.13049    1.25194   15.06592
       9      444        2     0.08618    2.66284   -0.77068   16.11375
      10      444        2     0.10792    0.66028   -2.21865   14.98083
      11      444        2     0.09970    1.15020    1.17442   11.36940
      12      444        2     0.09427    2.62387    2.62750    9.75736
      13      444        2     0.09973    3.89488    0.00644   19.72742
      14      444        2     0.11530    3.47901    2.78631    2.10238
      15      444        2     0.09828    0.30119   -3.00065   21.55664
      16      444        2     0.10222    0.34684   -1.47845   18.51838
      17      444        2     0.08618    5.44649    0.54417   17.47055
      18      444        2     0.10792    3.44393    1.99213   18.60346
      19      444        2     0.09970    3.93385   -1.40093   22.21489
      20      444        2     0.09427    5.40752    1.23746    1.43741
      21      444        2     0.09973    4.45607    7.96288    8.53265
      22      444        2     0.11530    4.87194    6.65127   13.29714
      23      444        2     0.09828    2.48246    4.95578   10.36187
      24      444        2     0.10222    2.43681    6.47799    7.32362
      25      444        2     0.08618    2.90446    8.50060    6.27579
      26      444        2     0.10792    4.90702    9.94857    7.40870
      27      444        2     0.09970    4.41710    6.55551   11.02013
      28      444        2     0.09427    2.94343    5.10242   12.63217
      29      444        2     0.09973    1.67242    7.72349    2.66212
      30      444        2     0.11530    2.08829    4.94361   20.28715
      31      444        2     0.09828    5.26611   10.73058    0.83289
      32      444        2     0.10222    5.22046    9.20837    3.87115
      33      444        2     0.08618    0.12081    7.18576    4.91898
      34      444        2     0.10792    2.12337    5.73779    3.78607
      35      444        2     0.09970    1.63345    9.13085    0.17464
      36      444        2     0.09427    0.15978    6.49246   20.95212
      37      444        3     0.77032    4.12760   -2.95312   16.45384
      38      444        3     0.75388    4.11590    1.86018    7.72282
      39      444        3    -0.21254    4.95935    2.02326   11.89690
      40      444        3    -0.22685    4.95267    0.69502   14.37833
      41      444        3    -0.03505    0.31567   -0.33732   14.32840
      42      444        3    -0.05124    0.06347    1.42607    9.67855
      43      444        3    -0.11126    4.41320    1.88122    9.19516
      44      444        3    -0.03003    3.72285    2.44287   11.43657
      45      444        3    -0.01671    3.74568    0.55490   15.04353
      46      444        3    -0.04927    3.47622   -0.65162   15.67827
      47      444        3    -0.05858    0.03953   -1.52654   14.99203
      48      444        3    -0.03749    0.33961    1.48833   11.03916
      49      444        3    -0.10844    4.40763   -1.68378   15.67133
      50      444        3    -0.03656    3.45395    2.36001   10.07999
      51      444        3     0.77032    1.34395    2.72660   17.13045
      52      444        3     0.75388    1.33225    2.00478    3.47194
      53      444        3    -0.21254    2.17570   -2.24977   21.68739
      54      444        3    -0.22685    2.16902   -0.92153   19.20596
      55      444        3    -0.03505    3.09932    0.11081   19.25589
      56      444        3    -0.05124    2.84712    2.43889    1.51622
      57      444        3    -0.11126    1.62955    1.98374    1.99961
      58      444        3    -0.03003    0.93920   -2.66939   22.14772
      59      444        3    -0.01671    0.96203   -0.78141   18.54077
      60      444        3    -0.04927    0.69257    0.42510   17.90603
      61      444        3    -0.05858    2.82318    1.30003   18.59227
      62      444        3    -0.03749    3.12326    2.37663    0.15561
      63      444        3    -0.10844    1.62398    1.45726   17.91297
      64      444        3    -0.03656    0.67030    1.50495    1.11477
      65      444        3     0.77032    1.43970   10.68304    5.93569
      66      444        3     0.75388    1.45140    5.86974   14.66671
      67      444        3    -0.21254    0.60795    5.70666   10.49263
      68      444        3    -0.22685    0.61463    7.03491    8.01120
      69      444        3    -0.03505    5.25163    8.06725    8.06113
      70      444        3    -0.05124    5.50383    6.30385   12.71098
      71      444        3    -0.11126    1.15410    5.84870   13.19437
      72      444        3    -0.03003    1.84445    5.28705   10.95296
      73      444        3    -0.01671    1.82162    7.17502    7.34600
      74      444        3    -0.04927    2.09108    8.38154    6.71126
      75      444        3    -0.05858    5.52777    9.25646    7.39750
      76      444        3    -0.03749    5.22769    6.24159   11.35037
      77      444        3    -0.10844    1.15967    9.41370    6.71820
      78      444        3    -0.03656    2.11335    5.36991   12.30954
      79      444        3     0.77032    4.22335    5.00332    5.25908
      80      444        3     0.75388    4.23505    5.72514   18.91759
      81      444        3    -0.21254    3.39160    9.97970    0.70214
      82      444        3    -0.22685    3.39828    8.65146    3.18357
      83      444        3    -0.03505    2.46798    7.61911    3.13364
      84      444        3    -0.05124    2.72018    5.29103   20.87331
      85      444        3    -0.11126    3.93775    5.74618   20.38992
      86      444        3    -0.03003    4.62810   10.39931    0.24181
      87      444        3    -0.01671    4.60527    8.51134    3.84876
      88      444        3    -0.04927    4.87473    7.30482    4.48350
      89      444        3    -0.05858    2.74412    6.42990    3.79726
      90      444        3    -0.03749    2.44404    5.35330   22.23392
      91      444        3    -0.10844    3.94332    6.27266    4.47656
      92      444        3    -0.03656    4.89700    6.22497   21.27476
      93      444        4     1.15283    5.36482    2.22275   13.60567
      94      444        4     1.15283    2.58117   -2.44926   19.97863
      95      444        4     1.15283    0.20248    5.50718    8.78386
      96      444        4     1.15283    2.98613   10.17918    2.41090
      97      444        5    -0.62385    4.48168    3.24757   14.12690
      98      444        6    -0.78401    5.09519    1.83454    6.92643
      99      444        7    -0.53238    1.21868    2.40690   13.69702
     100      444        6    -0.73547    2.92673    8.59182   16.65288
     101      444        6    -0.71361    5.11691    8.23222   16.85596
     102      444        6    -0.71106    2.92339    1.81986    7.35093
     103      444        5    -0.62385    1.69803   -3.47409   19.45740
     104      444        6    -0.78401    2.31154    2.03042    4.26834
     105      444        7    -0.53238    4.00233   -2.63341   19.88728
     106      444        6    -0.73547    0.14308    3.00307   16.93141
     107      444        6    -0.71361    2.33326    3.36266   16.72834
     108      444        6    -0.71106    0.13974    2.04511    3.84383
     109      444        5    -0.62385    1.08562    4.48235    8.26263
     110      444        6    -0.78401    0.47211    5.89538   15.46311
     111      444        7    -0.53238    4.34862    5.32302    8.69251
     112      444        6    -0.73547    2.64057   -0.86189    5.73665
     113      444        6    -0.71361    0.45039   -0.50230    5.53357
     114      444        6    -0.71106    2.64391    5.91007   15.03860
     115      444        5    -0.62385    3.86927   11.20401    2.93213
     116      444        6    -0.78401    3.25576    5.69950   18.12119
     117      444        7    -0.53238    1.56497   10.36334    2.50225
     118      444        6    -0.73547    5.42422    4.72686    5.45812
     119      444        6    -0.71361    3.23404    4.36726    5.66119
     120      444        6    -0.71106    5.42756    5.68482   18.54570
     121      444        1     1.59378    4.20804    0.47902   38.57425
     122      444        1     1.59378    1.42439    2.93291   39.78911
     123      444        1     1.59378    1.35926   -0.93205   28.59434
     124      444        1     1.59378    4.14291   -3.38594   27.37949
     125      444        2     0.09973    1.11123   -4.32443   36.24641
     126      444        2     0.11530    0.69536   -3.01282   31.48192
     127      444        2     0.09828    3.08484   -1.31734   34.41719
     128      444        2     0.10222    3.13049   -2.83954   37.45545
     129      444        2     0.08618    2.66284   -4.86216   38.50328
     130      444        2     0.10792    0.66028   -6.31012   37.37037
     131      444        2     0.09970    1.15020   -2.91706   33.75893
     132      444        2     0.09427    2.62387   -1.46398   32.14689
     133      444        2     0.09973    3.89488   -4.08504   42.11695
     134      444        2     0.11530    3.47901   -1.30517   24.49191
     135      444        2     0.09828    0.30119   -7.09213   43.94617
     136      444        2     0.10222    0.34684   -5.56993   40.90791
     137      444        2     0.08618    5.44649   -3.54731   39.86008
     138      444        2     0.10792    3.44393   -2.09934   40.99299
     139      444        2     0.09970    3.93385   -5.49241   44.60442
     140      444        2     0.09427    5.40752   -2.85401   23.82694
     141      444        2     0.09973    4.45607    3.87140   30.92218
     142      444        2     0.11530    4.87194    2.55979   35.68667
     143      444        2     0.09828    2.48246    0.86431   32.75141
     144      444        2     0.10222    2.43681    2.38651   29.71315
     145      444        2     0.08618    2.90446    4.40913   28.66532
     146      444        2     0.10792    4.90702    5.85709   29.79823
     147      444        2     0.09970    4.41710    2.46403   33.40966
     148      444        2     0.09427    2.94343    1.01095   35.02170
     149      444        2     0.09973    1.67242    3.63201   25.05165
     150      444        2     0.11530    2.08829    0.85214   42.67668
     151      444        2     0.09828    5.26611    6.63910   23.22242
     152      444        2     0.10222    5.22046    5.11690   26.26068
     153      444        2     0.08618    0.12081    3.09428   27.30851
     154      444        2     0.10792    2.12337    1.64631   26.17560
     155      444        2     0.09970    1.63345    5.03938   22.56417
     156      444        2     0.09427    0.15978    2.40098   43.34165
     157      444        3     0.77032    4.12760   -7.04459   38.84337
     158      444        3     0.75388    4.11590   -2.23130   30.11235
     159      444        3    -0.21254    4.95935   -2.06822   34.28643
     160      444        3    -0.22685    4.95267   -3.39646   36.76786
     161      444        3    -0.03505    0.31567   -4.42880   36.71793
     162      444        3    -0.05124    0.06347   -2.66541   32.06808
     163      444        3    -0.11126    4.41320   -2.21025   31.58469
     164      444        3    -0.03003    3.72285   -1.64861   33.82610
     165      444        3    -0.01671    3.74568   -3.53658   37.43306
     166      444        3    -0.04927    3.47622   -4.74309   38.06780
     167      444        3    -0.05858    0.03953   -5.61802   37.38156
     168      444        3    -0.03749    0.33961   -2.60314   33.42869
     169      444        3    -0.10844    4.40763   -5.77525   38.06086
     170      444        3    -0.03656    3.45395   -1.73147   32.46952
     171      444        3     0.77032    1.34395   -1.36488   39.51998
     172      444        3     0.75388    1.33225   -2.08670   25.86147
     173      444        3    -0.21254    2.17570   -6.34125   44.07693
     174      444        3    -0.22685    2.16902   -5.01301   41.59549
     175      444        3    -0.03505    3.09932   -3.98067   41.64542
     176      444        3    -0.05124    2.84712   -1.65258   23.90575
     177      444        3    -0.11126    1.62955   -2.10774   24.38914
     178      444        3    -0.03003    0.93920   -6.76086   44.53725
     179      444        3    -0.01671    0.96203   -4.87289   40.93030
     180      444        3    -0.04927    0.69257   -3.66637   40.29556
     181      444        3    -0.05858    2.82318   -2.79145   40.98180
     182      444        3    -0.03749    3.12326   -1.71485   22.54514
     183      444        3    -0.10844    1.62398   -2.63422   40.30250
     184      444        3    -0.03656    0.67030   -2.58653   23.50431
     185      444        3     0.77032    1.43970    6.59156   28.32522
     186      444        3     0.75388    1.45140    1.77827   37.05624
     187      444        3    -0.21254    0.60795    1.61519   32.88216
     188      444        3    -0.22685    0.61463    2.94343   30.40073
     189      444        3    -0.03505    5.25163    3.97577   30.45066
     190      444        3    -0.05124    5.50383    2.21238   35.10051
     191      444        3    -0.11126    1.15410    1.75722   35.58390
     192      444        3    -0.03003    1.84445    1.19558   33.34249
     193      444        3    -0.01671    1.82162    3.08355   29.73554
     194      444        3    -0.04927    2.09108    4.29006   29.10079
     195      444        3    -0.05858    5.52777    5.16499   29.78703
     196      444        3    -0.03749    5.22769    2.15011   33.73990
     197      444        3    -0.10844    1.15967    5.32222   29.10773
     198      444        3    -0.03656    2.11335    1.27844   34.69907
     199      444        3     0.77032    4.22335    0.91185   27.64861
     200      444        3     0.75388    4.23505    1.63367   41.30712
     201      444        3    -0.21254    3.39160    5.88822   23.09167
     202      444        3    -0.22685    3.39828    4.55998   25.57310
     203      444        3    -0.03505    2.46798    3.52764   25.52317
     204      444        3    -0.05124    2.72018    1.19955   43.26284
     205      444        3    -0.11126    3.93775    1.65471   42.77945
     206      444        3    -0.03003    4.62810    6.30783   22.63134
     207      444        3    -0.01671    4.60527    4.41986   26.23829
     208      444        3    -0.04927    4.87473    3.21334   26.87303
     209      444        3    -0.05858    2.74412    2.33842   26.18679
     210      444        3    -0.03749    2.44404    1.26182   44.62345
     211      444        3    -0.10844    3.94332    2.18119   26.86609
     212      444        3    -0.03656    4.89700    2.13350   43.66429
     213      444        4     1.15283    5.36482   -1.86873   35.99520
     214      444        4     1.15283    2.58117   -6.54074   42.36816
     215      444        4     1.15283    0.20248    1.41570   31.17339
     216      444        4     1.15283    2.98613    6.08771   24.80044
     217      444        5    -0.62385    4.48168   -0.84390   36.51643
     218      444        6    -0.78401    5.09519   -2.25694   29.31596
     219      444        7    -0.53238    1.21868   -1.68458   36.08655
     220      444        6    -0.73547    2.92673    4.50034   39.04242
     221      444        6    -0.71361    5.11691    4.14074   39.24549
     222      444        6    -0.71106    2.92339   -2.27162   29.74046
     223      444        5    -0.62385    1.69803   -7.56557   41.84693
     224      444        6    -0.78401    2.31154   -2.06106   26.65787
     225      444        7    -0.53238    4.00233   -6.72489   42.27681
     226      444        6    -0.73547    0.14308   -1.08841   39.32094
     227      444        6    -0.71361    2.33326   -0.72881   39.11787
     228      444        6    -0.71106    0.13974   -2.04637   26.23337
     229      444        5    -0.62385    1.08562    0.39087   30.65216
     230      444        6    -0.78401    0.47211    1.80391   37.85264
     231      444        7    -0.53238    4.34862    1.23155   31.08204
     232      444        6    -0.73547    2.64057   -4.95337   28.12618
     233      444        6    -0.71361    0.45039   -4.59377   27.92310
     234      444        6    -0.71106    2.64391    1.81859   37.42813
     235      444        5    -0.62385    3.86927    7.11254   25.32166
     236      444        6    -0.78401    3.25576    1.60803   40.51072
     237      444        7    -0.53238    1.56497    6.27186   24.89178
     238      444        6    -0.73547    5.42422    0.63538   27.84765
     239      444        6    -0.71361    3.23404    0.27578   28.05072
     240      444        6    -0.71106    5.42756    1.59334   40.93523
     241      444        1     1.59378    4.20804   16.39190   16.18472
     242      444        1     1.59378    1.42439   18.84579   17.39958
     243      444        1     1.59378    1.35926   14.98082    6.20481
     244      444        1     1.59378    4.14291   12.52694    4.98995
     245      444        2     0.09973    1.11123   11.58845   13.85688
     246      444        2     0.11530    0.69536   12.90005    9.09239
     247      444        2     0.09828    3.08484   14.59554   12.02766
     248      444        2     0.10222    3.13049   13.07334   15.06592
     249      444        2     0.08618    2.66284   11.05072   16.11375
     250      444        2     0.10792    0.66028    9.60275   14.98083
     251      444        2     0.09970    1.15020   12.99582   11.36940
     252      444        2     0.09427    2.62387   14.44890    9.75736
     253      444        2     0.09973    3.89488   11.82784   19.72742
     254      444        2     0.11530    3.47901   14.60771    2.10238
     255      444        2     0.09828    0.30119    8.82075   21.55664
     256      444        2     0.10222    0.34684   10.34295   18.51838
     257      444        2     0.08618    5.44649   12.36557   17.47055
     258      444        2     0.10792    3.44393   13.81353   18.60346
     259      444        2     0.09970    3.93385   10.42047   22.21489
     260      444        2     0.09427    5.40752   13.05886    1.43741
     261      444        2     0.09973    4.45607   19.78428    8.53265
     262      444        2     0.11530    4.87194   18.47267   13.29714
     263      444        2     0.09828    2.48246   16.77718   10.36187
     264      444        2     0.10222    2.43681   18.29939    7.32362
     265      444        2     0.08618    2.90446   20.32200    6.27579
     266      444        2     0.10792    4.90702   21.76997    7.40870
     267      444        2     0.09970    4.41710   18.37691   11.02013
     268      444        2     0.09427    2.94343   16.92382   12.63217
     269      444        2     0.09973    1.67242   19.54489    2.66212
     270      444        2     0.11530    2.08829   16.76501   20.28715
     271      444        2     0.09828    5.26611   22.55198    0.83289
     272      444        2     0.10222    5.22046   21.02977    3.87115
     273      444        2     0.08618    0.12081   19.00716    4.91898
     274      444        2     0.10792    2.12337   17.55919    3.78607
     275      444        2     0.09970    1.63345   20.95225    0.17464
     276      444        2     0.09427    0.15978   18.31386   20.95212
     277      444        3     0.77032    4.12760    8.86828   16.45384
     278      444        3     0.75388    4.11590   13.68158    7.72282
     279      444        3    -0.21254    4.95935   13.84466   11.89690
     280      444        3    -0.22685    4.95267   12.51642   14.37833
     281      444        3    -0.03505    0.31567   11.48408   14.32840
     282      444        3    -0.05124    0.06347   13.24747    9.67855
     283      444        3    -0.11126    4.41320   13.70262    9.19516
     284      444        3    -0.03003    3.72285   14.26427   11.43657
     285      444        3    -0.01671    3.74568   12.37630   15.04353
     286      444        3    -0.04927    3.47622   11.16978   15.67827
     287      444        3    -0.05858    0.03953   10.29486   14.99203
     288      444        3    -0.03749    0.33961   13.30973   11.03916
     289      444        3    -0.10844    4.40763   10.13762   15.67133
     290      444        3    -0.03656    3.45395   14.18141   10.07999
     291      444        3     0.77032    1.34395   14.54800   17.13045
     292      444        3     0.75388    1.33225   13.82618    3.47194
     293      444        3    -0.21254    2.17570    9.57163   21.68739
     294      444        3    -0.22685    2.16902   10.89987   19.20596
     295      444        3    -0.03505    3.09932   11.93221   19.25589
     296      444        3    -0.05124    2.84712   14.26029    1.51622
     297      444        3    -0.11126    1.62955   13.80514    1.99961
     298      444        3    -0.03003    0.93920    9.15201   22.14772
     299      444        3    -0.01671    0.96203   11.03998   18.54077
     300      444        3    -0.04927    0.69257   12.24650   17.90603
     301      444        3    -0.05858    2.82318   13.12143   18.59227
     302      444        3    -0.03749    3.12326   14.19803    0.15561
     303      444        3    -0.10844    1.62398   13.27866   17.91297
     304      444        3    -0.03656    0.67030   13.32635    1.11477
     305      444        3     0.77032    1.43970   22.50444    5.93569
     306      444        3     0.75388    1.45140   17.69114   14.66671
     307      444        3    -0.21254    0.60795   17.52806   10.49263
     308      444        3    -0.22685    0.61463   18.85631    8.01120
     309      444        3    -0.03505    5.25163   19.88865    8.06113
     310      444        3    -0.05124    5.50383   18.12525   12.71098
     311      444        3    -0.11126    1.15410   17.67010   13.19437
     312      444        3    -0.03003    1.84445   17.10845   10.95296
     313      444        3    -0.01671    1.82162   18.99642    7.34600
     314      444        3    -0.04927    2.09108   20.20294    6.71126
     315      444        3    -0.05858    5.52777   21.07786    7.39750
     316      444        3    -0.03749    5.22769   18.06299   11.35037