
     Program PWSCF v.6.4.1 starts on 29Apr2020 at  8:22:56 

     This program is part of the open-source Quantum ESPRESSO suite
     for quantum simulation of materials; please cite
         "P. Giannozzi et al., J. Phys.:Condens. Matter 21 395502 (2009);
         "P. Giannozzi et al., J. Phys.:Condens. Matter 29 465901 (2017);
          URL http://www.quantum-espresso.org", 
     in publications or presentations arising from this work. More details at
     http://www.quantum-espresso.org/quote

     Parallel version (MPI & OpenMP), running on     128 processor cores
     Number of MPI processes:               128
     Threads/MPI process:                     1

     MPI processes distributed on     2 nodes
     K-points division:     npool     =       2
     R & G space division:  proc/nbgrp/npool/nimage =      64
     Reading input from nipyc_from_cif_no-vol.inp
Warning: card &CELL ignored
Warning: card    CELL_DYNAMICS='BFGS' ignored
Warning: card    CELL_DOFREE='XYZ' ignored
Warning: card / ignored

     Current dimensions of program PWSCF are:
     Max number of different atomic species (ntypx) = 10
     Max number of k-points (npk) =  40000
     Max angular momentum in pseudopotentials (lmaxx) =  3

     -------------------------------------------------
     Parameters for Dispersion (Grimme-D2) Correction:
     -------------------------------------------------
       atom      VdW radius       C_6     

        Ni1        2.952        374.666
        Ni2        2.952        374.666
        H          1.892          4.857
        O          2.536         24.284
        N          2.640         42.670
        C          2.744         60.710

     gamma-point specific algorithms are used

     Subspace diagonalization in iterative solution of the eigenvalue problem:
     one sub-group per band group will be used
     scalapack distributed-memory algorithm (size of sub-group:  5*  5 procs)

 
     Parallelization info
     --------------------
     sticks:   dense  smooth     PW     G-vecs:    dense   smooth      PW
     Min         138     138     34                11454    11454    1426
     Max         140     140     36                11468    11468    1444
     Sum        8917    8917   2219               733525   733525   91637
 

     Title: 
     nipyc_from_cif_no-vol                                                      


     bravais-lattice index     =            0
     lattice parameter (alat)  =      11.8161  a.u.
     unit-cell volume          =    5429.3119 (a.u.)^3
     number of atoms/cell      =           54
     number of atomic types    =            6
     number of electrons       =       200.00 (up: 102.00, down:  98.00)
     number of Kohn-Sham states=          122
     kinetic-energy cutoff     =     100.0000  Ry
     charge density cutoff     =     400.0000  Ry
     convergence threshold     =      1.0E-06
     mixing beta               =       0.7000
     number of iterations used =            8  local-TF  mixing
     Exchange-correlation      = PBESOL ( 1  4 10  8 0 0)
     nstep                     =          200


     celldm(1)=  11.816080  celldm(2)=   0.000000  celldm(3)=   0.000000
     celldm(4)=   0.000000  celldm(5)=   0.000000  celldm(6)=   0.000000

     crystal axes: (cart. coord. in units of alat)
               a(1) = (   1.000000   0.000000   0.000000 )  
               a(2) = (   0.000000   2.002847   0.000000 )  
               a(3) = (  -0.036399   0.000000   1.643149 )  

     reciprocal axes: (cart. coord. in units 2 pi/alat)
               b(1) = (  1.000000  0.000000  0.022152 )  
               b(2) = (  0.000000  0.499289  0.000000 )  
               b(3) = (  0.000000  0.000000  0.608588 )  


     PseudoPot. # 1 for Ni read from file:
     pseudo/Ni.pbesol-n-nc.UPF
     MD5 check sum: edf8e57b53144cd06b183e33dc393044
     Pseudo is Norm-conserving + core correction, Zval = 10.0
     Generated using "atomic" code by A. Dal Corso v.6.2 svn rev. 13949:13950
     Using radial grid of 1195 points,  2 beta functions with: 
                l(1) =   1
                l(2) =   2

     PseudoPot. # 2 for Ni read from file:
     pseudo/Ni.pbesol-n-nc.UPF
     MD5 check sum: edf8e57b53144cd06b183e33dc393044
     Pseudo is Norm-conserving + core correction, Zval = 10.0
     Generated using "atomic" code by A. Dal Corso v.6.2 svn rev. 13949:13950
     Using radial grid of 1195 points,  2 beta functions with: 
                l(1) =   1
                l(2) =   2

     PseudoPot. # 3 for H  read from file:
     pseudo/H.pbesol-n-nc.UPF
     MD5 check sum: 95e7839de2ad228c76493ec3b5404ce3
     Pseudo is Norm-conserving, Zval =  1.0
     Generated using "atomic" code by A. Dal Corso v.6.2 svn rev. 13949:13950
     Using radial grid of  929 points,  0 beta functions with: 

     PseudoPot. # 4 for O  read from file:
     pseudo/O.pbesol-nc.UPF
     MD5 check sum: 84b06decddbe1da0041c21d855b8c3e0
     Pseudo is Norm-conserving, Zval =  6.0
     Generated using "atomic" code by A. Dal Corso v.6.2 svn rev. 13949:13950
     Using radial grid of 1095 points,  1 beta functions with: 
                l(1) =   1

     PseudoPot. # 5 for N  read from file:
     pseudo/N.pbesol-nc.UPF
     MD5 check sum: cfd375ffefd4cc6291ee4f2a9be5669e
     Pseudo is Norm-conserving, Zval =  5.0
     Generated using "atomic" code by A. Dal Corso v.6.2 svn rev. 13949:13950
     Using radial grid of 1085 points,  1 beta functions with: 
                l(1) =   1

     PseudoPot. # 6 for C  read from file:
     pseudo/C.pbesol-nc.UPF
     MD5 check sum: 8bd801d64030d018287f06c43cd365d7
     Pseudo is Norm-conserving, Zval =  4.0
     Generated using "atomic" code by A. Dal Corso v.6.2 svn rev. 13949:13950
     Using radial grid of 1073 points,  1 beta functions with: 
                l(1) =   1

     atomic species   valence    mass     pseudopotential
        Ni1           10.00    58.69000     Ni( 1.00)
        Ni2           10.00    58.69000     Ni( 1.00)
        H              1.00     1.00000     H ( 1.00)
        O              6.00    16.00000     O ( 1.00)
        N              5.00    65.38000     N ( 1.00)
        C              4.00    65.38000     C ( 1.00)

     Starting magnetic structure 
     atomic species   magnetization
        Ni1          0.250
        Ni2          0.250
        H            0.000
        O            0.000
        N            0.000
        C            0.000

     No symmetry found



   Cartesian axes

     site n.     atom                  positions (alat units)
         1           Ni1 tau(   1) = (   0.4642458   1.5100664   1.3793082  )
         2           Ni2 tau(   2) = (   0.9824452   0.4927804   0.5577339  )
         3           O   tau(   3) = (   0.2269990   0.7002353   0.6455931  )
         4           O   tau(   4) = (   0.7087996   1.3026115   1.4671674  )
         5           O   tau(   5) = (   0.7414252   0.2665388   0.6082936  )
         6           O   tau(   6) = (   0.2232258   1.7363079   1.4298679  )
         7           O   tau(   7) = (   0.9187989   0.7054627   0.8171378  )
         8           O   tau(   8) = (   0.4005996   1.2973841   1.6387121  )
         9           O   tau(   9) = (   0.0492397   0.2399410   0.7791811  )
        10           O   tau(  10) = (   0.5310404   1.7629057   1.6007554  )
        11           N   tau(  11) = (   0.6025592   1.6881995   1.1439601  )
        12           N   tau(  12) = (   0.1207586   0.3146472   0.3223858  )
        13           N   tau(  13) = (   0.3350713   1.2940393   1.1750156  )
        14           N   tau(  14) = (   0.8532706   0.7088075   0.3534413  )
        15           C   tau(  15) = (   0.5691129   1.9213309   0.8435925  )
        16           C   tau(  16) = (   0.0873123   0.0815159   0.0220182  )
        17           H   tau(  17) = (   0.4840353   1.9752075   0.7297223  )
        18           H   tau(  18) = (  -0.0341640   0.0276393   1.5512966  )
        19           C   tau(  19) = (   0.7737740   1.9988411   0.8769484  )
        20           C   tau(  20) = (   0.2919734   0.0040057   0.0553741  )
        21           C   tau(  21) = (   0.8939723   1.9119175   1.0440566  )
        22           C   tau(  22) = (   0.4121716   0.0909292   0.2224823  )
        23           H   tau(  23) = (   0.0365226   1.9583836   1.0688682  )
        24           H   tau(  24) = (   0.5547220   0.0444632   0.2472939  )
        25           C   tau(  25) = (   0.3878955   1.0396778   0.8940372  )
        26           C   tau(  26) = (   0.9060948   0.9631690   0.0724629  )
        27           H   tau(  27) = (   0.4777087   0.9833978   0.7850964  )
        28           H   tau(  28) = (   0.9595093   1.0194490   1.6066707  )
        29           C   tau(  29) = (   0.4576709   1.2081172   1.0215455  )
        30           C   tau(  30) = (   0.9758703   0.7947296   0.1999712  )
        31           H   tau(  31) = (   0.5969732   1.2643972   0.9988700  )
        32           H   tau(  32) = (   0.1151726   0.7384496   0.1772957  )
        33           C   tau(  33) = (   0.4898428   1.7643077   0.9776734  )
        34           C   tau(  34) = (   0.0080421   0.2385391   0.1560991  )
        35           H   tau(  35) = (   0.3510215   1.7084283   0.9515474  )
        36           H   tau(  36) = (   0.8692209   0.2944185   0.1299731  )
        37           C   tau(  37) = (   0.8025222   1.7578986   1.1727152  )
        38           C   tau(  38) = (   0.3207216   0.2449482   0.3511409  )
        39           H   tau(  39) = (   0.8848144   1.6990149   1.2859281  )
        40           H   tau(  40) = (   0.4030137   0.3038319   0.4643538  )
        41           C   tau(  41) = (   0.1377615   1.2107209   1.2070570  )
        42           C   tau(  42) = (   0.6559609   0.7921259   0.3854827  )
        43           H   tau(  43) = (   0.0501556   1.2710066   1.3156691  )
        44           H   tau(  44) = (   0.5683549   0.7318402   0.4940948  )
        45           C   tau(  45) = (   0.0584822   1.0420812   1.0887503  )
        46           C   tau(  46) = (   0.5766816   0.9607656   0.2671760  )
        47           H   tau(  47) = (   0.9198816   0.9864020   1.1158622  )
        48           H   tau(  48) = (   0.4380810   1.0164447   0.2942879  )
        49           C   tau(  49) = (   0.1873493   0.9553579   0.9277217  )
        50           C   tau(  50) = (   0.7055486   1.0474889   0.1061474  )
        51           C   tau(  51) = (   0.8614386   0.1788542   0.7476326  )
        52           C   tau(  52) = (   0.3432392   1.8239926   1.5692069  )
        53           C   tau(  53) = (   0.1044740   0.7734994   0.7911761  )
        54           C   tau(  54) = (   0.5862747   1.2293474   1.6127504  )

     number of k points=     1  Marzari-Vanderbilt smearing, width (Ry)=  0.2000
                       cart. coord. in units 2pi/alat
        k(    1) = (   0.0000000   0.0000000   0.0000000), wk =   1.0000000

     Dense  grid:   366763 G-vectors     FFT dimensions: (  75, 160, 125)

     Estimated max dynamical RAM per process >      23.84 MB

     Estimated total dynamical RAM >       2.98 GB
     Generating pointlists ...
     new r_m :   0.1337 (alat units)  1.5801 (a.u.) for type    1
     new r_m :   0.1337 (alat units)  1.5801 (a.u.) for type    2
     new r_m :   0.0626 (alat units)  0.7399 (a.u.) for type    3
     new r_m :   0.0823 (alat units)  0.9721 (a.u.) for type    4
     new r_m :   0.0882 (alat units)  1.0416 (a.u.) for type    5
     new r_m :   0.0626 (alat units)  0.7399 (a.u.) for type    6

     Check: negative core charge=   -0.000145

     Initial potential from superposition of free atoms

     starting charge  199.99832, renormalised to  200.00000

     negative rho (up, down):  0.000E+00 5.260E-04
     Starting wfcs are  178 randomized atomic wfcs

     total cpu time spent up to now is       16.5 secs

     Self-consistent Calculation

     iteration #  1     ecut=   100.00 Ry     beta= 0.70
     Davidson diagonalization with overlap
     ethr =  1.00E-02,  avg # of iterations =  4.0

     negative rho (up, down):  0.000E+00 5.933E-05

     total cpu time spent up to now is       19.4 secs

     total energy              =    -808.50799848 Ry
     Harris-Foulkes estimate   =    -813.54069941 Ry
     estimated scf accuracy    <      13.16916700 Ry

     total magnetization       =     4.00 Bohr mag/cell
     absolute magnetization    =     4.57 Bohr mag/cell

     iteration #  2     ecut=   100.00 Ry     beta= 0.70
     Davidson diagonalization with overlap
     ethr =  6.58E-03,  avg # of iterations =  2.0

     negative rho (up, down):  1.358E-05 1.073E-04

     total cpu time spent up to now is       21.0 secs

     total energy              =    -810.77811591 Ry
     Harris-Foulkes estimate   =    -813.09985775 Ry
     estimated scf accuracy    <      10.77525574 Ry

     total magnetization       =     4.00 Bohr mag/cell
     absolute magnetization    =     4.10 Bohr mag/cell

     iteration #  3     ecut=   100.00 Ry     beta= 0.70
     Davidson diagonalization with overlap
     ethr =  5.39E-03,  avg # of iterations =  1.0

     negative rho (up, down):  1.051E-04 4.467E-05

     total cpu time spent up to now is       22.4 secs

     total energy              =    -810.33249172 Ry
     Harris-Foulkes estimate   =    -811.13855184 Ry
     estimated scf accuracy    <       2.70562619 Ry

     total magnetization       =     4.00 Bohr mag/cell
     absolute magnetization    =     4.10 Bohr mag/cell

     iteration #  4     ecut=   100.00 Ry     beta= 0.70
     Davidson diagonalization with overlap
     ethr =  1.35E-03,  avg # of iterations =  5.0

     negative rho (up, down):  5.250E-06 9.667E-05

     total cpu time spent up to now is       24.4 secs

     total energy              =    -810.36398739 Ry
     Harris-Foulkes estimate   =    -811.20942867 Ry
     estimated scf accuracy    <       7.22477675 Ry

     total magnetization       =     4.00 Bohr mag/cell
     absolute magnetization    =     4.12 Bohr mag/cell

     iteration #  5     ecut=   100.00 Ry     beta= 0.70
     Davidson diagonalization with overlap
     ethr =  1.35E-03,  avg # of iterations =  3.0

     negative rho (up, down):  0.000E+00 1.140E-04

     total cpu time spent up to now is       26.0 secs

     total energy              =    -810.68157908 Ry
     Harris-Foulkes estimate   =    -810.72628162 Ry
     estimated scf accuracy    <       0.13321883 Ry

     total magnetization       =     4.00 Bohr mag/cell
     absolute magnetization    =     4.13 Bohr mag/cell

     iteration #  6     ecut=   100.00 Ry     beta= 0.70
     Davidson diagonalization with overlap
     ethr =  6.66E-05,  avg # of iterations =  7.0

     negative rho (up, down):  0.000E+00 1.593E-04

     total cpu time spent up to now is       28.3 secs

     total energy              =    -810.69189651 Ry
     Harris-Foulkes estimate   =    -810.73133936 Ry
     estimated scf accuracy    <       0.74240429 Ry

     total magnetization       =     4.00 Bohr mag/cell
     absolute magnetization    =     4.12 Bohr mag/cell

     iteration #  7     ecut=   100.00 Ry     beta= 0.70
     Davidson diagonalization with overlap
     ethr =  6.66E-05,  avg # of iterations =  1.5

     negative rho (up, down):  0.000E+00 4.440E-04

     total cpu time spent up to now is       29.7 secs

     total energy              =    -810.64813851 Ry
     Harris-Foulkes estimate   =    -810.70559431 Ry
     estimated scf accuracy    <       0.41033096 Ry

     total magnetization       =     4.00 Bohr mag/cell
     absolute magnetization    =     4.13 Bohr mag/cell

     iteration #  8     ecut=   100.00 Ry     beta= 0.70
     Davidson diagonalization with overlap
     ethr =  6.66E-05,  avg # of iterations =  2.0

     negative rho (up, down):  0.000E+00 1.406E-03

     total cpu time spent up to now is       31.3 secs

     total energy              =    -810.67580817 Ry
     Harris-Foulkes estimate   =    -810.68514174 Ry
     estimated scf accuracy    <       0.09253780 Ry

     total magnetization       =     4.00 Bohr mag/cell
     absolute magnetization    =     4.13 Bohr mag/cell

     iteration #  9     ecut=   100.00 Ry     beta= 0.70
     Davidson diagonalization with overlap
     ethr =  4.63E-05,  avg # of iterations =  1.5

     negative rho (up, down):  0.000E+00 2.563E-03

     total cpu time spent up to now is       32.7 secs

     total energy              =    -810.68355528 Ry
     Harris-Foulkes estimate   =    -810.68191574 Ry
     estimated scf accuracy    <       0.01061188 Ry

     total magnetization       =     4.00 Bohr mag/cell
     absolute magnetization    =     4.12 Bohr mag/cell

     iteration # 10     ecut=   100.00 Ry     beta= 0.70
     Davidson diagonalization with overlap
     ethr =  5.31E-06,  avg # of iterations =  4.5

     negative rho (up, down):  5.320E-05 3.109E-03

     total cpu time spent up to now is       34.6 secs

     total energy              =    -810.68280554 Ry
     Harris-Foulkes estimate   =    -810.68532655 Ry
     estimated scf accuracy    <       0.03756739 Ry

     total magnetization       =     4.00 Bohr mag/cell
     absolute magnetization    =     4.10 Bohr mag/cell

     iteration # 11     ecut=   100.00 Ry     beta= 0.70
     Davidson diagonalization with overlap
     ethr =  5.31E-06,  avg # of iterations =  2.5

     negative rho (up, down):  2.294E-04 3.180E-03

     total cpu time spent up to now is       36.2 secs

     total energy              =    -810.68513264 Ry
     Harris-Foulkes estimate   =    -810.68465377 Ry
     estimated scf accuracy    <       0.00137075 Ry

     total magnetization       =     4.00 Bohr mag/cell
     absolute magnetization    =     4.10 Bohr mag/cell

     iteration # 12     ecut=   100.00 Ry     beta= 0.70
     Davidson diagonalization with overlap
     ethr =  6.85E-07,  avg # of iterations =  3.5

     negative rho (up, down):  1.728E-06 3.066E-03

     total cpu time spent up to now is       37.9 secs

     total energy              =    -810.68560706 Ry
     Harris-Foulkes estimate   =    -810.68521761 Ry
     estimated scf accuracy    <       0.00035993 Ry

     total magnetization       =     4.00 Bohr mag/cell
     absolute magnetization    =     4.10 Bohr mag/cell

     iteration # 13     ecut=   100.00 Ry     beta= 0.70
     Davidson diagonalization with overlap
     ethr =  1.80E-07,  avg # of iterations =  3.5

     negative rho (up, down):  0.000E+00 2.973E-03

     total cpu time spent up to now is       39.6 secs

     total energy              =    -810.68569942 Ry
     Harris-Foulkes estimate   =    -810.68563684 Ry
     estimated scf accuracy    <       0.00008981 Ry

     total magnetization       =     4.00 Bohr mag/cell
     absolute magnetization    =     4.10 Bohr mag/cell

     iteration # 14     ecut=   100.00 Ry     beta= 0.70
     Davidson diagonalization with overlap
     ethr =  4.49E-08,  avg # of iterations =  3.0

     negative rho (up, down):  0.000E+00 2.963E-03

     total cpu time spent up to now is       41.3 secs

     total energy              =    -810.68572038 Ry
     Harris-Foulkes estimate   =    -810.68570698 Ry
     estimated scf accuracy    <       0.00002813 Ry

     total magnetization       =     4.00 Bohr mag/cell
     absolute magnetization    =     4.10 Bohr mag/cell

     iteration # 15     ecut=   100.00 Ry     beta= 0.70
     Davidson diagonalization with overlap
     ethr =  1.41E-08,  avg # of iterations =  2.5

     negative rho (up, down):  0.000E+00 3.010E-03

     total cpu time spent up to now is       42.9 secs

     total energy              =    -810.68572660 Ry
     Harris-Foulkes estimate   =    -810.68572224 Ry
     estimated scf accuracy    <       0.00000939 Ry

     total magnetization       =     4.00 Bohr mag/cell
     absolute magnetization    =     4.10 Bohr mag/cell

     iteration # 16     ecut=   100.00 Ry     beta= 0.70
     Davidson diagonalization with overlap
     ethr =  4.69E-09,  avg # of iterations =  3.0

     negative rho (up, down):  0.000E+00 2.986E-03

     total cpu time spent up to now is       44.6 secs

     total energy              =    -810.68572794 Ry
     Harris-Foulkes estimate   =    -810.68572781 Ry
     estimated scf accuracy    <       0.00000627 Ry

     total magnetization       =     4.00 Bohr mag/cell
     absolute magnetization    =     4.10 Bohr mag/cell

     iteration # 17     ecut=   100.00 Ry     beta= 0.70
     Davidson diagonalization with overlap
     ethr =  3.13E-09,  avg # of iterations =  1.5

     negative rho (up, down):  0.000E+00 3.000E-03

     total cpu time spent up to now is       46.0 secs

     total energy              =    -810.68572896 Ry
     Harris-Foulkes estimate   =    -810.68572838 Ry
     estimated scf accuracy    <       0.00000350 Ry

     total magnetization       =     4.00 Bohr mag/cell
     absolute magnetization    =     4.10 Bohr mag/cell

     iteration # 18     ecut=   100.00 Ry     beta= 0.70
     Davidson diagonalization with overlap
     ethr =  1.75E-09,  avg # of iterations =  2.5

     negative rho (up, down):  0.000E+00 2.977E-03
 
     Magnetic moment per site:
     atom:    1    charge:    7.5196    magn:    1.2592    constr:    0.0000
     atom:    2    charge:    7.5199    magn:    1.2595    constr:    0.0000
     atom:    3    charge:    3.1214    magn:    0.0530    constr:    0.0000
     atom:    4    charge:    3.1183    magn:    0.0530    constr:    0.0000
     atom:    5    charge:    3.1196    magn:    0.0537    constr:    0.0000
     atom:    6    charge:    3.1205    magn:    0.0537    constr:    0.0000
     atom:    7    charge:    3.1293    magn:    0.0507    constr:    0.0000
     atom:    8    charge:    3.1285    magn:    0.0507    constr:    0.0000
     atom:    9    charge:    3.1278    magn:    0.0529    constr:    0.0000
     atom:   10    charge:    3.1271    magn:    0.0529    constr:    0.0000
     atom:   11    charge:    2.4097    magn:    0.0143    constr:    0.0000
     atom:   12    charge:    2.4116    magn:    0.0143    constr:    0.0000
     atom:   13    charge:    2.4038    magn:    0.0134    constr:    0.0000
     atom:   14    charge:    2.4029    magn:    0.0134    constr:    0.0000
     atom:   15    charge:    0.5999    magn:    0.0036    constr:    0.0000
     atom:   16    charge:    0.5992    magn:    0.0036    constr:    0.0000
     atom:   17    charge:    0.4555    magn:   -0.0007    constr:    0.0000
     atom:   18    charge:    0.4554    magn:   -0.0007    constr:    0.0000
     atom:   19    charge:    0.5735    magn:    0.0039    constr:    0.0000
     atom:   20    charge:    0.5742    magn:    0.0039    constr:    0.0000
     atom:   21    charge:    0.5988    magn:    0.0038    constr:    0.0000
     atom:   22    charge:    0.5986    magn:    0.0038    constr:    0.0000
     atom:   23    charge:    0.4555    magn:   -0.0008    constr:    0.0000
     atom:   24    charge:    0.4561    magn:   -0.0008    constr:    0.0000
     atom:   25    charge:    0.6004    magn:    0.0036    constr:    0.0000
     atom:   26    charge:    0.5998    magn:    0.0036    constr:    0.0000
     atom:   27    charge:    0.4562    magn:   -0.0007    constr:    0.0000
     atom:   28    charge:    0.4559    magn:   -0.0007    constr:    0.0000
     atom:   29    charge:    0.5923    magn:    0.0032    constr:    0.0000
     atom:   30    charge:    0.5914    magn:    0.0032    constr:    0.0000
     atom:   31    charge:    0.4597    magn:   -0.0005    constr:    0.0000
     atom:   32    charge:    0.4596    magn:   -0.0005    constr:    0.0000
     atom:   33    charge:    0.5935    magn:    0.0033    constr:    0.0000
     atom:   34    charge:    0.5921    magn:    0.0033    constr:    0.0000
     atom:   35    charge:    0.4599    magn:   -0.0006    constr:    0.0000
     atom:   36    charge:    0.4598    magn:   -0.0006    constr:    0.0000
     atom:   37    charge:    0.5950    magn:    0.0032    constr:    0.0000
     atom:   38    charge:    0.5949    magn:    0.0032    constr:    0.0000
     atom:   39    charge:    0.4586    magn:   -0.0004    constr:    0.0000
     atom:   40    charge:    0.4586    magn:   -0.0004    constr:    0.0000
     atom:   41    charge:    0.5915    magn:    0.0033    constr:    0.0000
     atom:   42    charge:    0.5913    magn:    0.0033    constr:    0.0000
     atom:   43    charge:    0.4577    magn:   -0.0004    constr:    0.0000
     atom:   44    charge:    0.4570    magn:   -0.0004    constr:    0.0000
     atom:   45    charge:    0.5979    magn:    0.0036    constr:    0.0000
     atom:   46    charge:    0.5981    magn:    0.0036    constr:    0.0000
     atom:   47    charge:    0.4561    magn:   -0.0008    constr:    0.0000
     atom:   48    charge:    0.4566    magn:   -0.0008    constr:    0.0000
     atom:   49    charge:    0.5730    magn:    0.0038    constr:    0.0000
     atom:   50    charge:    0.5741    magn:    0.0038    constr:    0.0000
     atom:   51    charge:    0.5601    magn:   -0.0013    constr:    0.0000
     atom:   52    charge:    0.5597    magn:   -0.0013    constr:    0.0000
     atom:   53    charge:    0.5596    magn:   -0.0012    constr:    0.0000
     atom:   54    charge:    0.5600    magn:   -0.0012    constr:    0.0000

     total cpu time spent up to now is       47.4 secs

     End of self-consistent calculation

 ------ SPIN UP ------------


          k = 0.0000 0.0000 0.0000 ( 45819 PWs)   bands (ev):

   -22.6624 -22.6600 -22.5619 -22.5599 -19.9632 -19.9631 -19.9422 -19.9411
   -19.4054 -19.3916 -19.2803 -19.2729 -15.5796 -15.5124 -15.5073 -15.4799
   -14.6074 -14.5709 -14.5672 -14.5230 -11.7733 -11.7223 -11.7002 -11.6693
   -11.4717 -11.4410 -11.4108 -11.3509  -9.9227  -9.6610  -9.6375  -9.5632
    -8.2607  -7.9883  -7.9535  -7.9425  -7.6991  -7.6729  -7.6185  -7.5379
    -7.2950  -7.1781  -7.0214  -6.9627  -6.9113  -6.7457  -6.7172  -6.6696
    -6.6453  -6.6005  -6.4454  -6.4195  -6.3919  -6.3556  -6.2636  -6.1168
    -6.1108  -6.0393  -5.9785  -5.9309  -5.7184  -5.5557  -5.3636  -5.1751
    -4.5702  -4.5029  -4.3572  -4.2961  -4.2694  -4.2680  -4.0706  -4.0584
    -3.7554  -3.4914  -3.3577  -3.2640  -3.2476  -3.2077  -3.1875  -3.1477
    -3.0600  -2.7328  -2.6330  -2.6132  -2.5103  -2.4868  -2.4700  -2.4112
    -2.3792  -2.3316  -2.3046  -2.2856  -2.2261  -2.1468  -2.1078  -2.0668
    -2.0168  -1.9172  -0.5975  -0.5759  -0.3397  -0.3183   2.0440   2.0601
     2.0986   2.1390   3.0299   3.1420   3.3182   3.4719   3.4795   4.2663
     4.5055   4.5691   4.7437   4.7770   4.9911   5.3658   5.7329   5.7855
     5.8137   6.1266

 ------ SPIN DOWN ----------


          k = 0.0000 0.0000 0.0000 ( 45819 PWs)   bands (ev):

   -22.5613 -22.5588 -22.4605 -22.4584 -19.8353 -19.8352 -19.8113 -19.8102
   -19.3720 -19.3578 -19.2480 -19.2403 -15.5406 -15.4739 -15.4690 -15.4404
   -14.5733 -14.5365 -14.5330 -14.4888 -11.7278 -11.6804 -11.6590 -11.6295
   -11.4449 -11.4136 -11.3836 -11.3241  -9.8927  -9.6332  -9.6088  -9.5307
    -8.1953  -7.9351  -7.8967  -7.8797  -7.6598  -7.6259  -7.5769  -7.5049
    -7.2671  -7.1433  -6.9833  -6.9246  -6.8032  -6.6502  -6.5967  -6.5469
    -6.5298  -6.5202  -6.3399  -6.2953  -6.2667  -6.2418  -6.1973  -6.0809
    -6.0303  -6.0117  -5.9404  -5.9092  -5.6500  -5.4790  -5.2881  -5.0982
    -4.4316  -4.3072  -4.2770  -4.2389  -4.2314  -3.9083  -3.6079  -3.5901
    -3.2461  -3.1435  -3.0648  -3.0199  -2.7978  -2.7451  -2.6785  -2.6588
    -2.6092  -2.4722  -2.4716  -2.3582  -2.3140  -2.2950  -2.2145  -2.1615
    -2.1479  -2.0098  -1.9810  -1.8289  -1.6056  -1.3711  -1.3585  -1.3311
    -1.3121  -1.2011   0.2524   0.2588   0.4497   0.4685   2.1331   2.1630
     2.2153   2.2287   3.1061   3.2192   3.3970   3.5132   3.5532   4.3122
     4.5520   4.6266   4.8019   4.8488   5.0412   5.4117   5.7759   5.8175
     5.8606   6.2020

     the spin up/dw Fermi energies are     0.0862   -0.2218 ev

!    total energy              =    -810.68572919 Ry
     Harris-Foulkes estimate   =    -810.68572911 Ry
     estimated scf accuracy    <       0.00000068 Ry

     The total energy is the sum of the following terms:

     one-electron contribution =   -1216.55048755 Ry
     hartree contribution      =     678.55032255 Ry
     xc contribution           =    -248.39651849 Ry
     ewald contribution        =     -25.36060033 Ry
     Dispersion Correction     =      -0.20316512 Ry
     smearing contrib. (-TS)   =       1.27471975 Ry

     total magnetization       =     4.00 Bohr mag/cell
     absolute magnetization    =     4.10 Bohr mag/cell

     convergence has been achieved in  18 iterations

     negative rho (up, down):  0.000E+00 2.977E-03

     Forces acting on atoms (cartesian axes, Ry/au):

     atom    1 type  1   force =    -0.01097990   -0.00924325   -0.03721874
     atom    2 type  2   force =     0.02016654    0.00812731   -0.00674934
     atom    3 type  4   force =    -0.01555548   -0.03649191   -0.02529367
     atom    4 type  4   force =    -0.01573160    0.03662687   -0.02630611
     atom    5 type  4   force =     0.01569922    0.03986161   -0.01993793
     atom    6 type  4   force =     0.01677340   -0.04011714   -0.02083687
     atom    7 type  4   force =    -0.04214776   -0.04400977   -0.01636989
     atom    8 type  4   force =    -0.04264397    0.04435297   -0.01727682
     atom    9 type  4   force =     0.03692017    0.04793961   -0.01344479
     atom   10 type  4   force =     0.03769098   -0.04769399   -0.01498798
     atom   11 type  5   force =    -0.01996939   -0.01699757    0.01603177
     atom   12 type  5   force =    -0.02052205    0.01620032    0.01608280
     atom   13 type  5   force =    -0.00205460    0.00399477    0.01711086
     atom   14 type  5   force =    -0.00217138   -0.00382081    0.01729963
     atom   15 type  6   force =     0.15795223   -0.07203833    0.17026993
     atom   16 type  6   force =     0.15787903    0.07212322    0.17026273
     atom   17 type  3   force =    -0.16212149    0.09374699   -0.20270789
     atom   18 type  3   force =    -0.16211339   -0.09371726   -0.20269772
     atom   19 type  6   force =     0.01385975    0.01127002    0.01184727
     atom   20 type  6   force =     0.01386035   -0.01116118    0.01193667
     atom   21 type  6   force =    -0.23427816   -0.04743385   -0.08008014
     atom   22 type  6   force =    -0.23407326    0.04754146   -0.08009701
     atom   23 type  3   force =     0.25817462    0.08086876    0.05540546
     atom   24 type  3   force =     0.25817659   -0.08083389    0.05541371
     atom   25 type  6   force =    -0.15342041    0.08565652    0.17208831
     atom   26 type  6   force =    -0.15332210   -0.08567373    0.17196504
     atom   27 type  3   force =     0.17042475   -0.09721148   -0.19374179
     atom   28 type  3   force =     0.17043868    0.09724225   -0.19377039
     atom   29 type  6   force =    -0.22800083   -0.09340575    0.03078287
     atom   30 type  6   force =    -0.22798445    0.09358519    0.03075636
     atom   31 type  3   force =     0.25365689    0.11237597   -0.03357761
     atom   32 type  3   force =     0.25369363   -0.11233502   -0.03359286
     atom   33 type  6   force =     0.22242438    0.08440133    0.04633123
     atom   34 type  6   force =     0.22237891   -0.08447280    0.04640186
     atom   35 type  3   force =    -0.25725808   -0.10844001   -0.03620768
     atom   36 type  3   force =    -0.25722922    0.10843808   -0.03619780
     atom   37 type  6   force =    -0.13070910    0.08638355   -0.17412261
     atom   38 type  6   force =    -0.13061664   -0.08623597   -0.17398851
     atom   39 type  3   force =     0.14208553   -0.11264576    0.21334081
     atom   40 type  3   force =     0.14193588    0.11246926    0.21314351
     atom   41 type  6   force =     0.15567933   -0.07903152   -0.16647066
     atom   42 type  6   force =     0.15554701    0.07928321   -0.16628552
     atom   43 type  3   force =    -0.15084823    0.11850839    0.20176821
     atom   44 type  3   force =    -0.15076090   -0.11816188    0.20162519
     atom   45 type  6   force =     0.24684346    0.06770032   -0.07957643
     atom   46 type  6   force =     0.24670759   -0.06763495   -0.07956664
     atom   47 type  3   force =    -0.25610779   -0.09667375    0.05735581
     atom   48 type  3   force =    -0.25611079    0.09672089    0.05736666
     atom   49 type  6   force =    -0.03538573   -0.01945233    0.00212887
     atom   50 type  6   force =    -0.03530650    0.01938392    0.00216559
     atom   51 type  6   force =    -0.05051173   -0.07831538    0.03157818
     atom   52 type  6   force =    -0.05035526    0.07840903    0.03162577
     atom   53 type  6   force =     0.05972395    0.08214088    0.03953929
     atom   54 type  6   force =     0.05959729   -0.08210341    0.03947902

     Total force =     1.514233     Total SCF correction =     0.001455

     BFGS Geometry Optimization

     number of scf cycles    =   1
     number of bfgs steps    =   0

     energy   new            =    -810.6857291915 Ry

     new trust radius        =       0.2815172308 bohr
     new conv_thr            =       0.0000010000 Ry


ATOMIC_POSITIONS (crystal)
Ni1      0.493800992   0.753569426   0.837513047
Ni2      0.996494050   0.246383420   0.339082375
O        0.239936115   0.348078032   0.391597248
O        0.739919311   0.651927671   0.891545103
O        0.756191254   0.134764355   0.369173096
O        0.256280477   0.865224847   0.869126796
O        0.933302328   0.350370364   0.496456868
O        0.433258633   0.649644138   0.996410156
O        0.069599365   0.121825692   0.473507526
O        0.569661706   0.878184687   0.973428043
N        0.626240037   0.842181766   0.697025717
N        0.126193361   0.157784546   0.197028345
N        0.360958197   0.646268799   0.715981296
N        0.860948667   0.353738551   0.215991018
C        0.601486774   0.956256015   0.522169760
C        0.101480566   0.043747572   0.022169389
H        0.486099567   0.990161286   0.433659522
H       -0.013899728   0.009839970   0.933660046
C        0.794395167   0.998476216   0.534310194
C        0.294395386   0.001528383   0.034314799
C        0.897122809   0.952595679   0.631275469
C        0.397140118   0.047408868   0.131274600
H        0.082153301   0.981217115   0.653353661
H        0.582153484   0.018784358   0.153354086
C        0.395038580   0.522719423   0.552963416
C        0.895046669   0.477279850   0.052957067
H        0.509159911   0.486892322   0.467821321
H        1.009161036   0.513108979   0.967819848
C        0.461061899   0.599253133   0.623285473
C        0.961063236   0.400754449   0.123284108
H        0.640504146   0.636048455   0.606170584
H        0.140507226   0.363953275   0.106169798
C        0.530410731   0.884466385   0.597386292
C        0.030407016   0.115530596   0.097389930
H        0.350260257   0.848417859   0.577235122
H        0.850262718   0.151582059   0.077235631
C        0.817111601   0.881350143   0.704731808
C        0.317119678   0.118656093   0.204738714
H        0.925724714   0.843540145   0.793588127
H        0.425711680   0.156452397   0.293577966
C        0.177363125   0.601160517   0.726025921
C        0.677352274   0.398850118   0.226035457
H        0.066911907   0.639607581   0.811092080
H        0.566919029   0.360407061   0.311084714
C        0.103341287   0.523160682   0.658501413
C        0.603329807   0.476842080   0.158501917
H        0.923033011   0.488415044   0.682054113
H        0.423032777   0.511586948   0.182054672
C        0.204909281   0.476178040   0.564709648
C        0.704916055   0.523819069   0.064711539
C        0.873784370   0.085990778   0.456626436
C        0.373797702   0.914013180   0.956628887
C        0.127128589   0.389670869   0.483536473
C        0.627117757   0.610330714   0.983533369



     Writing output data file nipyc_from_cif_no-vol.save/
     Message from routine punch:
     wavefunctions written to file
     NEW-OLD atomic charge density approx. for the potential

     Check: negative core charge=   -0.000145

     negative rho (up, down):  0.000E+00 8.987E-04

     total cpu time spent up to now is       56.1 secs

     Self-consistent Calculation

     iteration #  1     ecut=   100.00 Ry     beta= 0.70
     Davidson diagonalization with overlap
     ethr =  1.00E-06,  avg # of iterations = 16.0

     negative rho (up, down):  0.000E+00 5.444E-03

     total cpu time spent up to now is       61.5 secs

     total energy              =    -810.30256699 Ry
     Harris-Foulkes estimate   =    -810.50423643 Ry
     estimated scf accuracy    <       0.59939088 Ry

     total magnetization       =     4.00 Bohr mag/cell
     absolute magnetization    =     4.06 Bohr mag/cell

     iteration #  2     ecut=   100.00 Ry     beta= 0.70
     Davidson diagonalization with overlap
     ethr =  3.00E-04,  avg # of iterations =  2.0

     negative rho (up, down):  2.410E-04 2.606E-03

     total cpu time spent up to now is       63.0 secs

     total energy              =    -810.30997198 Ry
     Harris-Foulkes estimate   =    -810.34577788 Ry
     estimated scf accuracy    <       0.08620154 Ry

     total magnetization       =     4.00 Bohr mag/cell
     absolute magnetization    =     4.06 Bohr mag/cell

     iteration #  3     ecut=   100.00 Ry     beta= 0.70
     Davidson diagonalization with overlap
     ethr =  4.31E-05,  avg # of iterations =  2.0

     negative rho (up, down):  4.050E-04 2.528E-03

     total cpu time spent up to now is       64.7 secs

     total energy              =    -810.31450478 Ry
     Harris-Foulkes estimate   =    -810.32914661 Ry
     estimated scf accuracy    <       0.07709214 Ry

     total magnetization       =     4.00 Bohr mag/cell
     absolute magnetization    =     4.06 Bohr mag/cell

     iteration #  4     ecut=   100.00 Ry     beta= 0.70
     Davidson diagonalization with overlap
     ethr =  3.85E-05,  avg # of iterations =  1.5

     negative rho (up, down):  5.491E-04 2.519E-03

     total cpu time spent up to now is       66.2 secs

     total energy              =    -810.31967018 Ry
     Harris-Foulkes estimate   =    -810.32724366 Ry
     estimated scf accuracy    <       0.08469803 Ry

     total magnetization       =     4.00 Bohr mag/cell
     absolute magnetization    =     4.06 Bohr mag/cell

     iteration #  5     ecut=   100.00 Ry     beta= 0.70
     Davidson diagonalization with overlap
     ethr =  3.85E-05,  avg # of iterations =  1.0

     negative rho (up, down):  5.614E-04 2.513E-03

     total cpu time spent up to now is       67.5 secs

     total energy              =    -810.32292477 Ry
     Harris-Foulkes estimate   =    -810.32380725 Ry
     estimated scf accuracy    <       0.00982597 Ry

     total magnetization       =     4.00 Bohr mag/cell
     absolute magnetization    =     4.06 Bohr mag/cell

     iteration #  6     ecut=   100.00 Ry     beta= 0.70
     Davidson diagonalization with overlap
     ethr =  4.91E-06,  avg # of iterations =  1.0

     negative rho (up, down):  5.457E-04 2.357E-03

     total cpu time spent up to now is       68.9 secs

     total energy              =    -810.32331526 Ry
     Harris-Foulkes estimate   =    -810.32355935 Ry
     estimated scf accuracy    <       0.00229580 Ry

     total magnetization       =     4.00 Bohr mag/cell
     absolute magnetization    =     4.06 Bohr mag/cell

     iteration #  7     ecut=   100.00 Ry     beta= 0.70
     Davidson diagonalization with overlap
     ethr =  1.15E-06,  avg # of iterations =  1.0

     negative rho (up, down):  3.648E-04 2.321E-03

     total cpu time spent up to now is       70.3 secs

     total energy              =    -810.32343214 Ry
     Harris-Foulkes estimate   =    -810.32346019 Ry
     estimated scf accuracy    <       0.00036943 Ry

     total magnetization       =     4.00 Bohr mag/cell
     absolute magnetization    =     4.06 Bohr mag/cell

     iteration #  8     ecut=   100.00 Ry     beta= 0.70
     Davidson diagonalization with overlap
     ethr =  1.85E-07,  avg # of iterations =  2.0

     negative rho (up, down):  8.463E-05 2.293E-03

     total cpu time spent up to now is       71.8 secs

     total energy              =    -810.32345444 Ry
     Harris-Foulkes estimate   =    -810.32345739 Ry
     estimated scf accuracy    <       0.00015645 Ry

     total magnetization       =     4.00 Bohr mag/cell
     absolute magnetization    =     4.07 Bohr mag/cell

     iteration #  9     ecut=   100.00 Ry     beta= 0.70
     Davidson diagonalization with overlap
     ethr =  7.82E-08,  avg # of iterations =  2.5

     negative rho (up, down):  1.089E-05 2.321E-03

     total cpu time spent up to now is       73.4 secs

     total energy              =    -810.32347008 Ry
     Harris-Foulkes estimate   =    -810.32347029 Ry
     estimated scf accuracy    <       0.00004812 Ry

     total magnetization       =     4.00 Bohr mag/cell
     absolute magnetization    =     4.07 Bohr mag/cell

     iteration # 10     ecut=   100.00 Ry     beta= 0.70
     Davidson diagonalization with overlap
     ethr =  2.41E-08,  avg # of iterations =  2.0

     negative rho (up, down):  0.000E+00 2.284E-03

     total cpu time spent up to now is       74.9 secs

     total energy              =    -810.32347524 Ry
     Harris-Foulkes estimate   =    -810.32347359 Ry
     estimated scf accuracy    <       0.00002222 Ry

     total magnetization       =     4.00 Bohr mag/cell
     absolute magnetization    =     4.07 Bohr mag/cell

     iteration # 11     ecut=   100.00 Ry     beta= 0.70
     Davidson diagonalization with overlap
     ethr =  1.11E-08,  avg # of iterations =  2.0

     negative rho (up, down):  0.000E+00 2.251E-03

     total cpu time spent up to now is       76.4 secs

     total energy              =    -810.32347721 Ry
     Harris-Foulkes estimate   =    -810.32347624 Ry
     estimated scf accuracy    <       0.00001056 Ry

     total magnetization       =     4.00 Bohr mag/cell
     absolute magnetization    =     4.07 Bohr mag/cell

     iteration # 12     ecut=   100.00 Ry     beta= 0.70
     Davidson diagonalization with overlap
     ethr =  5.28E-09,  avg # of iterations =  3.0

     negative rho (up, down):  0.000E+00 2.277E-03

     total cpu time spent up to now is       78.0 secs

     total energy              =    -810.32347780 Ry
     Harris-Foulkes estimate   =    -810.32347787 Ry
     estimated scf accuracy    <       0.00000287 Ry

     total magnetization       =     4.00 Bohr mag/cell
     absolute magnetization    =     4.07 Bohr mag/cell

     iteration # 13     ecut=   100.00 Ry     beta= 0.70
     Davidson diagonalization with overlap
     ethr =  1.44E-09,  avg # of iterations =  2.5

     negative rho (up, down):  0.000E+00 2.256E-03
 
     Magnetic moment per site:
     atom:    1    charge:    7.5100    magn:    1.2015    constr:    0.0000
     atom:    2    charge:    7.5108    magn:    1.2032    constr:    0.0000
     atom:    3    charge:    3.1041    magn:    0.0502    constr:    0.0000
     atom:    4    charge:    3.0998    magn:    0.0515    constr:    0.0000
     atom:    5    charge:    3.1000    magn:    0.0531    constr:    0.0000
     atom:    6    charge:    3.1013    magn:    0.0528    constr:    0.0000
     atom:    7    charge:    3.0896    magn:    0.0600    constr:    0.0000
     atom:    8    charge:    3.0883    magn:    0.0612    constr:    0.0000
     atom:    9    charge:    3.0921    magn:    0.0608    constr:    0.0000
     atom:   10    charge:    3.0905    magn:    0.0619    constr:    0.0000
     atom:   11    charge:    2.4753    magn:    0.0151    constr:    0.0000
     atom:   12    charge:    2.4769    magn:    0.0152    constr:    0.0000
     atom:   13    charge:    2.4742    magn:    0.0148    constr:    0.0000
     atom:   14    charge:    2.4717    magn:    0.0151    constr:    0.0000
     atom:   15    charge:    0.5685    magn:    0.0040    constr:    0.0000
     atom:   16    charge:    0.5676    magn:    0.0040    constr:    0.0000
     atom:   17    charge:    0.3537    magn:    0.0015    constr:    0.0000
     atom:   18    charge:    0.3536    magn:    0.0015    constr:    0.0000
     atom:   19    charge:    0.6080    magn:    0.0036    constr:    0.0000
     atom:   20    charge:    0.6087    magn:    0.0036    constr:    0.0000
     atom:   21    charge:    0.5682    magn:    0.0038    constr:    0.0000
     atom:   22    charge:    0.5679    magn:    0.0039    constr:    0.0000
     atom:   23    charge:    0.3524    magn:    0.0017    constr:    0.0000
     atom:   24    charge:    0.3528    magn:    0.0017    constr:    0.0000
     atom:   25    charge:    0.5675    magn:    0.0039    constr:    0.0000
     atom:   26    charge:    0.5669    magn:    0.0040    constr:    0.0000
     atom:   27    charge:    0.3528    magn:    0.0016    constr:    0.0000
     atom:   28    charge:    0.3526    magn:    0.0016    constr:    0.0000
     atom:   29    charge:    0.5623    magn:    0.0032    constr:    0.0000
     atom:   30    charge:    0.5613    magn:    0.0032    constr:    0.0000
     atom:   31    charge:    0.3589    magn:    0.0018    constr:    0.0000
     atom:   32    charge:    0.3587    magn:    0.0018    constr:    0.0000
     atom:   33    charge:    0.5633    magn:    0.0033    constr:    0.0000
     atom:   34    charge:    0.5619    magn:    0.0033    constr:    0.0000
     atom:   35    charge:    0.3609    magn:    0.0017    constr:    0.0000
     atom:   36    charge:    0.3608    magn:    0.0018    constr:    0.0000
     atom:   37    charge:    0.5647    magn:    0.0040    constr:    0.0000
     atom:   38    charge:    0.5646    magn:    0.0040    constr:    0.0000
     atom:   39    charge:    0.3573    magn:    0.0024    constr:    0.0000
     atom:   40    charge:    0.3574    magn:    0.0024    constr:    0.0000
     atom:   41    charge:    0.5643    magn:    0.0038    constr:    0.0000
     atom:   42    charge:    0.5639    magn:    0.0038    constr:    0.0000
     atom:   43    charge:    0.3554    magn:    0.0022    constr:    0.0000
     atom:   44    charge:    0.3547    magn:    0.0023    constr:    0.0000
     atom:   45    charge:    0.5628    magn:    0.0037    constr:    0.0000
     atom:   46    charge:    0.5627    magn:    0.0037    constr:    0.0000
     atom:   47    charge:    0.3485    magn:    0.0018    constr:    0.0000
     atom:   48    charge:    0.3489    magn:    0.0018    constr:    0.0000
     atom:   49    charge:    0.6070    magn:    0.0036    constr:    0.0000
     atom:   50    charge:    0.6082    magn:    0.0036    constr:    0.0000
     atom:   51    charge:    0.5479    magn:   -0.0017    constr:    0.0000
     atom:   52    charge:    0.5474    magn:   -0.0018    constr:    0.0000
     atom:   53    charge:    0.5468    magn:   -0.0016    constr:    0.0000
     atom:   54    charge:    0.5470    magn:   -0.0017    constr:    0.0000

     total cpu time spent up to now is       79.5 secs

     End of self-consistent calculation

 ------ SPIN UP ------------


          k = 0.0000 0.0000 0.0000 ( 45819 PWs)   bands (ev):

   -22.3325 -22.3160 -22.2303 -22.2156 -20.6435 -20.6192 -20.5685 -20.5548
   -19.5669 -19.5597 -19.5528 -19.5361 -16.6079 -16.5475 -16.5437 -16.5191
   -14.3983 -14.3671 -14.3417 -14.3133 -12.5158 -12.3891 -12.3501 -12.3236
   -10.9732 -10.9467 -10.9186 -10.8540  -9.6544  -9.5161  -9.5044  -9.4045
    -8.6092  -8.2733  -8.2309  -8.1869  -8.1223  -8.1037  -7.8422  -7.7322
    -7.2300  -7.1236  -7.1059  -7.0165  -6.8665  -6.7464  -6.6876  -6.5143
    -6.4695  -6.3666  -6.3451  -6.2494  -6.2301  -6.0067  -5.7470  -5.5156
    -5.0698  -5.0337  -4.9523  -4.9167  -4.8629  -4.7127  -4.6363  -4.5800
    -4.5213  -4.4378  -4.3501  -4.2845  -3.9132  -3.8565  -3.8043  -3.7518
    -3.6305  -3.4498  -3.3976  -3.3676  -3.3575  -3.0871  -2.9907  -2.9097
    -2.8802  -2.7771  -2.7215  -2.7140  -2.6946  -2.6487  -2.6094  -2.5460
    -2.4817  -2.4293  -2.3281  -2.3159  -2.2807  -2.2757  -2.2321  -2.1794
    -2.1467  -2.1141  -0.6723  -0.6245  -0.5213  -0.5130   1.6940   1.7560
     1.7721   1.8585   3.3021   3.8593   3.9558   4.0620   4.1174   4.3173
     4.3312   4.5001   4.5804   4.7043   4.8153   5.0724   5.1779   5.3610
     5.4716   5.5062

 ------ SPIN DOWN ----------


          k = 0.0000 0.0000 0.0000 ( 45819 PWs)   bands (ev):

   -22.2256 -22.2072 -22.1239 -22.1081 -20.6088 -20.5839 -20.5335 -20.5192
   -19.4242 -19.4149 -19.4118 -19.3932 -16.5690 -16.5090 -16.5049 -16.4796
   -14.3560 -14.3247 -14.2982 -14.2698 -12.4735 -12.3483 -12.3106 -12.2811
   -10.9345 -10.9080 -10.8807 -10.8166  -9.6116  -9.4740  -9.4619  -9.3636
    -8.5475  -8.2334  -8.1851  -8.1431  -8.0823  -8.0299  -7.7654  -7.6429
    -7.1401  -7.0021  -6.9827  -6.9266  -6.7634  -6.6560  -6.6138  -6.4492
    -6.3309  -6.2397  -6.1977  -6.1428  -6.1133  -5.9057  -5.6492  -5.4256
    -5.0259  -4.9160  -4.8954  -4.8705  -4.7589  -4.5915  -4.5106  -4.4989
    -4.4499  -4.1722  -3.9601  -3.9377  -3.7132  -3.6009  -3.5656  -3.2817
    -3.1948  -3.1907  -3.1216  -2.9062  -2.8572  -2.8320  -2.7972  -2.7533
    -2.6054  -2.5698  -2.5106  -2.4286  -2.4222  -2.3689  -2.3100  -2.2303
    -2.1743  -2.0950  -2.0544  -2.0203  -1.8336  -1.5566  -1.5215  -1.5206
    -1.5072  -1.3979   0.1307   0.1532   0.2469   0.2741   1.8000   1.8440
     1.8905   1.9487   3.3337   3.9239   4.0093   4.1134   4.1829   4.3497
     4.4011   4.5558   4.6481   4.7502   4.8786   5.1202   5.2398   5.3941
     5.5007   5.5557

     the spin up/dw Fermi energies are    -0.1014   -0.3959 ev

!    total energy              =    -810.32347786 Ry
     Harris-Foulkes estimate   =    -810.32347801 Ry
     estimated scf accuracy    <       0.00000099 Ry

     The total energy is the sum of the following terms:

     one-electron contribution =   -1231.72230123 Ry
     hartree contribution      =     685.53256868 Ry
     xc contribution           =    -247.31862876 Ry
     ewald contribution        =     -18.08274996 Ry
     Dispersion Correction     =      -0.20008711 Ry
     smearing contrib. (-TS)   =       1.46772053 Ry

     total magnetization       =     4.00 Bohr mag/cell
     absolute magnetization    =     4.07 Bohr mag/cell

     convergence has been achieved in  13 iterations

     negative rho (up, down):  0.000E+00 2.256E-03

     Forces acting on atoms (cartesian axes, Ry/au):

     atom    1 type  1   force =    -0.00215743   -0.00534436   -0.01008327
     atom    2 type  2   force =     0.02940855    0.00626777    0.01824261
     atom    3 type  4   force =    -0.03996747    0.00076746    0.02401455
     atom    4 type  4   force =    -0.04169575   -0.00177499    0.02471728
     atom    5 type  4   force =     0.04246771   -0.00177518    0.02670465
     atom    6 type  4   force =     0.04157491    0.00186184    0.02497804
     atom    7 type  4   force =     0.07652177    0.00806235   -0.02783122
     atom    8 type  4   force =     0.07624415   -0.00860597   -0.02835707
     atom    9 type  4   force =    -0.07094685    0.00088676   -0.02545897
     atom   10 type  4   force =    -0.07342359    0.00009277   -0.02669955
     atom   11 type  5   force =    -0.02864296   -0.05202957    0.05757243
     atom   12 type  5   force =    -0.02723813    0.05175805    0.05904164
     atom   13 type  5   force =     0.03772632    0.06370580    0.04466502
     atom   14 type  5   force =     0.03919703   -0.06461776    0.04650078
     atom   15 type  6   force =    -0.15306650    0.19360782   -0.32302703
     atom   16 type  6   force =    -0.15303194   -0.19380484   -0.32332459
     atom   17 type  3   force =     0.06396918   -0.04448453    0.09071594
     atom   18 type  3   force =     0.06397998    0.04448152    0.09074841
     atom   19 type  6   force =     0.02233433    0.09700643   -0.08604864
     atom   20 type  6   force =     0.02220065   -0.09708264   -0.08600401
     atom   21 type  6   force =     0.37985274    0.15990601    0.03105716
     atom   22 type  6   force =     0.37982546   -0.15993067    0.03112152
     atom   23 type  3   force =    -0.11407540   -0.03902565   -0.01694617
     atom   24 type  3   force =    -0.11404936    0.03902560   -0.01695222
     atom   25 type  6   force =     0.14069565   -0.23087099   -0.31715617
     atom   26 type  6   force =     0.14061954    0.23125723   -0.31752280
     atom   27 type  3   force =    -0.06675099    0.04802736    0.08674367
     atom   28 type  3   force =    -0.06672999   -0.04794913    0.08666654
     atom   29 type  6   force =     0.36681875    0.24876554    0.03008287
     atom   30 type  6   force =     0.36612104   -0.24969318    0.03158467
     atom   31 type  3   force =    -0.10962904   -0.04913230    0.01311044
     atom   32 type  3   force =    -0.10949100    0.04914553    0.01308001
     atom   33 type  6   force =    -0.37503059   -0.22444623    0.01755719
     atom   34 type  6   force =    -0.37543577    0.22485213    0.01806157
     atom   35 type  3   force =     0.10535415    0.04985131    0.01712057
     atom   36 type  3   force =     0.10536455   -0.04983546    0.01720464
     atom   37 type  6   force =     0.12795605   -0.21332179    0.32279899
     atom   38 type  6   force =     0.12740243    0.21277446    0.32184992
     atom   39 type  3   force =    -0.05531000    0.05061458   -0.08483305
     atom   40 type  3   force =    -0.05512536   -0.05056067   -0.08477284
     atom   41 type  6   force =    -0.16029674    0.21822173    0.30782701
     atom   42 type  6   force =    -0.15876147   -0.21909656    0.30789588
     atom   43 type  3   force =     0.05969831   -0.04893630   -0.08042466
     atom   44 type  3   force =     0.05953212    0.04903214   -0.08025493
     atom   45 type  6   force =    -0.37141467   -0.18757521    0.03878581
     atom   46 type  6   force =    -0.37153705    0.18795043    0.03846431
     atom   47 type  3   force =     0.11298924    0.05019875   -0.01922033
     atom   48 type  3   force =     0.11291299   -0.05013931   -0.01925226
     atom   49 type  6   force =     0.00517265   -0.08386811   -0.08553878
     atom   50 type  6   force =     0.00492608    0.08379191   -0.08515085
     atom   51 type  6   force =     0.04602124    0.04413015   -0.02183489
     atom   52 type  6   force =     0.04909709   -0.04453240   -0.02105386
     atom   53 type  6   force =    -0.05635990   -0.04738398   -0.02426879
     atom   54 type  6   force =    -0.05581672    0.04977436   -0.02689718

     Total force =     1.786143     Total SCF correction =     0.001286

     number of scf cycles    =   2
     number of bfgs steps    =   1

     energy   old            =    -810.6857291915 Ry
     energy   new            =    -810.3234778561 Ry

     CASE: energy  _new > energy  _old

     new trust radius        =       0.1215544583 bohr
     new conv_thr            =       0.0000010000 Ry


ATOMIC_POSITIONS (crystal)
Ni1      0.494368645   0.753791357   0.838602292
Ni2      0.995531462   0.246188283   0.339279901
O        0.240711097   0.348954204   0.392337494
O        0.740703842   0.651048259   0.892314978
O        0.755457542   0.133807277   0.369756600
O        0.255496067   0.866188061   0.869736608
O        0.935346585   0.351427040   0.496935950
O        0.435327718   0.648579222   0.996915780
O        0.067838254   0.120674660   0.473901001
O        0.567865172   0.879329821   0.973866682
N        0.627183255   0.842589879   0.696556531
N        0.127163102   0.157395575   0.196557666
N        0.361038772   0.646172885   0.715480529
N        0.861034657   0.353830289   0.215484727
C        0.593709722   0.957985658   0.517186636
C        0.093707041   0.042015891   0.017186476
H        0.494111668   0.987910417   0.439591975
H       -0.005888028   0.012090125   0.939592201
C        0.793716053   0.998205622   0.533963472
C        0.293716148   0.001796364   0.033965460
C        0.908474181   0.953734568   0.633619096
C        0.408481655   0.046267396   0.133618721
H        0.069679070   0.979275454   0.651732163
H        0.569679149   0.020725183   0.151732347
C        0.402233010   0.520662807   0.547927076
C        0.902236502   0.479336880   0.047924334
H        0.501170836   0.489226373   0.473491372
H        1.001171321   0.510774189   0.973490736
C        0.471993308   0.601495809   0.622384581
C        0.971993885   0.398507465   0.122383991
H        0.628341954   0.633350304   0.607153267
H        0.128343284   0.366650443   0.107152928
C        0.519665339   0.882439906   0.596030361
C        0.019663735   0.117558791   0.096031932
H        0.362669962   0.851021508   0.578294777
H        0.862671025   0.148978457   0.078294996
C        0.823582679   0.879276071   0.709827684
C        0.323586166   0.120726621   0.209830666
H        0.918664785   0.846244774   0.787344491
H        0.418659157   0.153752006   0.287340103
C        0.170054084   0.603058067   0.730897855
C        0.670049398   0.396946525   0.230901973
H        0.073951027   0.636762190   0.805187127
H        0.573954102   0.363244132   0.305183947
C        0.091555743   0.521535195   0.660830298
C        0.591550786   0.478465998   0.160830516
H        0.935287733   0.490736184   0.680375537
H        0.435287632   0.509264676   0.180375778
C        0.206608657   0.476645091   0.564647344
C        0.706611582   0.523353660   0.064648161
C        0.876179761   0.087871133   0.455702268
C        0.376185518   0.912130576   0.955703326
C        0.124214439   0.387698663   0.482379315
C        0.624209762   0.612302020   0.982377975



     Writing output data file nipyc_from_cif_no-vol.save/
     Message from routine punch:
     wavefunctions written to file
     NEW-OLD atomic charge density approx. for the potential

     Check: negative core charge=   -0.000145

     negative rho (up, down):  0.000E+00 5.613E-04

     total cpu time spent up to now is       88.0 secs

     Self-consistent Calculation

     iteration #  1     ecut=   100.00 Ry     beta= 0.70
     Davidson diagonalization with overlap
     ethr =  1.00E-06,  avg # of iterations = 14.0

     negative rho (up, down):  0.000E+00 3.020E-03

     total cpu time spent up to now is       92.7 secs

     total energy              =    -811.06560713 Ry
     Harris-Foulkes estimate   =    -811.12713444 Ry
     estimated scf accuracy    <       0.18108385 Ry

     total magnetization       =     4.00 Bohr mag/cell
     absolute magnetization    =     4.08 Bohr mag/cell

     iteration #  2     ecut=   100.00 Ry     beta= 0.70
     Davidson diagonalization with overlap
     ethr =  9.05E-05,  avg # of iterations =  2.0

     negative rho (up, down):  0.000E+00 2.431E-03

     total cpu time spent up to now is       94.3 secs

     total energy              =    -811.06649910 Ry
     Harris-Foulkes estimate   =    -811.07878243 Ry
     estimated scf accuracy    <       0.02827905 Ry

     total magnetization       =     4.00 Bohr mag/cell
     absolute magnetization    =     4.08 Bohr mag/cell

     iteration #  3     ecut=   100.00 Ry     beta= 0.70
     Davidson diagonalization with overlap
     ethr =  1.41E-05,  avg # of iterations =  2.0

     negative rho (up, down):  0.000E+00 2.411E-03

     total cpu time spent up to now is       96.0 secs

     total energy              =    -811.06714009 Ry
     Harris-Foulkes estimate   =    -811.07243561 Ry
     estimated scf accuracy    <       0.02961915 Ry

     total magnetization       =     4.00 Bohr mag/cell
     absolute magnetization    =     4.09 Bohr mag/cell

     iteration #  4     ecut=   100.00 Ry     beta= 0.70
     Davidson diagonalization with overlap
     ethr =  1.41E-05,  avg # of iterations =  1.5

     negative rho (up, down):  0.000E+00 2.400E-03

     total cpu time spent up to now is       97.4 secs

     total energy              =    -811.06881955 Ry
     Harris-Foulkes estimate   =    -811.07204264 Ry
     estimated scf accuracy    <       0.03935538 Ry

     total magnetization       =     4.00 Bohr mag/cell
     absolute magnetization    =     4.08 Bohr mag/cell

     iteration #  5     ecut=   100.00 Ry     beta= 0.70
     Davidson diagonalization with overlap
     ethr =  1.41E-05,  avg # of iterations =  1.0

     negative rho (up, down):  0.000E+00 2.381E-03

     total cpu time spent up to now is       98.8 secs

     total energy              =    -811.07000734 Ry
     Harris-Foulkes estimate   =    -811.07053739 Ry
     estimated scf accuracy    <       0.00482628 Ry

     total magnetization       =     4.00 Bohr mag/cell
     absolute magnetization    =     4.08 Bohr mag/cell

     iteration #  6     ecut=   100.00 Ry     beta= 0.70
     Davidson diagonalization with overlap
     ethr =  2.41E-06,  avg # of iterations =  1.0

     negative rho (up, down):  0.000E+00 2.427E-03

     total cpu time spent up to now is      100.2 secs

     total energy              =    -811.07030140 Ry
     Harris-Foulkes estimate   =    -811.07036738 Ry
     estimated scf accuracy    <       0.00078371 Ry

     total magnetization       =     4.00 Bohr mag/cell
     absolute magnetization    =     4.09 Bohr mag/cell

     iteration #  7     ecut=   100.00 Ry     beta= 0.70
     Davidson diagonalization with overlap
     ethr =  3.92E-07,  avg # of iterations =  1.0

     negative rho (up, down):  0.000E+00 2.477E-03

     total cpu time spent up to now is      101.6 secs

     total energy              =    -811.07035086 Ry
     Harris-Foulkes estimate   =    -811.07034759 Ry
     estimated scf accuracy    <       0.00007736 Ry

     total magnetization       =     4.00 Bohr mag/cell
     absolute magnetization    =     4.08 Bohr mag/cell

     iteration #  8     ecut=   100.00 Ry     beta= 0.70
     Davidson diagonalization with overlap
     ethr =  3.87E-08,  avg # of iterations =  2.5

     negative rho (up, down):  0.000E+00 2.455E-03

     total cpu time spent up to now is      103.1 secs

     total energy              =    -811.07035952 Ry
     Harris-Foulkes estimate   =    -811.07035667 Ry
     estimated scf accuracy    <       0.00004385 Ry

     total magnetization       =     4.00 Bohr mag/cell
     absolute magnetization    =     4.08 Bohr mag/cell

     iteration #  9     ecut=   100.00 Ry     beta= 0.70
     Davidson diagonalization with overlap
     ethr =  2.19E-08,  avg # of iterations =  2.5

     negative rho (up, down):  0.000E+00 2.495E-03

     total cpu time spent up to now is      104.7 secs

     total energy              =    -811.07036262 Ry
     Harris-Foulkes estimate   =    -811.07036295 Ry
     estimated scf accuracy    <       0.00001889 Ry

     total magnetization       =     4.00 Bohr mag/cell
     absolute magnetization    =     4.08 Bohr mag/cell

     iteration # 10     ecut=   100.00 Ry     beta= 0.70
     Davidson diagonalization with overlap
     ethr =  9.44E-09,  avg # of iterations =  2.0

     negative rho (up, down):  0.000E+00 2.495E-03

     total cpu time spent up to now is      106.2 secs

     total energy              =    -811.07036379 Ry
     Harris-Foulkes estimate   =    -811.07036369 Ry
     estimated scf accuracy    <       0.00000767 Ry

     total magnetization       =     4.00 Bohr mag/cell
     absolute magnetization    =     4.08 Bohr mag/cell

     iteration # 11     ecut=   100.00 Ry     beta= 0.70
     Davidson diagonalization with overlap
     ethr =  3.84E-09,  avg # of iterations =  2.5

     negative rho (up, down):  0.000E+00 2.479E-03

     total cpu time spent up to now is      107.7 secs

     total energy              =    -811.07036423 Ry
     Harris-Foulkes estimate   =    -811.07036435 Ry
     estimated scf accuracy    <       0.00000420 Ry

     total magnetization       =     4.00 Bohr mag/cell
     absolute magnetization    =     4.08 Bohr mag/cell

     iteration # 12     ecut=   100.00 Ry     beta= 0.70
     Davidson diagonalization with overlap
     ethr =  2.10E-09,  avg # of iterations =  1.5

     negative rho (up, down):  0.000E+00 2.471E-03

     total cpu time spent up to now is      109.2 secs

     total energy              =    -811.07036438 Ry
     Harris-Foulkes estimate   =    -811.07036444 Ry
     estimated scf accuracy    <       0.00000128 Ry

     total magnetization       =     4.00 Bohr mag/cell
     absolute magnetization    =     4.08 Bohr mag/cell

     iteration # 13     ecut=   100.00 Ry     beta= 0.70
     Davidson diagonalization with overlap
     ethr =  6.40E-10,  avg # of iterations =  2.5

     negative rho (up, down):  0.000E+00 2.463E-03
 
     Magnetic moment per site:
     atom:    1    charge:    7.5138    magn:    1.2406    constr:    0.0000
     atom:    2    charge:    7.5143    magn:    1.2417    constr:    0.0000
     atom:    3    charge:    3.1148    magn:    0.0531    constr:    0.0000
     atom:    4    charge:    3.1112    magn:    0.0537    constr:    0.0000
     atom:    5    charge:    3.1122    magn:    0.0548    constr:    0.0000
     atom:    6    charge:    3.1132    magn:    0.0547    constr:    0.0000
     atom:    7    charge:    3.1134    magn:    0.0561    constr:    0.0000
     atom:    8    charge:    3.1124    magn:    0.0565    constr:    0.0000
     atom:    9    charge:    3.1139    magn:    0.0577    constr:    0.0000
     atom:   10    charge:    3.1127    magn:    0.0581    constr:    0.0000
     atom:   11    charge:    2.4392    magn:    0.0144    constr:    0.0000
     atom:   12    charge:    2.4410    magn:    0.0145    constr:    0.0000
     atom:   13    charge:    2.4351    magn:    0.0138    constr:    0.0000
     atom:   14    charge:    2.4335    magn:    0.0140    constr:    0.0000
     atom:   15    charge:    0.5906    magn:    0.0038    constr:    0.0000
     atom:   16    charge:    0.5898    magn:    0.0038    constr:    0.0000
     atom:   17    charge:    0.4118    magn:   -0.0003    constr:    0.0000
     atom:   18    charge:    0.4117    magn:   -0.0003    constr:    0.0000
     atom:   19    charge:    0.5884    magn:    0.0038    constr:    0.0000
     atom:   20    charge:    0.5891    magn:    0.0038    constr:    0.0000
     atom:   21    charge:    0.5902    magn:    0.0039    constr:    0.0000
     atom:   22    charge:    0.5899    magn:    0.0039    constr:    0.0000
     atom:   23    charge:    0.4112    magn:   -0.0003    constr:    0.0000
     atom:   24    charge:    0.4117    magn:   -0.0003    constr:    0.0000
     atom:   25    charge:    0.5905    magn:    0.0038    constr:    0.0000
     atom:   26    charge:    0.5899    magn:    0.0038    constr:    0.0000
     atom:   27    charge:    0.4120    magn:   -0.0003    constr:    0.0000
     atom:   28    charge:    0.4117    magn:   -0.0003    constr:    0.0000
     atom:   29    charge:    0.5838    magn:    0.0031    constr:    0.0000
     atom:   30    charge:    0.5829    magn:    0.0031    constr:    0.0000
     atom:   31    charge:    0.4162    magn:   -0.0002    constr:    0.0000
     atom:   32    charge:    0.4162    magn:   -0.0002    constr:    0.0000
     atom:   33    charge:    0.5848    magn:    0.0032    constr:    0.0000
     atom:   34    charge:    0.5833    magn:    0.0032    constr:    0.0000
     atom:   35    charge:    0.4174    magn:   -0.0003    constr:    0.0000
     atom:   36    charge:    0.4173    magn:   -0.0003    constr:    0.0000
     atom:   37    charge:    0.5861    magn:    0.0034    constr:    0.0000
     atom:   38    charge:    0.5860    magn:    0.0034    constr:    0.0000
     atom:   39    charge:    0.4158    magn:    0.0002    constr:    0.0000
     atom:   40    charge:    0.4159    magn:    0.0002    constr:    0.0000
     atom:   41    charge:    0.5844    magn:    0.0034    constr:    0.0000
     atom:   42    charge:    0.5841    magn:    0.0034    constr:    0.0000
     atom:   43    charge:    0.4143    magn:    0.0001    constr:    0.0000
     atom:   44    charge:    0.4137    magn:    0.0001    constr:    0.0000
     atom:   45    charge:    0.5881    magn:    0.0037    constr:    0.0000
     atom:   46    charge:    0.5881    magn:    0.0037    constr:    0.0000
     atom:   47    charge:    0.4094    magn:   -0.0004    constr:    0.0000
     atom:   48    charge:    0.4098    magn:   -0.0003    constr:    0.0000
     atom:   49    charge:    0.5880    magn:    0.0037    constr:    0.0000
     atom:   50    charge:    0.5891    magn:    0.0037    constr:    0.0000
     atom:   51    charge:    0.5555    magn:   -0.0016    constr:    0.0000
     atom:   52    charge:    0.5551    magn:   -0.0016    constr:    0.0000
     atom:   53    charge:    0.5549    magn:   -0.0015    constr:    0.0000
     atom:   54    charge:    0.5552    magn:   -0.0016    constr:    0.0000

     total cpu time spent up to now is      110.6 secs

     End of self-consistent calculation

 ------ SPIN UP ------------


          k = 0.0000 0.0000 0.0000 ( 45819 PWs)   bands (ev):

   -22.5414 -22.5333 -22.4422 -22.4359 -19.8765 -19.8614 -19.8149 -19.8083
   -19.8064 -19.8030 -19.7840 -19.7732 -15.9460 -15.8815 -15.8764 -15.8526
   -14.4377 -14.4044 -14.4017 -14.3642 -11.9981 -11.8803 -11.8654 -11.8512
   -11.1463 -11.1229 -11.0955 -11.0361  -9.6683  -9.4606  -9.4367  -9.3654
    -8.4318  -8.0033  -7.9607  -7.8984  -7.8040  -7.8013  -7.7255  -7.7161
    -7.0215  -6.9244  -6.8857  -6.8020  -6.7198  -6.6058  -6.4977  -6.4446
    -6.4011  -6.3727  -6.2321  -6.1841  -6.1624  -6.0613  -6.0200  -5.9757
    -5.9382  -5.8326  -5.6409  -5.5004  -5.4286  -5.3435  -5.2870  -5.2682
    -4.7482  -4.6492  -4.2499  -4.2391  -3.8092  -3.6811  -3.6351  -3.6105
    -3.5775  -3.5627  -3.5137  -3.4344  -3.4089  -3.3414  -3.3078  -3.2847
    -3.1756  -2.8642  -2.7842  -2.6690  -2.6385  -2.5997  -2.5952  -2.5225
    -2.4226  -2.4162  -2.3590  -2.3473  -2.2815  -2.2716  -2.2204  -2.1281
    -2.0826  -1.9926  -0.6683  -0.6291  -0.4429  -0.4257   1.9433   1.9575
     1.9885   2.0518   3.3893   3.4742   3.5194   3.6847   3.8530   4.1987
     4.4834   4.5558   4.7048   4.7416   4.9542   5.3100   5.6139   5.6854
     5.7658   5.8881

 ------ SPIN DOWN ----------


          k = 0.0000 0.0000 0.0000 ( 45819 PWs)   bands (ev):

   -22.4345 -22.4257 -22.3357 -22.3289 -19.8413 -19.8252 -19.7515 -19.7414
   -19.6807 -19.6716 -19.6667 -19.6634 -15.9064 -15.8425 -15.8372 -15.8125
   -14.4002 -14.3667 -14.3640 -14.3264 -11.9513 -11.8371 -11.8197 -11.8088
   -11.1150 -11.0918 -11.0650 -11.0063  -9.6357  -9.4294  -9.4069  -9.3334
    -8.3650  -7.9310  -7.9141  -7.8434  -7.7584  -7.7359  -7.6868  -7.6396
    -6.8956  -6.8311  -6.7471  -6.6930  -6.6259  -6.4842  -6.3946  -6.3356
    -6.3063  -6.2252  -6.1501  -6.1061  -6.0837  -6.0309  -5.9826  -5.9492
    -5.8826  -5.7554  -5.5918  -5.4735  -5.3810  -5.2671  -5.2657  -5.2512
    -4.6053  -4.0755  -3.7980  -3.7784  -3.5967  -3.5456  -3.5422  -3.5044
    -3.4649  -3.2796  -3.2377  -3.2109  -2.9117  -2.9002  -2.8093  -2.7978
    -2.7241  -2.6081  -2.5087  -2.4867  -2.4336  -2.4120  -2.2292  -2.1886
    -2.1598  -2.0718  -2.0415  -1.9035  -1.7385  -1.4787  -1.4676  -1.4537
    -1.4334  -1.3202   0.1690   0.1791   0.3388   0.3599   2.0454   2.0469
     2.1068   2.1423   3.4483   3.5185   3.5926   3.7600   3.9310   4.2415
     4.5266   4.6125   4.7739   4.7975   5.0054   5.3545   5.6593   5.7133
     5.8128   5.9478

     the spin up/dw Fermi energies are    -0.0381   -0.3431 ev

!    total energy              =    -811.07036445 Ry
     Harris-Foulkes estimate   =    -811.07036449 Ry
     estimated scf accuracy    <       0.00000031 Ry

     The total energy is the sum of the following terms:

     one-electron contribution =   -1221.44545826 Ry
     hartree contribution      =     680.83302480 Ry
     xc contribution           =    -247.81210938 Ry
     ewald contribution        =     -23.86142810 Ry
     Dispersion Correction     =      -0.20104116 Ry
     smearing contrib. (-TS)   =       1.41664765 Ry

     total magnetization       =     4.00 Bohr mag/cell
     absolute magnetization    =     4.08 Bohr mag/cell

     convergence has been achieved in  13 iterations

     negative rho (up, down):  0.000E+00 2.463E-03

     Forces acting on atoms (cartesian axes, Ry/au):

     atom    1 type  1   force =    -0.00793099   -0.00793015   -0.03292402
     atom    2 type  2   force =     0.02710843    0.00784816    0.00335751
     atom    3 type  4   force =    -0.02871104   -0.02188163   -0.00374496
     atom    4 type  4   force =    -0.02945621    0.02148879   -0.00401158
     atom    5 type  4   force =     0.02963445    0.02290662    0.00095722
     atom    6 type  4   force =     0.02982100   -0.02296777   -0.00036116
     atom    7 type  4   force =     0.01663288   -0.02018382   -0.02373796
     atom    8 type  4   force =     0.01569835    0.02048745   -0.02468736
     atom    9 type  4   force =    -0.01503208    0.02783519   -0.02077138
     atom   10 type  4   force =    -0.01580480   -0.02703204   -0.02214970
     atom   11 type  5   force =    -0.02035211   -0.02406163    0.02750542
     atom   12 type  5   force =    -0.01989078    0.02309872    0.02792909
     atom   13 type  5   force =     0.00877987    0.01958244    0.02309868
     atom   14 type  5   force =     0.00930261   -0.01973708    0.02387602
     atom   15 type  6   force =    -0.01794070    0.06951675   -0.09839569
     atom   16 type  6   force =    -0.01776030   -0.06976795   -0.09841302
     atom   17 type  3   force =    -0.02225393    0.00446630   -0.01592363
     atom   18 type  3   force =    -0.02222908   -0.00446545   -0.01588814
     atom   19 type  6   force =     0.01464067    0.03761339   -0.01998188
     atom   20 type  6   force =     0.01462699   -0.03759800   -0.01988374
     atom   21 type  6   force =     0.10341410    0.07064351   -0.02507515
     atom   22 type  6   force =     0.10328954   -0.07066627   -0.02512849
     atom   23 type  3   force =     0.02212531    0.00241609    0.01297895
     atom   24 type  3   force =     0.02217845   -0.00242706    0.01298825
     atom   25 type  6   force =     0.02206895   -0.07436182   -0.09118074
     atom   26 type  6   force =     0.02182013    0.07442252   -0.09128201
     atom   27 type  3   force =     0.02232204   -0.00302330   -0.01418322
     atom   28 type  3   force =     0.02236462    0.00306391   -0.01425349
     atom   29 type  6   force =     0.10051842    0.07741150    0.01352907
     atom   30 type  6   force =     0.10023247   -0.07781643    0.01411486
     atom   31 type  3   force =     0.02280285    0.01108657   -0.00195857
     atom   32 type  3   force =     0.02283122   -0.01104242   -0.00198391
     atom   33 type  6   force =    -0.10746169   -0.07635191    0.01826780
     atom   34 type  6   force =    -0.10776679    0.07654656    0.01856299
     atom   35 type  3   force =    -0.02772720   -0.00897537   -0.00031912
     atom   36 type  3   force =    -0.02767003    0.00892919   -0.00026841
     atom   37 type  6   force =     0.02271541   -0.07436234    0.09948658
     atom   38 type  6   force =     0.02268909    0.07410546    0.09922400
     atom   39 type  3   force =     0.01472669   -0.01022119    0.02434644
     atom   40 type  3   force =     0.01477502    0.01016159    0.02436070
     atom   41 type  6   force =    -0.02254344    0.08381831    0.09564475
     atom   42 type  6   force =    -0.02184132   -0.08419026    0.09574954
     atom   43 type  3   force =    -0.01466775    0.01286116    0.02160945
     atom   44 type  3   force =    -0.01471546   -0.01258146    0.02161396
     atom   45 type  6   force =    -0.09571533   -0.07866530   -0.01933936
     atom   46 type  6   force =    -0.09566708    0.07889681   -0.01945590
     atom   47 type  3   force =    -0.01917095    0.00050963    0.01102374
     atom   48 type  3   force =    -0.01922835   -0.00047231    0.01103110
     atom   49 type  6   force =    -0.01787668   -0.03757923   -0.02621433
     atom   50 type  6   force =    -0.01791419    0.03746859   -0.02605512
     atom   51 type  6   force =    -0.00605242   -0.02774098    0.01178863
     atom   52 type  6   force =    -0.00440921    0.02756275    0.01228261
     atom   53 type  6   force =     0.00538373    0.02907103    0.01679190
     atom   54 type  6   force =     0.00528663   -0.02771580    0.01545278

     Total force =     0.546745     Total SCF correction =     0.000578

     number of scf cycles    =   3
     number of bfgs steps    =   1

     energy   old            =    -810.6857291915 Ry
     energy   new            =    -811.0703644536 Ry

     CASE: energy  _new < energy  _old

     new trust radius        =       0.0866620254 bohr
     new conv_thr            =       0.0000010000 Ry


ATOMIC_POSITIONS (crystal)
Ni1      0.493562979   0.753433181   0.836798868
Ni2      0.997838690   0.246536128   0.339380333
O        0.238333295   0.347894535   0.391965641
O        0.738266900   0.652094034   0.891922893
O        0.757889064   0.134927366   0.369642630
O        0.257953150   0.865064013   0.869555105
O        0.936006470   0.350382377   0.495718536
O        0.435908934   0.649637529   0.995647680
O        0.067148077   0.122032509   0.472842691
O        0.567124091   0.878003763   0.972732992
N        0.625441494   0.841574859   0.697943916
N        0.125449611   0.158369215   0.197964870
N        0.361716624   0.646935055   0.716674512
N        0.861751704   0.353063435   0.216715827
C        0.594298344   0.960131360   0.514025447
C        0.094308264   0.039861296   0.014024436
H        0.490242146   0.988687188   0.437257540
H       -0.009755512   0.011313580   0.937259473
C        0.794968856   0.999692938   0.533141563
C        0.294968117   0.000310334   0.033148757
C        0.913148861   0.956082429   0.631836049
C        0.413149527   0.043919378   0.131833096
H        0.074740991   0.979891504   0.652765552
H        0.574745114   0.020108946   0.152766226
C        0.401796623   0.518423394   0.545110916
C        0.901782454   0.481578463   0.045102558
H        0.504989039   0.488481353   0.471307673
H        1.004992787   0.511520935   0.971303591
C        0.476627937   0.603799549   0.623248257
C        0.976608164   0.396189666   0.123274302
H        0.633345571   0.634496960   0.606797699
H        0.133349468   0.365505713   0.106796078
C        0.514510606   0.880117521   0.597234283
C        0.014485950   0.119888029   0.097249940
H        0.357224794   0.849979788   0.577993519
H        0.857230623   0.150018428   0.077996140
C        0.823708671   0.877041360   0.713008365
C        0.323710980   0.122952633   0.213000376
H        0.921724000   0.845128901   0.790149086
H        0.421720031   0.154864492   0.290143790
C        0.170493190   0.605696035   0.733963055
C        0.670539880   0.394296208   0.233973441
H        0.070978535   0.638015392   0.807774683
H        0.570979120   0.362003696   0.307770577
C        0.087504134   0.519017368   0.659314089
C        0.587500851   0.480992953   0.159309043
H        0.930547687   0.490127481   0.681334765
H        0.430543241   0.509875088   0.181335430
C        0.204759151   0.475105919   0.563462891
C        0.704760557   0.524888229   0.063471294
C        0.875095733   0.086319546   0.456492482
C        0.375228096   0.913676070   0.956516555
C        0.125436111   0.389325100   0.483461834
C        0.625420223   0.610726778   0.983398650



     Writing output data file nipyc_from_cif_no-vol.save/
     Message from routine punch:
     wavefunctions written to file
     NEW-OLD atomic charge density approx. for the potential

     Check: negative core charge=   -0.000145

     negative rho (up, down):  0.000E+00 7.080E-04

     total cpu time spent up to now is      119.3 secs

     Self-consistent Calculation

[...]
     Davidson diagonalization with overlap
     ethr =  1.80E-09,  avg # of iterations =  2.0

     negative rho (up, down):  0.000E+00 3.471E-03

     total cpu time spent up to now is     1252.7 secs

     total energy              =    -811.25602627 Ry
     Harris-Foulkes estimate   =    -811.25602660 Ry
     estimated scf accuracy    <       0.00000319 Ry

     total magnetization       =     4.00 Bohr mag/cell
     absolute magnetization    =     4.12 Bohr mag/cell

     iteration #  6     ecut=   100.00 Ry     beta= 0.70
     Davidson diagonalization with overlap
     ethr =  1.60E-09,  avg # of iterations =  1.0

     negative rho (up, down):  0.000E+00 3.463E-03

     total cpu time spent up to now is     1254.1 secs

     total energy              =    -811.25602645 Ry
     Harris-Foulkes estimate   =    -811.25602644 Ry
     estimated scf accuracy    <       0.00000013 Ry

     total magnetization       =     4.00 Bohr mag/cell
     absolute magnetization    =     4.12 Bohr mag/cell

     iteration #  7     ecut=   100.00 Ry     beta= 0.70
     Davidson diagonalization with overlap
     ethr =  6.69E-11,  avg # of iterations =  3.0

     negative rho (up, down):  0.000E+00 3.467E-03

     total cpu time spent up to now is     1255.8 secs

     total energy              =    -811.25602646 Ry
     Harris-Foulkes estimate   =    -811.25602647 Ry
     estimated scf accuracy    <       0.00000008 Ry

     total magnetization       =     4.00 Bohr mag/cell
     absolute magnetization    =     4.12 Bohr mag/cell

     iteration #  8     ecut=   100.00 Ry     beta= 0.70
     Davidson diagonalization with overlap
     ethr =  4.16E-11,  avg # of iterations =  1.0

     negative rho (up, down):  0.000E+00 3.466E-03

     total cpu time spent up to now is     1257.2 secs

     total energy              =    -811.25602646 Ry
     Harris-Foulkes estimate   =    -811.25602647 Ry
     estimated scf accuracy    <       0.00000003 Ry

     total magnetization       =     4.00 Bohr mag/cell
     absolute magnetization    =     4.12 Bohr mag/cell

     iteration #  9     ecut=   100.00 Ry     beta= 0.70
     Davidson diagonalization with overlap
     ethr =  1.39E-11,  avg # of iterations =  2.5

     negative rho (up, down):  0.000E+00 3.465E-03

     total cpu time spent up to now is     1258.7 secs

     total energy              =    -811.25602646 Ry
     Harris-Foulkes estimate   =    -811.25602646 Ry
     estimated scf accuracy    <       0.00000001 Ry

     total magnetization       =     4.00 Bohr mag/cell
     absolute magnetization    =     4.12 Bohr mag/cell

     iteration # 10     ecut=   100.00 Ry     beta= 0.70
     Davidson diagonalization with overlap
     ethr =  6.44E-12,  avg # of iterations =  1.5

     negative rho (up, down):  0.000E+00 3.458E-03
 
     Magnetic moment per site:
     atom:    1    charge:    7.5223    magn:    1.1537    constr:    0.0000
     atom:    2    charge:    7.5243    magn:    1.1519    constr:    0.0000
     atom:    3    charge:    3.0716    magn:    0.0594    constr:    0.0000
     atom:    4    charge:    3.0482    magn:    0.0610    constr:    0.0000
     atom:    5    charge:    2.8636    magn:    0.0561    constr:    0.0000
     atom:    6    charge:    2.8704    magn:    0.0565    constr:    0.0000
     atom:    7    charge:    2.9016    magn:    0.0582    constr:    0.0000
     atom:    8    charge:    2.8215    magn:    0.0583    constr:    0.0000
     atom:    9    charge:    2.8109    magn:    0.0576    constr:    0.0000
     atom:   10    charge:    2.7239    magn:    0.0556    constr:    0.0000
     atom:   11    charge:    2.2920    magn:    0.0154    constr:    0.0000
     atom:   12    charge:    2.2979    magn:    0.0156    constr:    0.0000
     atom:   13    charge:    2.3436    magn:    0.0149    constr:    0.0000
     atom:   14    charge:    2.3497    magn:    0.0153    constr:    0.0000
     atom:   15    charge:    0.5329    magn:    0.0050    constr:    0.0000
     atom:   16    charge:    0.5353    magn:    0.0050    constr:    0.0000
     atom:   17    charge:    0.4039    magn:   -0.0008    constr:    0.0000
     atom:   18    charge:    0.4044    magn:   -0.0008    constr:    0.0000
     atom:   19    charge:    0.5120    magn:    0.0037    constr:    0.0000
     atom:   20    charge:    0.5108    magn:    0.0038    constr:    0.0000
     atom:   21    charge:    0.4914    magn:    0.0053    constr:    0.0000
     atom:   22    charge:    0.4876    magn:    0.0054    constr:    0.0000
     atom:   23    charge:    0.3249    magn:   -0.0006    constr:    0.0000
     atom:   24    charge:    0.3209    magn:   -0.0005    constr:    0.0000
     atom:   25    charge:    0.5293    magn:    0.0044    constr:    0.0000
     atom:   26    charge:    0.5360    magn:    0.0044    constr:    0.0000
     atom:   27    charge:    0.4035    magn:   -0.0005    constr:    0.0000
     atom:   28    charge:    0.4134    magn:   -0.0005    constr:    0.0000
     atom:   29    charge:    0.5279    magn:    0.0037    constr:    0.0000
     atom:   30    charge:    0.5380    magn:    0.0036    constr:    0.0000
     atom:   31    charge:    0.4327    magn:   -0.0005    constr:    0.0000
     atom:   32    charge:    0.4552    magn:   -0.0006    constr:    0.0000
     atom:   33    charge:    0.5366    magn:    0.0042    constr:    0.0000
     atom:   34    charge:    0.5406    magn:    0.0042    constr:    0.0000
     atom:   35    charge:    0.4116    magn:   -0.0006    constr:    0.0000
     atom:   36    charge:    0.4112    magn:   -0.0007    constr:    0.0000
     atom:   37    charge:    0.5088    magn:    0.0045    constr:    0.0000
     atom:   38    charge:    0.5066    magn:    0.0045    constr:    0.0000
     atom:   39    charge:    0.3665    magn:   -0.0001    constr:    0.0000
     atom:   40    charge:    0.3702    magn:   -0.0001    constr:    0.0000
     atom:   41    charge:    0.5584    magn:    0.0038    constr:    0.0000
     atom:   42    charge:    0.5587    magn:    0.0037    constr:    0.0000
     atom:   43    charge:    0.3814    magn:   -0.0005    constr:    0.0000
     atom:   44    charge:    0.3737    magn:   -0.0005    constr:    0.0000
     atom:   45    charge:    0.5528    magn:    0.0044    constr:    0.0000
     atom:   46    charge:    0.5545    magn:    0.0044    constr:    0.0000
     atom:   47    charge:    0.3761    magn:   -0.0010    constr:    0.0000
     atom:   48    charge:    0.3751    magn:   -0.0010    constr:    0.0000
     atom:   49    charge:    0.5445    magn:    0.0033    constr:    0.0000
     atom:   50    charge:    0.5456    magn:    0.0033    constr:    0.0000
     atom:   51    charge:    0.5107    magn:   -0.0014    constr:    0.0000
     atom:   52    charge:    0.5060    magn:   -0.0014    constr:    0.0000
     atom:   53    charge:    0.5372    magn:   -0.0015    constr:    0.0000
     atom:   54    charge:    0.5282    magn:   -0.0016    constr:    0.0000

     total cpu time spent up to now is     1260.0 secs

     End of self-consistent calculation

 ------ SPIN UP ------------


          k = 0.0000 0.0000 0.0000 ( 45819 PWs)   bands (ev):

   -22.6014 -22.5921 -22.4709 -22.4649 -19.5738 -19.5584 -19.5510 -19.5412
   -19.2621 -19.2401 -19.1525 -19.1396 -15.5146 -15.4409 -15.4269 -15.4045
   -14.1860 -14.1439 -14.1315 -14.0820 -11.7858 -11.6491 -11.6259 -11.6026
   -11.0519 -11.0244 -11.0056 -10.9346  -9.3955  -9.1633  -9.1464  -9.0796
    -8.3166  -7.8528  -7.7373  -7.7029  -7.5548  -7.5099  -7.4951  -7.4098
    -6.9264  -6.7391  -6.7240  -6.6868  -6.6295  -6.6020  -6.4460  -6.3858
    -6.3493  -6.3427  -6.2576  -6.2349  -6.2226  -6.1730  -6.1483  -5.9419
    -5.6699  -5.5951  -5.5412  -5.4820  -5.2720  -5.2345  -5.2139  -5.0114
    -4.7379  -4.5827  -4.2469  -4.0803  -4.0092  -3.9344  -3.9239  -3.8081
    -3.6523  -3.5738  -3.5697  -3.5478  -3.2549  -3.2452  -3.2181  -3.2081
    -2.9825  -2.7168  -2.6070  -2.5391  -2.5164  -2.5126  -2.5005  -2.3729
    -2.2330  -2.2138  -2.2003  -2.1308  -2.1161  -2.0903  -2.0294  -1.9575
    -1.9073  -1.7995  -0.3242  -0.2750  -0.0354  -0.0111   1.8962   1.9128
     1.9377   2.0216   2.9638   3.1102   3.2457   3.4269   3.5276   4.2386
     4.3950   4.4629   4.6161   4.6358   4.9842   5.3481   5.6426   5.7333
     5.8990   6.0639

 ------ SPIN DOWN ----------


          k = 0.0000 0.0000 0.0000 ( 45819 PWs)   bands (ev):

   -22.4813 -22.4703 -22.3514 -22.3438 -19.4198 -19.4014 -19.3958 -19.3844
   -19.2226 -19.2005 -19.1137 -19.1004 -15.4712 -15.3983 -15.3838 -15.3606
   -14.1427 -14.1004 -14.0879 -14.0381 -11.7350 -11.6025 -11.5763 -11.5566
   -11.0171 -10.9900 -10.9720 -10.9015  -9.3600  -9.1287  -9.1158  -9.0476
    -8.2419  -7.7668  -7.6770  -7.6222  -7.4913  -7.4485  -7.4100  -7.3613
    -6.7942  -6.6344  -6.5776  -6.5453  -6.5133  -6.4930  -6.3537  -6.3320
    -6.2877  -6.2739  -6.1625  -6.1519  -6.1376  -6.0735  -6.0477  -5.8468
    -5.5843  -5.5696  -5.5208  -5.4053  -5.2417  -5.2069  -5.1234  -4.9189
    -4.5850  -4.0460  -4.0270  -3.9922  -3.9131  -3.8801  -3.7271  -3.5510
    -3.4128  -3.3094  -3.1434  -3.1186  -2.8576  -2.8089  -2.7324  -2.7238
    -2.6419  -2.4146  -2.3689  -2.3407  -2.3324  -2.2798  -2.0163  -2.0005
    -1.9089  -1.8821  -1.8534  -1.7115  -1.6761  -1.3550  -1.3455  -1.3296
    -1.3222  -1.1985   0.4627   0.4958   0.6806   0.7256   2.0010   2.0339
     2.0762   2.1291   3.0586   3.2075   3.3435   3.5288   3.5661   4.2956
     4.4668   4.5244   4.7006   4.7106   5.0353   5.3968   5.6803   5.7696
     5.9361   6.1234

     the spin up/dw Fermi energies are     0.1651   -0.1987 ev

!    total energy              =    -811.25602646 Ry
     Harris-Foulkes estimate   =    -811.25602646 Ry
     estimated scf accuracy    <          3.2E-09 Ry

     The total energy is the sum of the following terms:

     one-electron contribution =   -1218.66716210 Ry
     hartree contribution      =     679.64251536 Ry
     xc contribution           =    -246.43124352 Ry
     ewald contribution        =     -26.97227952 Ry
     Dispersion Correction     =      -0.20858813 Ry
     smearing contrib. (-TS)   =       1.38073145 Ry

     total magnetization       =     4.00 Bohr mag/cell
     absolute magnetization    =     4.12 Bohr mag/cell

     convergence has been achieved in  10 iterations

     negative rho (up, down):  0.000E+00 3.458E-03

     Forces acting on atoms (cartesian axes, Ry/au):

     atom    1 type  1   force =    -0.00008048   -0.00073637   -0.00021282
     atom    2 type  2   force =    -0.00010476   -0.00089047    0.00007528
     atom    3 type  4   force =     0.00026989   -0.00000868   -0.00016800
     atom    4 type  4   force =    -0.00092930    0.00057608   -0.00006615
     atom    5 type  4   force =     0.00013902    0.00025053   -0.00009365
     atom    6 type  4   force =    -0.00004456    0.00040848   -0.00050106
     atom    7 type  4   force =    -0.00004383   -0.00049356    0.00023367
     atom    8 type  4   force =    -0.00011753    0.00036638    0.00087950
     atom    9 type  4   force =    -0.00000971    0.00008897   -0.00018513
     atom   10 type  4   force =     0.00011778    0.00001643    0.00008441
     atom   11 type  5   force =    -0.00048482    0.00001934    0.00078439
     atom   12 type  5   force =    -0.00061178    0.00029270    0.00020086
     atom   13 type  5   force =    -0.00047272    0.00047328   -0.00037066
     atom   14 type  5   force =    -0.00015879   -0.00023858   -0.00007821
     atom   15 type  6   force =     0.00014722   -0.00037589   -0.00013874
     atom   16 type  6   force =     0.00028732    0.00027997    0.00004313
     atom   17 type  3   force =    -0.00014474    0.00024912    0.00010097
     atom   18 type  3   force =     0.00026676   -0.00032407    0.00013781
     atom   19 type  6   force =    -0.00017410    0.00010617    0.00024725
     atom   20 type  6   force =     0.00041540    0.00004408    0.00053850
     atom   21 type  6   force =     0.00067414   -0.00042362    0.00039915
     atom   22 type  6   force =    -0.00037231    0.00068484    0.00007672
     atom   23 type  3   force =    -0.00003844   -0.00017993    0.00044879
     atom   24 type  3   force =     0.00009592    0.00007096    0.00014583
     atom   25 type  6   force =    -0.00050467    0.00029351    0.00076166
     atom   26 type  6   force =     0.00016692   -0.00029480   -0.00037742
     atom   27 type  3   force =     0.00003057   -0.00022241    0.00003580
     atom   28 type  3   force =     0.00077630    0.00042866   -0.00023953
     atom   29 type  6   force =    -0.00005508   -0.00035677   -0.00037311
     atom   30 type  6   force =     0.00029950   -0.00045912   -0.00012639
     atom   31 type  3   force =    -0.00027868   -0.00016535    0.00038336
     atom   32 type  3   force =     0.00004851   -0.00017888    0.00008878
     atom   33 type  6   force =    -0.00019904   -0.00028157   -0.00010930
     atom   34 type  6   force =     0.00003680    0.00010235   -0.00019769
     atom   35 type  3   force =    -0.00035504    0.00031917   -0.00029639
     atom   36 type  3   force =     0.00004940   -0.00082821   -0.00008600
     atom   37 type  6   force =    -0.00032846   -0.00050130    0.00028966
     atom   38 type  6   force =    -0.00045278    0.00034498    0.00024418
     atom   39 type  3   force =     0.00037876   -0.00032744    0.00003969
     atom   40 type  3   force =    -0.00009138   -0.00001686   -0.00054360
     atom   41 type  6   force =     0.00033697   -0.00046573   -0.00000737
     atom   42 type  6   force =     0.00010702   -0.00000976    0.00025168
     atom   43 type  3   force =     0.00077518    0.00024427   -0.00024360
     atom   44 type  3   force =    -0.00023740    0.00004835   -0.00031108
     atom   45 type  6   force =     0.00092540   -0.00013016    0.00004376
     atom   46 type  6   force =     0.00006815   -0.00000428   -0.00009870
     atom   47 type  3   force =     0.00010171    0.00019440   -0.00026688
     atom   48 type  3   force =    -0.00030310    0.00056970   -0.00055943
     atom   49 type  6   force =    -0.00010061    0.00047515   -0.00042566
     atom   50 type  6   force =     0.00006616   -0.00055422   -0.00031597
     atom   51 type  6   force =     0.00003636    0.00055003   -0.00007018
     atom   52 type  6   force =    -0.00023499    0.00022611    0.00015702
     atom   53 type  6   force =     0.00089491    0.00068425   -0.00054451
     atom   54 type  6   force =    -0.00058297    0.00005980    0.00031537

     Total force =     0.004607     Total SCF correction =     0.000137

     bfgs converged in  47 scf cycles and  45 bfgs steps
     (criteria: energy <  1.0E-04 Ry, force <  1.0E-03 Ry/Bohr)

     End of BFGS Geometry Optimization

     Final energy   =    -811.2560264616 Ry
Begin final coordinates

ATOMIC_POSITIONS (crystal)
Ni1      0.494004364   0.751485533   0.836326156
Ni2      0.999944518   0.247999303   0.339178451
O        0.245557155   0.347689283   0.382873137
O        0.742416426   0.650976679   0.881292256
O        0.755261494   0.147506974   0.377177628
O        0.250196290   0.852351660   0.876261152
O        0.946138099   0.356160227   0.482993849
O        0.442274935   0.641414985   0.979876699
O        0.057678644   0.135158432   0.481077643
O        0.553371656   0.862758359   0.979398754
N        0.616875393   0.851253262   0.704828173
N        0.121458891   0.148856964   0.206052008
N        0.373085059   0.650310312   0.705838424
N        0.877620005   0.350927996   0.208040870
C        0.576425066   0.970049791   0.521983519
C        0.076757603   0.031106308   0.022308115
H        0.474248887   0.999575453   0.443113388
H       -0.026924041   0.002692474   0.943498642
C        0.781269316   1.011770323   0.546492125
C        0.280489084  -0.012256055   0.046146276
C        0.903830097   0.970201584   0.650370830
C        0.405040825   0.028353494   0.149893435
H        0.064124693   0.998804836   0.673519612
H        0.564680819  -0.001334869   0.172602430
C        0.416363082   0.529704383   0.526383527
C        0.917090718   0.471408673   0.027903853
H        0.517400546   0.500894781   0.449282062
H        1.017282007   0.500397400   0.950548014
C        0.490274308   0.613330663   0.606435243
C        0.993638178   0.388677444   0.108617299
H        0.645281910   0.650506221   0.592635121
H        0.149937080   0.352850627   0.095027895
C        0.498952028   0.889205565   0.603202768
C        0.002139077   0.112231897   0.104247473
H        0.340307822   0.855123175   0.588560405
H        0.844644675   0.147731997   0.089885744
C        0.815954227   0.889383079   0.727552472
C        0.319868856   0.109546552   0.227811511
H        0.906740041   0.855172958   0.808760938
H        0.412478570   0.143102749   0.308797104
C        0.177723898   0.608982560   0.727351853
C        0.681780422   0.391633092   0.229393612
H        0.087457657   0.642944264   0.806607884
H        0.592757154   0.357525721   0.309051007
C        0.093849921   0.525079510   0.651311724
C        0.595315654   0.474710720   0.152753497
H        0.937343157   0.493231414   0.673501924
H        0.437904548   0.505200711   0.175263672
C        0.216328387   0.484270342   0.550116218
C        0.715665209   0.515655629   0.050638246
C        0.866619347   0.099319024   0.466620783
C        0.363034997   0.899719961   0.965671916
C        0.134755354   0.394473514   0.470675622
C        0.632085894   0.604172066   0.969107041
End final coordinates



     Writing output data file nipyc_from_cif_no-vol.save/
 
     init_run     :      5.95s CPU      8.22s WALL (       1 calls)
     electrons    :    812.72s CPU    835.74s WALL (      47 calls)
     update_pot   :    197.99s CPU    198.26s WALL (      46 calls)
     forces       :    144.15s CPU    144.41s WALL (      47 calls)

     Called by init_run:
     wfcinit      :      1.33s CPU      2.39s WALL (       1 calls)
     potinit      :      1.68s CPU      1.82s WALL (       1 calls)
     hinit0       :      2.28s CPU      3.23s WALL (       1 calls)

     Called by electrons:
     c_bands      :    541.25s CPU    552.08s WALL (     496 calls)
     sum_band     :     99.50s CPU    102.14s WALL (     496 calls)
     v_of_rho     :     95.95s CPU     96.72s WALL (     535 calls)
     mix_rho      :     67.77s CPU     68.67s WALL (     496 calls)

     Called by c_bands:
     init_us_2    :      3.71s CPU      3.75s WALL (     993 calls)
     regterg      :    530.08s CPU    540.44s WALL (     496 calls)

     Called by sum_band:

     Called by *egterg:
     h_psi        :    363.06s CPU    372.91s WALL (    1720 calls)
     g_psi        :      3.02s CPU      3.05s WALL (    1223 calls)
     rdiaghg      :    112.25s CPU    113.28s WALL (    1665 calls)

     Called by h_psi:
     h_psi:pot    :    362.30s CPU    372.11s WALL (    1720 calls)
     h_psi:calbec :      6.28s CPU      6.59s WALL (    1720 calls)
     vloc_psi     :    351.56s CPU    360.92s WALL (    1720 calls)
     add_vuspsi   :      4.38s CPU      4.54s WALL (    1720 calls)

     General routines
     calbec       :      7.13s CPU      7.48s WALL (    1908 calls)
     fft          :     56.35s CPU     57.91s WALL (    8557 calls)
     ffts         :     55.97s CPU     56.60s WALL (    8491 calls)
     fftw         :    401.01s CPU    411.21s WALL (  172538 calls)
     davcio       :      0.01s CPU      0.19s WALL (      46 calls)
 
     Parallel routines
     fft_scatt_xy :     49.34s CPU     51.57s WALL (  189586 calls)
     fft_scatt_yz :    327.60s CPU    332.03s WALL (  189586 calls)
 
     PWSCF        :  19m51.94s CPU  21m 8.82s WALL

 
   This run was terminated on:   8:44: 5  29Apr2020            

=------------------------------------------------------------------------------=
   JOB DONE.
=------------------------------------------------------------------------------=
