Created on Tue Aug 25 11:51:36 2020 

         140 atoms
         160 bonds
         300 angles
         296 dihedrals
         168 impropers

           7 atom types
          10 bond types
          18 angle types
           5 dihedral types
           1 improper types
           0.000000  12.505600 xlo xhi
           0.000000  12.523400 ylo yhi
           0.000000  10.274279 zlo zhi
           0.000000  -0.227594   0.000000 xy xz yz

Masses

    1    58.693400000 # Ni4+2
    2    15.999400000 # O_R
    3    14.006700000 # N_R
    4    12.010700000 # C_R
    5     1.007940000 # H_
    6    15.999400000 # O_3
    7    12.010700000 # C_3

Bond Coeffs

    1      321.720028        1.793457  # Ni4+2 O_R
    2      328.673665        1.841585  # Ni4+2 N_R
    3      646.680887        1.311940  # O_R C_R
    4      663.718927        1.345073  # N_R C_R
    5      462.655054        1.379256  # C_R C_R
    6      357.440381        1.081418  # C_R H_
    7      391.669513        1.458000  # C_R C_R
    8      572.510195        1.366311  # C_R O_3
    9      539.248552        1.393845  # O_3 C_3
   10      331.069389        1.109401  # C_3 H_

Angle Coeffs

    1              cosine/periodic      322.980216               1               4 # O_R Ni4+2 O_R
    2              cosine/periodic      343.030950               1               4 # O_R Ni4+2 N_R
    3              cosine/periodic      364.965660               1               4 # N_R Ni4+2 N_R
    4              cosine/periodic      238.346347              -1               3 # C_R O_R Ni4+2
    5              cosine/periodic      177.809033              -1               3 # Ni4+2 N_R C_R
    6              cosine/periodic      240.001032              -1               3 # C_R N_R C_R
    7              cosine/periodic      114.578032              -1               3 # C_R C_R H_
    8              cosine/periodic      222.595017              -1               3 # C_R C_R C_R
    9              cosine/periodic      204.366560              -1               3 # C_R C_R C_R
   10              cosine/periodic      307.398705              -1               3 # N_R C_R C_R
   11              cosine/periodic      159.573934              -1               3 # N_R C_R H_
   12              cosine/periodic      375.147287              -1               3 # N_R C_R O_3
   13              cosine/periodic      271.563462              -1               3 # C_R C_R O_3
   14              cosine/periodic      263.511421              -1               3 # O_R C_R C_R
   15              cosine/periodic      374.272657              -1               3 # O_R C_R O_R
   16                      fourier      320.948910        0.300235        0.267331        0.266745 # C_R O_3 C_3
   17                      fourier      165.777838        0.343737        0.374972        0.281246 # O_3 C_3 H_
   18                      fourier       75.498766        0.343737        0.374972        0.281246 # H_ C_3 H_

Dihedral Coeffs

    1        2.245703              -1               2 # Ni4+2 O_R C_R C_R
    2        1.497136              -1               2 # Ni4+2 N_R C_R C_R
    3        0.555556              -1               2 # C_R C_R C_R O_R
    4        0.833333               1               2 # N_R C_R O_3 C_3
    5        0.128665               1               2 # C_R O_3 C_3 H_

Improper Coeffs

    1        2.000000        1.000000       -1.000000        0.000000               0 # Ni4+2 N_R C_R C_R

Pair Coeffs

    1        0.015000        2.524807 # Ni4+2 Ni4+2
    2        0.060000        3.118146 # O_R O_R
    3        0.069000        3.260689 # N_R N_R
    4        0.105000        3.430851 # C_R C_R
    5        0.044000        2.571134 # H_ H_
    6        0.060000        3.118146 # O_3 O_3
    7        0.105000        3.430851 # C_3 C_3

Atoms

       1      444        1     0.00000    2.89857    9.41116    8.59265
       2      444        1     0.00000    6.17525    3.10579    3.48481
       3      444        2     0.00000    1.44827    4.35425    3.93374
       4      444        2     0.00000    4.44160    8.15245    9.05464
       5      444        2     0.00000    4.63665    1.84729    3.87523
       6      444        2     0.00000    1.36499   10.67435    9.00295
       7      444        2     0.00000    5.80609    4.46033    4.96242
       8      444        2     0.00000    2.54244    8.03270   10.06753
       9      444        2     0.00000    0.25117    1.69264    4.94273
      10      444        2     0.00000    3.23722   10.80466   10.06262
      11      444        3     0.00000    3.69677   10.66058    7.24160
      12      444        3     0.00000    0.71256    1.86420    2.11704
      13      444        3     0.00000    2.17217    8.14409    7.25198
      14      444        3     0.00000    5.44023    4.39481    2.13747
      15      444        4     0.00000    3.48546   12.14832    5.36301
      16      444        4     0.00000    0.47488    0.38955    0.22920
      17      444        5     0.00000    2.86453   12.51808    4.55267
      18      444        5     0.00000    5.86971    0.03371    9.69377
      19      444        4     0.00000    4.76073    0.14740    5.61481
      20      444        4     0.00000    1.74333   12.36991    0.47412
      21      444        4     0.00000    5.50345   12.15023    6.68209
      22      444        4     0.00000    2.49852    0.35508    1.54004
      23      444        5     0.00000    0.24768   12.50843    6.91993
      24      444        5     0.00000    3.49155   12.50668    1.77336
      25      444        4     0.00000    2.48363    6.63370    5.40822
      26      444        4     0.00000    5.72803    5.90364    0.28669
      27      444        5     0.00000    3.13294    6.27291    4.61605
      28      444        5     0.00000   -0.10828    6.26667    9.76620
      29      444        4     0.00000    2.92756    7.68099    6.23068
      30      444        4     0.00000    6.18830    4.86756    1.11596
      31      444        5     0.00000    3.89994    8.14655    6.08890
      32      444        4     0.00000    2.98256   11.13588    6.19748
      33      444        4     0.00000   -0.01036    1.40553    1.07106
      34      444        4     0.00000    4.93641   11.13810    7.47507
      35      444        4     0.00000    1.94823    1.37190    2.34060
      36      444        5     0.00000    5.48559   10.70967    8.30944
      37      444        4     0.00000    0.94573    7.62654    7.47302
      38      444        4     0.00000    4.21083    4.90458    2.35686
      39      444        4     0.00000    0.43859    6.57577    6.69176
      40      444        4     0.00000    3.68763    5.94500    1.56944
      41      444        5     0.00000    5.70774    6.17693    6.91975
      42      444        5     0.00000    2.69824    6.32683    1.80071
      43      444        4     0.00000    1.22745    6.06471    5.65205
      44      444        4     0.00000    4.46338    6.45777    0.52027
      45      444        4     0.00000    5.31260    1.24381    4.79419
      46      444        4     0.00000    2.05020   11.26755    9.92158
      47      444        4     0.00000    0.73548    4.94016    4.83586
      48      444        4     0.00000    3.73174    7.56629    9.95688
      49      444        1     0.00000    9.15137    9.41116    8.59265
      50      444        1     0.00000   12.42805    3.10579    3.48481
      51      444        2     0.00000    7.70109    4.35425    3.93374
      52      444        2     0.00000   10.69440    8.15245    9.05464
      53      444        2     0.00000   10.88945    1.84729    3.87523
      54      444        2     0.00000    7.61779   10.67435    9.00295
      55      444        2     0.00000   12.05889    4.46033    4.96242
      56      444        2     0.00000    8.79524    8.03270   10.06753
      57      444        2     0.00000    6.50397    1.69264    4.94273
      58      444        2     0.00000    9.49002   10.80466   10.06262
      59      444        3     0.00000    9.94957   10.66058    7.24160
      60      444        3     0.00000    6.96536    1.86420    2.11704
      61      444        3     0.00000    8.42499    8.14409    7.25198
      62      444        3     0.00000   11.69303    4.39481    2.13747
      63      444        4     0.00000    9.73826   12.14832    5.36301
      64      444        4     0.00000    6.72768    0.38955    0.22920
      65      444        5     0.00000    9.11733   12.51808    4.55267
      66      444        5     0.00000   12.12251    0.03371    9.69377
      67      444        4     0.00000   11.01353    0.14740    5.61481
      68      444        4     0.00000    7.99613   12.36991    0.47412
      69      444        4     0.00000   11.75625   12.15023    6.68209
      70      444        4     0.00000    8.75132    0.35508    1.54004
      71      444        5     0.00000    6.50047   12.50843    6.91993
      72      444        5     0.00000    9.74435   12.50668    1.77336
      73      444        4     0.00000    8.73644    6.63370    5.40822
      74      444        4     0.00000   11.98084    5.90364    0.28669
      75      444        5     0.00000    9.38574    6.27291    4.61605
      76      444        5     0.00000    6.14452    6.26667    9.76620
      77      444        4     0.00000    9.18036    7.68099    6.23068
      78      444        4     0.00000   12.44110    4.86756    1.11596
      79      444        5     0.00000    7.16869    4.41889    0.97634
      80      444        4     0.00000    9.23536   11.13588    6.19748
      81      444        4     0.00000    6.24244    1.40553    1.07106
      82      444        5     0.00000    8.24672   10.70905    6.04703
      83      444        5     0.00000   11.51373    1.85011    0.92351
      84      444        4     0.00000   11.18921   11.13810    7.47507
      85      444        4     0.00000    8.20102    1.37190    2.34060
      86      444        5     0.00000    8.76167    1.79214    3.17267
      87      444        4     0.00000    7.19853    7.62654    7.47302
      88      444        4     0.00000   10.46363    4.90458    2.35686
      89      444        5     0.00000    6.61608    8.05184    8.28732
      90      444        5     0.00000    9.88885    4.47744    3.17528
      91      444        4     0.00000    6.69139    6.57577    6.69176
      92      444        4     0.00000    9.94043    5.94500    1.56944
      93      444        5     0.00000   11.96054    6.17693    6.91975
      94      444        5     0.00000    8.95104    6.32683    1.80071
      95      444        4     0.00000    7.48025    6.06471    5.65205
      96      444        4     0.00000   10.71618    6.45777    0.52027
      97      444        4     0.00000   11.56540    1.24381    4.79419
      98      444        4     0.00000    8.30300   11.26755    9.92158
      99      444        4     0.00000    6.98827    4.94016    4.83586
     100      444        4     0.00000    9.98454    7.56629    9.95688
     101      444        6     0.00000    1.71375   10.63852    5.90597
     102      444        7     0.00000    1.07252    9.64718    6.62089
     103      444        5     0.00000    0.08059    9.45591    6.16279
     104      444        5     0.00000    0.91802    9.96925    7.67281
     105      444        5     0.00000    1.66216    8.70619    6.58882
     106      444        6     0.00000    2.73831    1.85598    3.38508
     107      444        7     0.00000    2.35749    2.84862    4.26521
     108      444        5     0.00000    3.18128    3.02724    4.98621
     109      444        5     0.00000    1.45523    2.53525    4.83252
     110      444        5     0.00000    2.15863    3.79418    3.71699
     111      444        6     0.00000    0.12888    8.11709    8.49136
     112      444        7     0.00000    0.46985    9.14285    9.34960
     113      444        5     0.00000   12.13633    9.31856   10.05341
     114      444        5     0.00000    0.65205   10.07833    8.77882
     115      444        5     0.00000    1.37132    8.86907    9.93831
     116      444        6     0.00000    3.40110    4.41540    3.38370
     117      444        7     0.00000    3.75483    3.40032    4.24943
     118      444        5     0.00000    2.92013    3.22311    4.95812
     119      444        5     0.00000    3.94330    2.46157    3.68605
     120      444        5     0.00000    4.65607    3.68739    4.83210
     121      444        6     0.00000   11.96621   10.64147    8.52374
     122      444        7     0.00000   11.56790    9.65058    9.39809
     123      444        5     0.00000   -0.12107    9.46030   10.12422
     124      444        5     0.00000   11.36198    8.70907    8.84554
     125      444        5     0.00000   10.66535    9.97261    9.96011
     126      444        6     0.00000    4.98088    1.92437    0.78432
     127      444        7     0.00000    4.35641    2.92157    1.50587
     128      444        5     0.00000    3.36687    3.13095    1.05051
     129      444        5     0.00000    4.19854    2.59603    2.55623
     130      444        5     0.00000    4.96068    3.85338    1.47811
     131      444        6     0.00000   10.43179    8.22683    5.95448
     132      444        7     0.00000   11.01614    9.25770    6.66219
     133      444        5     0.00000   12.00797    9.48269    6.21942
     134      444        5     0.00000   11.16329    8.96201    7.72288
     135      444        5     0.00000   10.38792   10.17187    6.60077
     136      444        6     0.00000    1.19787    4.34349    0.84428
     137      444        7     0.00000    1.79936    3.32654    1.55772
     138      444        5     0.00000    2.79608    3.11773    1.11803
     139      444        5     0.00000    1.93879    3.62946    2.61741
     140      444        5     0.00000    1.18803    2.40080    1.49900

Bonds

       1        1        1        4
       2        1        1        6
       3        1        1        8
       4        1        1       10
       5        2        1       11
       6        2        1       13
       7        1        2        5
       8        1        2        7
       9        2        2       14
      10        1        2       51
      11        1        2       57
      12        2        2       60
      13        3        3       47
      14        1        3       50
      15        3        4       48
      16        3        5       45
      17        3        6       46
      18        3        7       99
      19        3        8       48
      20        1        9       50
      21        3        9       97
      22        3       10       46
      23        4       11       32
      24        4       11       34
      25        4       12       33
      26        4       12       35
      27        2       12       50
      28        4       13       29
      29        4       13       37
      30        4       14       30
      31        4       14       38
      32        6       15       17
      33        5       15       19
      34        5       15       32
      35        5       16       20
      36        5       16       33
      37        6       16       66
      38        6       18       64
      39        5       19       21
      40        7       19       45
      41        5       20       22
      42        7       20       46
      43        5       21       34
      44        6       21       71
      45        6       22       24
      46        5       22       35
      47        6       23       69
      48        6       25       27
      49        5       25       29
      50        5       25       43
      51        5       26       30
      52        5       26       44
      53        6       26       76
      54        6       28       74
      55        6       29       31
      56        6       30       79
      57        8       32      101
      58        6       33       83
      59        6       34       36
      60        8       35      106
      61        5       37       39
      62        8       37      111
      63        5       38       40
      64        8       38      116
      65        5       39       43
      66        6       39       93
      67        6       40       42
      68        5       40       44
      69        6       41       91
      70        7       43       47
      71        7       44       48
      72        3       45       57
      73        3       47       55
      74        1       49       52
      75        1       49       54
      76        1       49       56
      77        1       49       58
      78        2       49       59
      79        2       49       61
      80        1       50       53
      81        1       50       55
      82        2       50       62
      83        3       51       99
      84        3       52      100
      85        3       53       97
      86        3       54       98
      87        3       56      100
      88        3       58       98
      89        4       59       80
      90        4       59       84
      91        4       60       81
      92        4       60       85
      93        4       61       77
      94        4       61       87
      95        4       62       78
      96        4       62       88
      97        6       63       65
      98        5       63       67
      99        5       63       80
     100        5       64       68
     101        5       64       81
     102        5       67       69
     103        7       67       97
     104        5       68       70
     105        7       68       98
     106        5       69       84
     107        6       70       72
     108        5       70       85
     109        6       73       75
     110        5       73       77
     111        5       73       95
     112        5       74       78
     113        5       74       96
     114        8       77      131
     115        8       78      136
     116        6       80       82
     117        8       81      126
     118        8       84      121
     119        6       85       86
     120        6       87       89
     121        5       87       91
     122        6       88       90
     123        5       88       92
     124        5       91       95
     125        6       92       94
     126        5       92       96
     127        7       95       99
     128        7       96      100
     129        9      101      102
     130       10      102      103
     131       10      102      104
     132       10      102      105
     133        9      106      107
     134       10      107      108
     135       10      107      109
     136       10      107      110
     137        9      111      112
     138       10      112      113
     139       10      112      114
     140       10      112      115
     141        9      116      117
     142       10      117      118
     143       10      117      119
     144       10      117      120
     145        9      121      122
     146       10      122      123
     147       10      122      124
     148       10      122      125
     149        9      126      127
     150       10      127      128
     151       10      127      129
     152       10      127      130
     153        9      131      132
     154       10      132      133
     155       10      132      134
     156       10      132      135
     157        9      136      137
     158       10      137      138
     159       10      137      139
     160       10      137      140

Angles

       1        1        4        1        6
       2        1        4        1        8
       3        1        4        1       10
       4        2        4        1       11
       5        2        4        1       13
       6        1        6        1        8
       7        1        6        1       10
       8        2        6        1       11
       9        2        6        1       13
      10        1        8        1       10
      11        2        8        1       11
      12        2        8        1       13
      13        2       10        1       11
      14        2       10        1       13
      15        3       11        1       13
      16        2       14        2        5
      17        2       14        2        7
      18        2       14        2       51
      19        2       14        2       57
      20        3       14        2       60
      21        1        5        2        7
      22        1        5        2       51
      23        1        5        2       57
      24        2        5        2       60
      25        1        7        2       51
      26        1        7        2       57
      27        2        7        2       60
      28        1       51        2       57
      29        2       51        2       60
      30        2       57        2       60
      31        4       47        3       50
      32        4        1        4       48
      33        4        2        5       45
      34        4        1        6       46
      35        4        2        7       99
      36        4        1        8       48
      37        4       50        9       97
      38        4        1       10       46
      39        5        1       11       32
      40        5        1       11       34
      41        6       32       11       34
      42        6       33       12       35
      43        5       33       12       50
      44        5       35       12       50
      45        5        1       13       29
      46        5        1       13       37
      47        6       29       13       37
      48        5        2       14       30
      49        5        2       14       38
      50        6       30       14       38
      51        7       19       15       17
      52        8       19       15       32
      53        7       17       15       32
      54        8       20       16       33
      55        7       20       16       66
      56        7       33       16       66
      57        8       15       19       21
      58        9       15       19       45
      59        9       21       19       45
      60        8       16       20       22
      61        9       16       20       46
      62        9       22       20       46
      63        8       19       21       34
      64        7       19       21       71
      65        7       34       21       71
      66        8       20       22       35
      67        7       20       22       24
      68        7       35       22       24
      69        8       29       25       43
      70        7       29       25       27
      71        7       43       25       27
      72        8       30       26       44
      73        7       30       26       76
      74        7       44       26       76
      75       10       13       29       25
      76       11       13       29       31
      77        7       25       29       31
      78       10       14       30       26
      79       11       14       30       79
      80        7       26       30       79
      81       10       11       32       15
      82       12       11       32      101
      83       13       15       32      101
      84       10       12       33       16
      85       11       12       33       83
      86        7       16       33       83
      87       10       21       34       11
      88        7       21       34       36
      89       11       11       34       36
      90       10       12       35       22
      91       12       12       35      106
      92       13       22       35      106
      93       10       13       37       39
      94       12       13       37      111
      95       13       39       37      111
      96       10       14       38       40
      97       12       14       38      116
      98       13       40       38      116
      99        8       37       39       43
     100        7       37       39       93
     101        7       43       39       93
     102        8       38       40       44
     103        7       38       40       42
     104        7       44       40       42
     105        8       25       43       39
     106        9       25       43       47
     107        9       39       43       47
     108        8       26       44       40
     109        9       26       44       48
     110        9       40       44       48
     111       14        5       45       19
     112       15        5       45       57
     113       14       19       45       57
     114       14       10       46       20
     115       15       10       46        6
     116       14       20       46        6
     117       14        3       47       43
     118       15        3       47       55
     119       14       43       47       55
     120       14        8       48       44
     121       15        8       48        4
     122       14       44       48        4
     123        1       52       49       54
     124        1       52       49       56
     125        1       52       49       58
     126        2       52       49       59
     127        2       52       49       61
     128        1       54       49       56
     129        1       54       49       58
     130        2       54       49       59
     131        2       54       49       61
     132        1       56       49       58
     133        2       56       49       59
     134        2       56       49       61
     135        2       58       49       59
     136        2       58       49       61
     137        3       59       49       61
     138        2        9       50       12
     139        1        9       50       53
     140        1        9       50        3
     141        1        9       50       55
     142        2        9       50       62
     143        2       12       50       53
     144        2       12       50        3
     145        2       12       50       55
     146        3       12       50       62
     147        1       53       50        3
     148        1       53       50       55
     149        2       53       50       62
     150        1        3       50       55
     151        2        3       50       62
     152        2       55       50       62
     153        4        2       51       99
     154        4       49       52      100
     155        4       50       53       97
     156        4       49       54       98
     157        4       47       55       50
     158        4       49       56      100
     159        4        2       57       45
     160        4       49       58       98
     161        5       49       59       80
     162        5       49       59       84
     163        6       80       59       84
     164        5        2       60       81
     165        5        2       60       85
     166        6       81       60       85
     167        5       49       61       77
     168        5       49       61       87
     169        6       77       61       87
     170        5       88       62       50
     171        6       88       62       78
     172        5       50       62       78
     173        7       67       63       65
     174        8       67       63       80
     175        7       65       63       80
     176        7       68       64       18
     177        8       68       64       81
     178        7       18       64       81
     179        9       63       67       97
     180        8       63       67       69
     181        9       97       67       69
     182        8       64       68       70
     183        9       64       68       98
     184        9       70       68       98
     185        7       84       69       23
     186        8       84       69       67
     187        7       23       69       67
     188        7       68       70       72
     189        8       68       70       85
     190        7       72       70       85
     191        8       77       73       95
     192        7       77       73       75
     193        7       95       73       75
     194        7       28       74       78
     195        7       28       74       96
     196        8       78       74       96
     197       10       61       77       73
     198       12       61       77      131
     199       13       73       77      131
     200       10       62       78       74
     201       12       62       78      136
     202       13       74       78      136
     203       10       59       80       63
     204       11       59       80       82
     205        7       63       80       82
     206       10       60       81       64
     207       12       60       81      126
     208       13       64       81      126
     209       10       69       84       59
     210       13       69       84      121
     211       12       59       84      121
     212       10       60       85       70
     213       11       60       85       86
     214        7       70       85       86
     215       11       61       87       89
     216       10       61       87       91
     217        7       89       87       91
     218       10       62       88       92
     219       11       62       88       90
     220        7       92       88       90
     221        7       95       91       41
     222        8       95       91       87
     223        7       41       91       87
     224        8       88       92       96
     225        7       88       92       94
     226        7       96       92       94
     227        8       73       95       91
     228        9       73       95       99
     229        9       91       95       99