140
Atoms. Timestep: 0
Ni 2.89857 9.41116 8.59265
Ni 6.17525 3.10579 3.48481
O 1.44827 4.35425 3.93374
O 4.4416 8.15245 9.05464
O 4.63665 1.84729 3.87523
O 1.36499 10.6744 9.00295
O 5.80609 4.46033 4.96242
O 2.54244 8.0327 10.0675
O 0.25117 1.69264 4.94273
O 3.23722 10.8047 10.0626
N 3.69677 10.6606 7.2416
N 0.71256 1.8642 2.11704
N 2.17217 8.14409 7.25198
N 5.44023 4.39481 2.13747
C 3.48546 12.1483 5.36301
C 0.47488 0.38955 0.2292
H 2.86453 12.5181 4.55267
H 5.86971 0.03371 9.69377
C 4.76073 0.1474 5.61481
C 1.74333 12.3699 0.47412
C 5.50345 12.1502 6.68209
C 2.49852 0.35508 1.54004
H 3.49155 12.5067 1.77336
C 2.48363 6.6337 5.40822
C 5.72803 5.90364 0.28669
C 2.92756 7.68099 6.23068
C 6.1883 4.86756 1.11596
H 3.89994 8.14655 6.0889
H 0.91589 4.41889 0.97634
C 2.98256 11.1359 6.19748
C -0.01036 1.40553 1.07106
H 1.99392 10.709 6.04703
H 5.26093 1.85011 0.92351
C 4.93641 11.1381 7.47507
C 1.94823 1.3719 2.3406
H 5.48559 10.7097 8.30944
H 2.50886 1.79214 3.17267
C 0.94573 7.62654 7.47302
C 4.21083 4.90458 2.35686
H 0.36328 8.05184 8.28732
H 3.63605 4.47744 3.17528
C 0.43859 6.57577 6.69176
C 3.68763 5.945 1.56944
H 5.70774 6.17693 6.91975
C 1.22745 6.06471 5.65205
C 4.46338 6.45777 0.52027
C 5.3126 1.24381 4.79419
C 2.0502 11.2675 9.92158
C 0.73548 4.94016 4.83586
C 3.73174 7.56629 9.95688
Ni 9.15137 9.41116 8.59265
Ni 12.4281 3.10579 3.48481
O 7.70109 4.35425 3.93374
O 10.6944 8.15245 9.05464
O 10.8895 1.84729 3.87523
O 7.61779 10.6744 9.00295
O 12.0589 4.46033 4.96242
O 8.79524 8.0327 10.0675
O 6.50397 1.69264 4.94273
O 9.49002 10.8047 10.0626
N 9.94957 10.6606 7.2416
N 6.96536 1.8642 2.11704
N 8.42499 8.14409 7.25198
N 11.693 4.39481 2.13747
C 9.73826 12.1483 5.36301
C 6.72768 0.38955 0.2292
H 9.11733 12.5181 4.55267
C 11.0135 0.1474 5.61481
C 7.99613 12.3699 0.47412
C 11.7562 12.1502 6.68209
C 8.75132 0.35508 1.54004
C 8.73644 6.6337 5.40822
C 11.9808 5.90364 0.28669
H 6.14452 6.26667 9.7662
C 9.18036 7.68099 6.23068
C 12.4411 4.86756 1.11596
H 10.1527 8.14655 6.0889
H 7.16869 4.41889 0.97634
C 9.23536 11.1359 6.19748
C 6.24244 1.40553 1.07106
H 8.24672 10.709 6.04703
H 11.5137 1.85011 0.92351
C 11.1892 11.1381 7.47507
C 8.20102 1.3719 2.3406
H 11.7384 10.7097 8.30944
H 8.76167 1.79214 3.17267
C 7.19853 7.62654 7.47302
C 10.4636 4.90458 2.35686
H 6.61608 8.05184 8.28732
H 9.88885 4.47744 3.17528
C 6.69139 6.57577 6.69176
C 9.94043 5.945 1.56944
H 11.9605 6.17693 6.91975
H 8.95104 6.32683 1.80071
C 7.48025 6.06471 5.65205
C 10.7162 6.45777 0.52027
C 11.5654 1.24381 4.79419
C 8.303 11.2675 9.92158
C 6.98827 4.94016 4.83586
C 9.98454 7.56629 9.95688
O 6.75795 0.10634 6.9349
C 7.59136 12.2056 7.95004
H 8.53996 0.25503 7.90136
H 7.1193 12.3901 8.9386
H 7.82568 11.1262 7.83056
O 12.0083 12.4489 9.45355
C 10.7499 0.37014 9.1017
H 10.4039 12.33 8.21114
H 10.0326 0.19233 9.9311
H 10.781 1.45039 8.84424
O 3.25342 6.16416 4.38023
C 4.5041 6.6337 4.03335
H 4.87677 6.05796 3.16156
H 4.4478 7.70605 3.7487
H 5.21485 6.49565 4.87594
O 2.44479 6.45959 1.80935
C 1.58269 6.04739 2.80529
H 0.65301 6.64989 2.75012
H 2.0444 6.20355 3.80359
H 1.3173 4.97755 2.66677
O 0.50514 0.10635 6.93491
C 1.33856 12.2056 7.95005
H 2.28715 0.25504 7.90137
H 1.57287 11.1262 7.83059
H 0.86648 12.3901 8.93861
O 10.0012 12.3829 1.78402
C 10.8454 0.27002 2.79589
H 11.7867 12.2093 2.73984
H 11.0921 1.34687 2.67886
H 10.3767 0.08768 3.78646
O 9.50623 6.16414 4.38024
C 10.7569 6.63368 4.03336
H 11.1296 6.05794 3.16158
H 10.7006 7.70604 3.7487
H 11.4677 6.49564 4.87596
O 0.01502 6.37817 9.5309
C 1.27358 5.92486 9.19094
H 1.64047 6.50031 8.31653
H 1.23395 4.84995 8.91319
H 1.97955 6.07887 10.0348
140
Atoms. Timestep: 315
Ni 3.26001 9.36173 9.03359
Ni 6.49038 2.92952 3.72061
O 1.63248 4.04366 4.0717
O 4.81454 8.42112 9.23208
O 5.01414 1.89672 3.86007
O 1.71062 10.3052 9.22942
O 6.0226 4.11202 4.98724
O 3.12658 8.19812 0.0514529
O 0.513019 1.87004 5.20324
O 3.87559 10.6066 0.0120219
N 3.89318 10.6305 7.5791
N 0.878336 1.75313 2.54203
N 2.59199 8.01811 7.66835
N 5.79525 4.17706 2.32198
C 5.55796 11.3114 5.87961
C 0.760928 0.379402 0.487491
H 6.40877 11.0322 5.27108
H 6.43628 0.243419 9.56436
C 5.02308 0.0993789 5.76893
C 1.96818 12.2044 0.807908
C 3.9024 0.381419 6.577
C 2.63416 0.117775 1.97371
H 3.57585 12.1845 2.25052
C 2.89608 5.9852 6.33893
C 6.16006 5.80253 0.505176
C 3.22247 6.80084 7.47642
C 6.59803 4.69554 1.3278
H 4.1488 6.58538 7.97378
H 1.07954 4.05422 1.05798
C 4.99379 10.338 6.79592
C 0.179106 1.32283 1.43216
H 5.45696 9.3676 6.87675
H 5.72855 1.95281 0.868934
C 3.34205 11.8968 7.44225
C 2.09163 1.15609 2.80674
H 2.46937 12.1631 7.99573
H 2.61421 1.42021 3.71098
C 1.3814 8.17202 7.02492
C 4.55564 4.75214 2.50261
H 0.906269 9.11493 7.04493
H 3.9314 4.38007 3.29278
C 0.794586 7.1059 6.22925
C 4.19555 5.99722 1.86923
H 6.50366 5.37076 7.43568
C 1.5592 5.96798 5.87084
C 4.9244 6.4665 0.757508
C 5.67116 1.19878 4.83457
C 2.36201 11.0375 10.1919
C 0.955667 4.77046 5.01089
C 4.39535 7.73514 -0.0454568
Ni 9.37309 9.2414 8.86102
Ni 0.134578 3.04524 3.87722
O 7.9637 3.96614 3.91564
O 10.8785 8.20905 9.02449
O 11.1346 2.05785 4.03132
O 7.87031 10.2381 9.05318
O 12.1918 4.28657 5.12519
O 8.95688 8.04079 10.1374
O 6.90518 1.73733 5.01935
O 9.81146 10.4254 10.1286
N 10.0541 10.5165 7.46424
N 7.24244 1.68257 2.35091
N 8.67085 8.00116 7.48346
N 11.9661 4.26846 2.4329
C 9.75602 0.0398199 6.11046
C 7.12475 0.381454 0.260066
H 9.09351 0.842771 5.83495
C 11.1429 0.159399 5.84893
C 8.1834 12.0457 0.665361
C 11.956 11.6551 6.3885
C 8.68597 12.2462 1.96974
C 8.75387 6.81066 5.34116
C 12.1778 5.59058 0.341845
H 6.59089 6.15837 10.0234
C 9.30867 7.75252 6.29069
C 0.152634 4.56875 1.27319
H 10.1477 8.36464 5.9964
H 7.58145 4.27359 1.16476
C 9.22431 11.4273 6.83092
C 6.61637 1.4042 1.15031
H 8.1562 11.3527 6.95468
H 11.711 1.74528 1.22212
C 11.4063 10.7186 7.34202
C 8.32703 0.90705 2.70013
H 12.0508 10.2771 8.07355
H 8.8399 1.11862 3.61793
C 7.57298 7.23827 7.78062
C 10.7527 4.88418 2.6232
H 6.91255 7.57345 8.54693
H 10.1913 4.6543 3.50793
C 7.27 6.03751 7.05874
C 10.2202 5.83423 1.68861
H -0.207648 7.2183 5.83939
H 9.18722 6.13215 1.76862
C 7.82084 5.81643 5.77988
C 10.9857 6.32227 0.617857
C 11.7571 1.38067 5.04014
C 8.55714 10.9341 10.0045
C 7.2576 4.66337 4.85326
C 10.1946 7.50356 9.98508
O 3.30292 1.6245 6.5101
C 3.78769 2.41045 7.57712
H 3.19796 3.34825 7.62236
H 3.65719 1.90586 8.56226
H 4.85561 2.68309 7.42024
O -0.028067 0.246147 9.5085
C 0.25052 1.40537 8.73902
H 11.797 1.83359 8.38708
H 0.824334 2.21671 9.25366
H 0.826635 1.12616 7.84128
O 3.91473 5.62027 5.48495
C 4.62655 6.79383 5.10812
H 5.3428 6.56159 4.30596
H 3.95931 7.6189 4.77196
H 5.23543 7.18104 5.94284
O 3.44063 6.90983 2.579
C 2.08879 6.85238 2.21533
H 1.92887 6.46544 1.19066
H 1.67267 7.88059 2.25405
H 1.52902 6.25916 2.94773
O 0.801389 11.6349 6.11753
C 1.01718 10.9882 4.8822
H 0.634441 11.6006 4.041
H 0.565738 9.97083 4.84838
H 2.11081 10.8758 4.73294
O 9.19812 11.1652 2.6632
C 10.5948 11.2854 2.7963
H 11.1267 10.9217 1.89936
H 10.9254 12.3156 3.01998
H 10.9105 10.6391 3.63876
O 8.99034 6.99887 4.00148
C 8.14856 8.03134 3.52072
H 7.13105 7.64101 3.31675
H 8.09869 8.9206 4.19427
H 8.55891 8.39865 2.55796
O 0.0952389 5.77126 9.41649
C 11.967 4.97949 8.42969
H 0.243078 4.44269 7.8585
H 11.4033 5.64157 7.74064
H 11.2586 4.20357 8.81067
140
Atoms. Timestep: 345
Ni 3.27479 9.37531 9.0667
Ni 6.4926 2.92258 3.7275
O 1.63055 4.08164 4.06681
O 4.81854 8.42224 9.27809
O 5.02812 1.87547 3.88062
O 1.73303 10.33 9.24941
O 6.02272 4.10448 4.9956
O 3.12061 8.21873 0.083326
O 0.51836 1.90982 5.21471
O 3.89187 10.6189 0.0465158
N 3.92791 10.6341 7.61481
N 0.88914 1.77245 2.55827
N 2.60865 8.03709 7.6969
N 5.77308 4.16226 2.33236
C 5.58838 11.2982 5.90532
C 0.771562 0.380548 0.518574
H 6.4159 11.0038 5.27303
H 6.42271 0.237473 9.56694
C 5.06396 0.0918806 5.79898
C 1.98122 12.2132 0.840629
C 3.94708 0.381412 6.60814
C 2.63865 0.122278 2.01503
H 3.56526 12.1714 2.31306
C 2.90484 6.00618 6.35922
C 6.1163 5.79068 0.516204
C 3.22999 6.81492 7.50408
C 6.56807 4.69151 1.33843
H 4.15373 6.59207 8.00593
H 1.07216 4.04927 1.03727
C 5.03253 10.3365 6.83882
C 0.187696 1.3268 1.45714
H 5.50025 9.36746 6.92994
H 5.71379 1.93333 0.885663
C 3.37132 11.8973 7.46095
C 2.099 1.17426 2.83412
H 2.47585 12.1567 7.98189
H 2.61627 1.44186 3.7407
C 1.41833 8.21968 7.02571
C 4.52537 4.72157 2.51465
H 0.961269 9.1722 7.04659
H 3.90344 4.3332 3.29964
C 0.826329 7.16935 6.2113
C 4.15 5.96883 1.8873
H 6.45462 5.42225 7.40456
C 1.56965 6.00751 5.87529
C 4.88985 6.45982 0.785957
C 5.70096 1.18256 4.84769
C 2.38244 11.0595 10.2148
C 0.954306 4.81731 4.99904
C 4.15702 7.7445 10.2717
Ni 9.38066 9.24699 8.84066
Ni 0.137961 3.07232 3.87707
O 7.95758 3.97392 3.90944
O 10.88 8.20565 9.00285
O 11.1428 2.07649 4.03404
O 7.88188 10.2517 9.03032
O 12.1902 4.32752 5.11637
O 8.95735 8.04621 10.1154
O 6.92918 1.73703 5.02432
O 9.82067 10.429 10.1115
N 10.071 10.5196 7.44661
N 7.24514 1.67764 2.35219
N 8.6737 8.01159 7.46499
N 11.9643 4.27703 2.41833
C 9.77051 0.0476579 6.10186
C 7.12098 0.378374 0.257983
H 9.10365 0.842523 5.82031
C 11.1582 0.180707 5.85246
C 8.19075 12.0503 0.652339
C 11.9737 11.6807 6.39481
C 8.68863 12.2419 1.95903
C 8.77302 6.79496 5.33939
C 12.1533 5.55915 0.29815
H 6.51798 6.12337 9.998
C 9.32106 7.74503 6.28257
C 0.136711 4.55195 1.2425
H 10.1663 8.35014 5.98922
H 7.55441 4.28089 1.17228
C 9.24165 11.4189 6.7996
C 6.61099 1.39445 1.15617
H 8.17488 11.3136 6.88535
H 11.7182 1.74528 1.24585
C 11.4226 10.7364 7.34224
C 8.33085 0.898686 2.69636
H 12.0636 10.3005 8.08076
H 8.84056 1.09794 3.61837
C 7.56935 7.25755 7.76683
C 10.7525 4.89523 2.60836
H 6.93767 7.57701 8.56411
H 10.1983 4.67942 3.50169
C 7.24635 6.06551 7.04063
C 10.2146 5.83243 1.6647
H 12.3568 7.32274 5.77124
H 9.18003 6.12112 1.74153
C 7.81464 5.82384 5.77347
C 10.9731 6.3066 0.582966
C 11.7668 1.40791 5.04712
C 8.56776 10.9442 9.98444
C 7.25237 4.6665 4.85068
C 10.1906 7.49964 9.95835
O 3.33676 1.61675 6.51622
C 3.82241 2.43435 7.55778
H 3.26308 3.39115 7.54069
H 3.64993 1.98003 8.56089
H 4.9007 2.6708 7.41592
O -0.0273038 0.224592 9.54762
C 0.202198 1.39009 8.7714
H 11.7275 1.79848 8.45256
H 0.776764 2.21038 9.26946
H 0.761353 1.12227 7.85899
O 3.92827 5.65204 5.50728
C 4.60543 6.83836 5.10316
H 5.28941 6.61049 4.27165
H 3.91315 7.65378 4.79099
H 5.24233 7.23925 5.91131
O 3.37328 6.8626 2.60118
C 2.03314 6.83983 2.18776
H 1.89998 6.47752 1.15112
H 1.6333 7.87368 2.23863
H 1.43372 6.24652 2.88637
O 0.817 11.6557 6.11334
C 1.01705 10.9687 4.89694
H 0.674619 11.5807 4.03778
H 0.515279 9.97453 4.87571
H 2.10431 10.7928 4.76569
O 9.19407 11.154 2.64717
C 10.5889 11.2735 2.79432
H 11.127 10.9106 1.90056
H 10.9183 12.3039 3.02256
H 10.8945 10.6294 3.64171
O 9.02134 6.97303 4.00076
C 8.15041 7.97056 3.50269
H 7.13708 7.55327 3.34031
H 8.1005 8.87913 4.14821
H 8.5277 8.31103 2.51818
O 0.0725733 5.73659 9.37085
C 11.9706 4.91839 8.3895
H 0.26394 4.40343 7.81995
H 11.3887 5.55559 7.69059
H 11.2897 4.12125 8.77743
140
Atoms. Timestep: 355
Ni 3.27378 9.37668 9.0678
Ni 6.49105 2.92237 3.72706
O 1.63334 4.08252 4.06718
O 4.81828 8.42371 9.27806
O 5.02642 1.87515 3.87911
O 1.73225 10.3298 9.25137
O 6.02098 4.10426 4.99597
O 3.12095 8.21869 0.0837569
O 0.519913 1.91173 5.21747
O 3.89107 10.6187 0.047928
N 3.92594 10.6361 7.61729
N 0.888113 1.77115 2.55828
N 2.60724 8.03969 7.69696
N 5.77284 4.16286 2.33208
C 5.58656 11.2981 5.9077
C 0.770404 0.375742 0.519309
H 6.4182 11.0037 5.28023
H 6.42495 0.234846 9.56537
C 5.06142 0.0916343 5.79866
C 1.98069 12.2114 0.84121
C 3.9461 0.382737 6.60967
C 2.63955 0.123714 2.01321
H 3.56792 12.1751 2.30992
C 2.9035 6.00931 6.35801
C 6.11788 5.79255 0.517512
C 3.22846 6.81822 7.50304
C 6.5688 4.6919 1.33857
H 4.15019 6.59403 8.00641
H 1.07158 4.04607 1.03784
C 5.02959 10.3378 6.84188
C 0.186052 1.32371 1.45697
H 5.498 9.36988 6.93687
H 5.71237 1.93024 0.882953
C 3.37146 11.9006 7.4652
C 2.09951 1.17484 2.83209
H 2.47502 12.1597 7.98478
H 2.61636 1.44245 3.73894
C 1.41637 8.22224 7.02544
C 4.52626 4.72348 2.51483
H 0.960671 9.17567 7.04383
H 3.90312 4.33433 3.29799
C 0.825254 7.17132 6.21078
C 4.15308 5.97206 1.8892
H 6.4544 5.42404 7.40468
C 1.56994 6.01126 5.87289
C 4.89293 6.46302 0.788252
C 5.69908 1.18114 4.8456
C 2.38129 11.0584 10.217
C 0.956335 4.81964 4.99879
C 4.15733 7.74609 10.272
Ni 9.38029 9.24649 8.84102
Ni 0.139371 3.07382 3.87895
O 7.95605 3.97384 3.91006
O 10.879 8.20481 9.00188
O 11.1431 2.08 4.03809
O 7.88151 10.2514 9.03145
O 12.1931 4.33019 5.11718
O 8.95618 8.0441 10.1138
O 6.92679 1.73624 5.02294
O 9.82016 10.4268 10.113
N 10.0716 10.5214 7.4485
N 7.24427 1.67751 2.35045
N 8.67344 8.0131 7.46394
N 11.9654 4.27812 2.41948
C 9.77075 0.0472954 6.09965
C 7.12404 0.379492 0.255436
H 9.10385 0.842534 5.81795
C 11.1589 0.181962 5.85369
C 8.19329 12.0518 0.65125
C 11.9736 11.6807 6.39451
C 8.69053 12.2428 1.95832
C 8.77225 6.79508 5.3385
C 12.1549 5.55862 0.298669
H 6.51828 6.12219 9.9975
C 9.32137 7.74534 6.28196
C 0.13784 4.5517 1.24349
H 10.1655 8.35164 5.98783
H 7.55251 4.27676 1.16854
C 9.24181 11.4204 6.80028
C 6.61138 1.39467 1.15375
H 8.17393 11.3174 6.88764
H 11.7171 1.74211 1.24327
C 11.4229 10.7381 7.34381
C 8.32968 0.899527 2.69604
H 12.0641 10.3027 8.08271
H 8.84041 1.10216 3.61633
C 7.56949 7.25896 7.76609
C 10.7527 4.89494 2.60788
H 6.94091 7.57521 8.56784
H 10.1973 4.67853 3.50112
C 7.24484 6.06776 7.0395
C 10.2137 5.83018 1.66254
H 12.3515 7.32053 5.77781
H 9.18058 6.1246 1.74319
C 7.81213 5.82509 5.77248
C 10.9719 6.30382 0.580787
C 11.7671 1.41162 5.05151
C 8.56778 10.9424 9.98607
C 7.25068 4.66637 4.85186
C 10.1892 7.49673 9.95627
O 3.33656 1.6183 6.51719
C 3.82453 2.43549 7.55755
H 3.2697 3.39464 7.53748
H 3.64963 1.98288 8.56151
H 4.90383 2.66669 7.41425
O -0.026942 0.218293 9.54747
C 0.200925 1.38415 8.77096
H 11.7254 1.79085 8.4531
H 0.770157 2.2062 9.27015
H 0.767609 1.1216 7.86091
O 3.92646 5.65115 5.50807
C 4.60377 6.83595 5.10139
H 5.28881 6.6072 4.27123
H 3.91148 7.65192 4.78921
H 5.23799 7.23758 5.91042
O 3.37421 6.86484 2.60188
C 2.03487 6.83739 2.18671
H 1.90501 6.47032 1.15126
H 1.63251 7.87051 2.22915
H 1.43575 6.24662 2.88796
O 0.816348 11.6543 6.11188
C 1.01716 10.9689 4.89463
H 0.677264 11.5826 4.03562
H 0.514006 9.97524 4.87112
H 2.105 10.7918 4.76642
O 9.19627 11.1545 2.64653
C 10.5915 11.273 2.795
H 11.1313 10.9109 1.90136
H 10.9201 12.3029 3.0254
H 10.8973 10.6275 3.64199
O 9.02115 6.97221 4.00029
C 8.15011 7.96884 3.50012
H 7.13633 7.55211 3.33557
H 8.10032 8.87745 4.14482
H 8.52961 8.30931 2.5161
O 0.0741329 5.73482 9.37206
C 11.9709 4.91706 8.3914
H 0.263623 4.40005 7.82268
H 11.3909 5.55513 7.69191
H 11.2873 4.12221 8.7794
140
Atoms. Timestep: 358
Ni 3.27387 9.37665 9.06765
Ni 6.49085 2.92242 3.72694
O 1.63304 4.08236 4.0674
O 4.8183 8.4236 9.27802
O 5.02636 1.8752 3.87912
O 1.73207 10.3298 9.2515
O 6.02091 4.10423 4.99596
O 3.12086 8.21867 0.0837416
O 0.519832 1.91165 5.21724
O 3.89121 10.6188 0.0480212
N 3.92587 10.6361 7.61731
N 0.887973 1.77123 2.55808
N 2.60733 8.03962 7.69683
N 5.7728 4.1629 2.33201
C 5.58651 11.2982 5.90786
C 0.770264 0.375783 0.519512
H 6.4182 11.0038 5.28029
H 6.42498 0.234969 9.5654
C 5.06152 0.0915524 5.79846
C 1.98066 12.2115 0.841197
C 3.94592 0.382817 6.60956
C 2.63975 0.123692 2.01338
H 3.56797 12.1753 2.30982
C 2.90349 6.00944 6.35819
C 6.11802 5.79245 0.517521
C 3.22835 6.8183 7.50293
C 6.56866 4.69187 1.3385
H 4.15019 6.59396 8.00633
H 1.07161 4.04607 1.03783
C 5.02969 10.3378 6.84194
C 0.186216 1.32366 1.45701
H 5.49805 9.36999 6.93686
H 5.7124 1.9303 0.883059
C 3.37117 11.9006 7.46521
C 2.0996 1.17502 2.83249
H 2.47514 12.1597 7.985
H 2.61635 1.44252 3.73884
C 1.41647 8.22232 7.02544
C 4.52637 4.72357 2.51482
H 0.960807 9.17546 7.04385
H 3.90317 4.33443 3.29793
C 0.824989 7.1715 6.21085
C 4.15317 5.97206 1.88918
H 6.45433 5.4241 7.4047
C 1.56999 6.0111 5.87316
C 4.89289 6.46309 0.788259
C 5.69929 1.18103 4.8456
C 2.38116 11.0584 10.217
C 0.95626 4.81981 4.99863
C 4.15731 7.74591 10.2722
Ni 9.38037 9.24636 8.84106
Ni 0.139086 3.07366 3.87882
O 7.95593 3.9738 3.90995
O 10.879 8.20474 9.0018
O 11.1433 2.07994 4.038
O 7.88155 10.2513 9.03151
O 12.1927 4.33019 5.11684
O 8.95624 8.04392 10.1138
O 6.92684 1.73624 5.0231
O 9.82041 10.4269 10.1129
N 10.0714 10.5214 7.44847
N 7.24412 1.67756 2.35056
N 8.67322 8.01298 7.46388
N 11.9652 4.27806 2.41959
C 9.77066 0.0473972 6.09984
C 7.12409 0.379308 0.255503
H 9.10388 0.842468 5.81789
C 11.1589 0.18201 5.85372
C 8.19331 12.0517 0.651326
C 11.9736 11.6807 6.39467
C 8.6907 12.2427 1.95831
C 8.77201 6.79524 5.33855
C 12.1549 5.55855 0.298547
H 6.51829 6.12218 9.99744
C 9.32119 7.74532 6.28174
C 0.137724 4.55165 1.24352
H 10.1655 8.35166 5.98773
H 7.55254 4.27669 1.16845
C 9.24169 11.4205 6.80032
C 6.61162 1.39449 1.15376
H 8.17423 11.3174 6.88776
H 11.717 1.74217 1.24353
C 11.4227 10.738 7.34367
C 8.32994 0.899562 2.69594
H 12.0643 10.3028 8.08282
H 8.84049 1.1021 3.61627
C 7.56926 7.25894 7.76613
C 10.7526 4.8948 2.60796
H 6.94096 7.57535 8.5678
H 10.1974 4.67853 3.50112
C 7.24473 6.06772 7.03956
C 10.2137 5.83022 1.66272
H 12.3515 7.32051 5.77795
H 9.18057 6.12441 1.74312
C 7.81229 5.82526 5.77258
C 10.9719 6.30403 0.580876
C 11.7671 1.41147 5.05132
C 8.56791 10.9423 9.98596
C 7.25084 4.66613 4.85172
C 10.1892 7.49685 9.95618
O 3.33638 1.61823 6.51732
C 3.82469 2.43563 7.55749
H 3.26993 3.39483 7.53741
H 3.64963 1.98309 8.56143
H 4.90408 2.66668 7.41438
O -0.0270521 0.218517 9.54758
C 0.200818 1.38389 8.77121
H 11.7254 1.79055 8.45278
H 0.770061 2.20638 9.27039
H 0.767315 1.12139 7.8611
O 3.92668 5.65122 5.50829
C 4.60377 6.83604 5.1015
H 5.28884 6.60717 4.27131
H 3.91157 7.65186 4.78908
H 5.23815 7.23773 5.91038
O 3.37422 6.86496 2.60182
C 2.03509 6.83735 2.1866
H 1.90495 6.4699 1.15101
H 1.63244 7.87059 2.22897
H 1.43567 6.24663 2.88798
O 0.816552 11.6543 6.1116
C 1.01718 10.9689 4.89463
H 0.677369 11.5827 4.03577
H 0.513973 9.97548 4.87114
H 2.10493 10.7918 4.76635
O 9.19605 11.1546 2.64656
C 10.5915 11.2731 2.79501
H 11.1313 10.911 1.90127
H 10.9202 12.3031 3.02554
H 10.8973 10.6275 3.64195
O 9.02127 6.97211 4.00008
C 8.15026 7.96873 3.50002
H 7.13635 7.55198 3.33549
H 8.1002 8.87761 4.14483
H 8.52964 8.30927 2.51603
O 0.0742922 5.73489 9.37203
C 11.9708 4.91674 8.39108
H 0.263492 4.40003 7.82286
H 11.3911 5.555 7.69202
H 11.2874 4.12234 8.77938
140
Atoms. Timestep: 359
Ni 3.27387 9.37665 9.06765
Ni 6.49085 2.92242 3.72694
O 1.63304 4.08236 4.0674
O 4.8183 8.4236 9.27802
O 5.02636 1.8752 3.87912
O 1.73207 10.3298 9.2515
O 6.02091 4.10423 4.99596
O 3.12086 8.21867 0.0837416
O 0.519832 1.91165 5.21724
O 3.89121 10.6188 0.0480212
N 3.92587 10.6361 7.61731
N 0.887973 1.77123 2.55808
N 2.60733 8.03962 7.69683
N 5.7728 4.1629 2.33201
C 5.58651 11.2982 5.90786
C 0.770264 0.375783 0.519512
H 6.4182 11.0038 5.28029
H 6.42498 0.234969 9.5654
C 5.06152 0.0915524 5.79846
C 1.98066 12.2115 0.841197
C 3.94592 0.382817 6.60956
C 2.63975 0.123692 2.01338
H 3.56797 12.1753 2.30982
C 2.90349 6.00944 6.35819
C 6.11802 5.79245 0.517521
C 3.22835 6.8183 7.50293
C 6.56866 4.69187 1.3385
H 4.15019 6.59396 8.00633
H 1.07161 4.04607 1.03783
C 5.02969 10.3378 6.84194
C 0.186216 1.32366 1.45701
H 5.49805 9.36999 6.93686
H 5.7124 1.9303 0.883059
C 3.37117 11.9006 7.46521
C 2.0996 1.17502 2.83249
H 2.47514 12.1597 7.985
H 2.61635 1.44252 3.73884
C 1.41647 8.22232 7.02544
C 4.52637 4.72357 2.51482
H 0.960807 9.17546 7.04385
H 3.90317 4.33443 3.29793
C 0.824989 7.1715 6.21085
C 4.15317 5.97206 1.88918
H 6.45433 5.4241 7.4047
C 1.56999 6.0111 5.87316
C 4.89289 6.46309 0.788259
C 5.69929 1.18103 4.8456
C 2.38116 11.0584 10.217
C 0.95626 4.81981 4.99863
C 4.15731 7.74591 10.2722
Ni 9.38037 9.24636 8.84106
Ni 0.139086 3.07366 3.87882
O 7.95593 3.9738 3.90995
O 10.879 8.20474 9.0018
O 11.1433 2.07994 4.038
O 7.88155 10.2513 9.03151
O 12.1927 4.33019 5.11684
O 8.95624 8.04392 10.1138
O 6.92684 1.73624 5.0231
O 9.82041 10.4269 10.1129
N 10.0714 10.5214 7.44847
N 7.24412 1.67756 2.35056
N 8.67322 8.01298 7.46388
N 11.9652 4.27806 2.41959
C 9.77066 0.0473972 6.09984
C 7.12409 0.379308 0.255503
H 9.10388 0.842468 5.81789
C 11.1589 0.18201 5.85372
C 8.19331 12.0517 0.651326
C 11.9736 11.6807 6.39467
C 8.6907 12.2427 1.95831
C 8.77201 6.79524 5.33855
C 12.1549 5.55855 0.298547
H 6.51829 6.12218 9.99744
C 9.32119 7.74532 6.28174
C 0.137724 4.55165 1.24352
H 10.1655 8.35166 5.98773
H 7.55254 4.27669 1.16845
C 9.24169 11.4205 6.80032
C 6.61162 1.39449 1.15376
H 8.17423 11.3174 6.88776
H 11.717 1.74217 1.24353
C 11.4227 10.738 7.34367
C 8.32994 0.899562 2.69594
H 12.0643 10.3028 8.08282
H 8.84049 1.1021 3.61627
C 7.56926 7.25894 7.76613
C 10.7526 4.8948 2.60796
H 6.94096 7.57535 8.5678
H 10.1974 4.67853 3.50112
C 7.24473 6.06772 7.03956
C 10.2137 5.83022 1.66272
H 12.3515 7.32051 5.77795
H 9.18057 6.12441 1.74312
C 7.81229 5.82526 5.77258
C 10.9719 6.30403 0.580876
C 11.7671 1.41147 5.05132
C 8.56791 10.9423 9.98596
C 7.25084 4.66613 4.85172
C 10.1892 7.49685 9.95618
O 3.33638 1.61823 6.51732
C 3.82469 2.43563 7.55749
H 3.26993 3.39483 7.53741
H 3.64963 1.98309 8.56143
H 4.90408 2.66668 7.41438
O -0.0270521 0.218517 9.54758
C 0.200818 1.38389 8.77121
H 11.7254 1.79055 8.45278
H 0.770061 2.20638 9.27039
H 0.767315 1.12139 7.8611
O 3.92668 5.65122 5.50829
C 4.60377 6.83604 5.1015
H 5.28884 6.60717 4.27131
H 3.91157 7.65186 4.78908
H 5.23815 7.23773 5.91038
O 3.37422 6.86496 2.60182
C 2.03509 6.83735 2.1866
H 1.90495 6.4699 1.15101
H 1.63244 7.87059 2.22897
H 1.43567 6.24663 2.88798
O 0.816552 11.6543 6.1116
C 1.01718 10.9689 4.89463
H 0.677369 11.5827 4.03577
H 0.513973 9.97548 4.87114
H 2.10493 10.7918 4.76635
O 9.19605 11.1546 2.64656
C 10.5915 11.2731 2.79501
H 11.1313 10.911 1.90127
H 10.9202 12.3031 3.02554
H 10.8973 10.6275 3.64195
O 9.02127 6.97211 4.00008
C 8.15026 7.96873 3.50002
H 7.13635 7.55198 3.33549
H 8.1002 8.87761 4.14483
H 8.52964 8.30927 2.51603
O 0.0742922 5.73489 9.37203
C 11.9708 4.91674 8.39108
H 0.263492 4.40003 7.82286
H 11.3911 5.555 7.69202
H 11.2874 4.12234 8.77938
