/apps/openmpi/3.1_intel-19/bin/mpiexec
/apps/qe/6.5/bin/pw.x
starting QE Wed Jul 29 11:44:53 PDT 2020

     Program PWSCF v.6.5 starts on 29Jul2020 at 11:44:55 

     This program is part of the open-source Quantum ESPRESSO suite
     for quantum simulation of materials; please cite
         "P. Giannozzi et al., J. Phys.:Condens. Matter 21 395502 (2009);
         "P. Giannozzi et al., J. Phys.:Condens. Matter 29 465901 (2017);
          URL http://www.quantum-espresso.org", 
     in publications or presentations arising from this work. More details at
     http://www.quantum-espresso.org/quote

     Parallel version (MPI & OpenMP), running on      16 processor cores
     Number of MPI processes:                16
     Threads/MPI process:                     1

     MPI processes distributed on     1 nodes
     K-points division:     npool     =       2
     R & G space division:  proc/nbgrp/npool/nimage =       8
     Reading input from ./QE_input_scripts/pw.NiPyC2_relax_sc211_meta_functionalized_Cl_vdw-df2_relax.in
Warning: card &CELL ignored
Warning: card    CELL_DYNAMICS = 'BFGS' ignored
Warning: card    CELL_DOFREE = 'XYZ' ignored
Warning: card / ignored

     Current dimensions of program PWSCF are:
     Max number of different atomic species (ntypx) = 10
     Max number of k-points (npk) =  40000
     Max angular momentum in pseudopotentials (lmaxx) =  3

     IMPORTANT: XC functional enforced from input :
     Exchange-correlation= VDW-DF2
                           (   1   4  13   0   2   0   0)
     Any further DFT definition will be discarded
     Please, verify this is what you really want


     -------------------------------------------------
     Parameters for Dispersion (Grimme-D2) Correction:
     -------------------------------------------------
       atom      VdW radius       C_6     

        C          2.744         60.710
        Cl         3.097        175.885
        H          1.892          4.857
        N          2.640         42.670
        Ni         2.952        374.666
        O          2.536         24.284

     gamma-point specific algorithms are used

     Subspace diagonalization in iterative solution of the eigenvalue problem:
     a serial algorithm will be used

 
     Parallelization info
     --------------------
     sticks:   dense  smooth     PW     G-vecs:    dense   smooth      PW
     Min        2228    2228    556               183376   183376   22914
     Max        2230    2230    558               183380   183380   22917
     Sum       17829   17829   4453              1467017  1467017  183325
 


     bravais-lattice index     =            0
     lattice parameter (alat)  =      23.6322  a.u.
     unit-cell volume          =   10858.6228 (a.u.)^3
     number of atoms/cell      =          108
     number of atomic types    =            6
     number of electrons       =       448.00 (up: 228.00, down: 220.00)
     number of Kohn-Sham states=          274
     kinetic-energy cutoff     =     100.0000  Ry
     charge density cutoff     =     400.0000  Ry
     convergence threshold     =      1.0E-06
     mixing beta               =       0.7000
     number of iterations used =            8  local-TF  mixing
     Exchange-correlation= VDW-DF2
                           (   1   4  13   0   2   0   0)
     nstep                     =          200


     celldm(1)=  23.632159  celldm(2)=   0.000000  celldm(3)=   0.000000
     celldm(4)=   0.000000  celldm(5)=   0.000000  celldm(6)=   0.000000

     crystal axes: (cart. coord. in units of alat)
               a(1) = (   1.000000   0.000000   0.000000 )  
               a(2) = (   0.000000   1.001423   0.000000 )  
               a(3) = (  -0.018199   0.000000   0.821574 )  

     reciprocal axes: (cart. coord. in units 2 pi/alat)
               b(1) = (  1.000000  0.000000  0.022152 )  
               b(2) = (  0.000000  0.998579  0.000000 )  
               b(3) = (  0.000000  0.000000  1.217175 )  


     PseudoPot. # 1 for C  read from file:
     ./pseudo/C.pbesol-nc.UPF
     MD5 check sum: ce26087537ded160c8d400e183a8bf42
     Pseudo is Norm-conserving, Zval =  4.0
     Generated using "atomic" code by A. Dal Corso v.6.5
     Using radial grid of 1073 points,  1 beta functions with: 
                l(1) =   1

     PseudoPot. # 2 for Cl read from file:
     ./pseudo/Cl.pbesol-n-nc.UPF
     MD5 check sum: 7a3420c4b1251c4f435754b8525b54b2
     Pseudo is Norm-conserving + core correction, Zval =  7.0
     Generated using "atomic" code by A. Dal Corso v.6.5
     Using radial grid of 1157 points,  2 beta functions with: 
                l(1) =   0
                l(2) =   1

     PseudoPot. # 3 for H  read from file:
     ./pseudo/H.pbesol-n-nc.UPF
     MD5 check sum: 7995ef24074557c85b430109caaacc09
     Pseudo is Norm-conserving, Zval =  1.0
     Generated using "atomic" code by A. Dal Corso v.6.5
     Using radial grid of  929 points,  0 beta functions with: 

     PseudoPot. # 4 for N  read from file:
     ./pseudo/N.pbesol-nc.UPF
     MD5 check sum: e18cc5e4b8a5600c1a19b30c2cab1ca0
     Pseudo is Norm-conserving, Zval =  5.0
     Generated using "atomic" code by A. Dal Corso v.6.5
     Using radial grid of 1085 points,  1 beta functions with: 
                l(1) =   1

     PseudoPot. # 5 for Ni read from file:
     ./pseudo/Ni.pbesol-n-nc.UPF
     MD5 check sum: 623411631e0c2eb7c0b2b9815547d2d9
     Pseudo is Norm-conserving + core correction, Zval = 10.0
     Generated using "atomic" code by A. Dal Corso v.6.5
     Using radial grid of 1195 points,  2 beta functions with: 
                l(1) =   1
                l(2) =   2

     PseudoPot. # 6 for O  read from file:
     ./pseudo/O.pbesol-nc.UPF
     MD5 check sum: 73d10e7e91dbfcbe8a7e362101007f84
     Pseudo is Norm-conserving, Zval =  6.0
     Generated using "atomic" code by A. Dal Corso v.6.5
     Using radial grid of 1095 points,  1 beta functions with: 
                l(1) =   1

     atomic species   valence    mass     pseudopotential
        C              4.00    12.01070     C ( 1.00)
        Cl             7.00    35.45300     Cl( 1.00)
        H              1.00     1.00794     H ( 1.00)
        N              5.00    14.00670     N ( 1.00)
        Ni            10.00    58.69340     Ni( 1.00)
        O              6.00    15.99940     O ( 1.00)

     Starting magnetic structure 
     atomic species   magnetization
        C            0.000
        Cl           0.000
        H            0.000
        N            0.000
        Ni           0.250
        O            0.000

     No symmetry found



   Cartesian axes

     site n.     atom                  positions (alat units)
         1           C   tau(   1) = (   0.2787122   0.9714307   0.4288486  )
         2           C   tau(   2) = (   0.0379730   0.0311503   0.0183277  )
         3           C   tau(   3) = (   0.3806882   0.0117868   0.4489838  )
         4           C   tau(   4) = (   0.1394042   0.9891499   0.0379124  )
         5           C   tau(   5) = (   0.4400787   0.9715829   0.5343281  )
         6           C   tau(   6) = (   0.1997920   0.0283934   0.1231482  )
         7           C   tau(   7) = (   0.1986011   0.5304580   0.4324635  )
         8           C   tau(   8) = (   0.4580372   0.4720800   0.0229252  )
         9           C   tau(   9) = (   0.2341003   0.6142040   0.4982314  )
        10           C   tau(  10) = (   0.4948422   0.3892302   0.0892369  )
        11           C   tau(  11) = (   0.2384981   0.8904717   0.4955761  )
        12           C   tau(  12) = (  -0.0008282   0.1123917   0.0856467  )
        13           C   tau(  13) = (   0.3947360   0.8906489   0.5977380  )
        14           C   tau(  14) = (   0.1557890   0.1097029   0.1871645  )
        15           C   tau(  15) = (   0.0756247   0.6098498   0.5975737  )
        16           C   tau(  16) = (   0.3367152   0.3921904   0.1884642  )
        17           C   tau(  17) = (   0.0350715   0.5258264   0.5351012  )
        18           C   tau(  18) = (   0.2948780   0.4753867   0.1254988  )
        19           C   tau(  19) = (   0.0981522   0.4849593   0.4519611  )
        20           C   tau(  20) = (   0.3569104   0.5163900   0.0416029  )
        21           C   tau(  21) = (   0.4248178   0.0994604   0.3833638  )
        22           C   tau(  22) = (   0.1639424   0.9010006   0.7933713  )
        23           C   tau(  23) = (   0.0588120   0.3950355   0.3866953  )
        24           C   tau(  24) = (   0.2984059   0.6050320   0.7961934  )
        25           C   tau(  25) = (   0.7787122   0.9714307   0.4288486  )
        26           C   tau(  26) = (   0.5379730   0.0311503   0.0183277  )
        27           C   tau(  27) = (   0.8806882   0.0117868   0.4489838  )
        28           C   tau(  28) = (   0.6394042   0.9891499   0.0379124  )
        29           C   tau(  29) = (   0.9400787   0.9715829   0.5343281  )
        30           C   tau(  30) = (   0.6997920   0.0283934   0.1231482  )
        31           C   tau(  31) = (   0.6986021   0.5304580   0.4324635  )
        32           C   tau(  32) = (   0.9580382   0.4720800   0.0229252  )
        33           C   tau(  33) = (   0.7341003   0.6142040   0.4982314  )
        34           C   tau(  34) = (   0.9948422   0.3892302   0.0892369  )
        35           C   tau(  35) = (   0.7384981   0.8904717   0.4955761  )
        36           C   tau(  36) = (   0.4991718   0.1123917   0.0856467  )
        37           C   tau(  37) = (   0.8947360   0.8906489   0.5977380  )
        38           C   tau(  38) = (   0.6557880   0.1097029   0.1871645  )
        39           C   tau(  39) = (   0.5756247   0.6098498   0.5975737  )
        40           C   tau(  40) = (   0.8367152   0.3921904   0.1884642  )
        41           C   tau(  41) = (   0.5350715   0.5258264   0.5351012  )
        42           C   tau(  42) = (   0.7948780   0.4753867   0.1254988  )
        43           C   tau(  43) = (   0.5981522   0.4849593   0.4519611  )
        44           C   tau(  44) = (   0.8569104   0.5163900   0.0416029  )
        45           C   tau(  45) = (   0.9248178   0.0994604   0.3833638  )
        46           C   tau(  46) = (   0.6639424   0.9010006   0.7933713  )
        47           C   tau(  47) = (   0.5588110   0.3950355   0.3866953  )
        48           C   tau(  48) = (   0.7984059   0.6050320   0.7961934  )
        49           Cl  tau(  49) = (   0.1958065   0.0131807   0.3231547  )
        50           Cl  tau(  50) = (   0.3293560   0.9850801   0.1559709  )
        51           Cl  tau(  51) = (   0.9063869   0.4780425   0.5668665  )
        52           Cl  tau(  52) = (   0.5259391   0.5143641   0.7409261  )
        53           Cl  tau(  53) = (   0.6958065   0.0131807   0.3231547  )
        54           Cl  tau(  54) = (   0.8293549   0.9850801   0.1559726  )
        55           Cl  tau(  55) = (   0.7848928   0.4887937   0.3290101  )
        56           Cl  tau(  56) = (   0.6658457   0.5219699   0.1577899  )
        57           H   tau(  57) = (   0.4693669   0.0026958   0.7751545  )
        58           H   tau(  58) = (   0.0198054   1.0002267   0.5533467  )
        59           H   tau(  59) = (   0.2505234   0.5016080   0.3691185  )
        60           H   tau(  60) = (  -0.0086584   0.5011092   0.7809458  )
        61           H   tau(  61) = (   0.3118554   0.6514319   0.4868937  )
        62           H   tau(  62) = (   0.0732386   0.3533532   0.0780726  )
        63           H   tau(  63) = (   0.1594426   0.8563401   0.4835457  )
        64           H   tau(  64) = (   0.4206861   0.1479423   0.0738480  )
        65           H   tau(  65) = (   0.4386511   0.8563902   0.6644572  )
        66           H   tau(  66) = (   0.2006191   0.1433067   0.2536997  )
        67           H   tau(  67) = (   0.0290492   0.6438591   0.6626884  )
        68           H   tau(  68) = (   0.2907535   0.3580349   0.2539083  )
        69           H   tau(  69) = (   0.4564147   0.4939330   0.5533319  )
        70           H   tau(  70) = (   0.2157623   0.5059201   0.1439924  )
        71           H   tau(  71) = (   0.9693669   0.0026958   0.7751545  )
        72           H   tau(  72) = (   0.5198044   1.0002267   0.5533467  )
        73           H   tau(  73) = (   0.8118554   0.6514319   0.4868937  )
        74           H   tau(  74) = (   0.5732386   0.3533532   0.0780726  )
        75           H   tau(  75) = (   0.6594426   0.8563401   0.4835457  )
        76           H   tau(  76) = (   0.9206861   0.1479423   0.0738480  )
        77           H   tau(  77) = (   0.9386511   0.8563902   0.6644572  )
        78           H   tau(  78) = (   0.7006201   0.1433067   0.2536997  )
        79           H   tau(  79) = (   0.5290492   0.6438591   0.6626884  )
        80           H   tau(  80) = (   0.7907535   0.3580349   0.2539083  )
        81           N   tau(  81) = (   0.2956096   0.8524646   0.5790685  )
        82           N   tau(  82) = (   0.0569790   0.1490689   0.1692870  )
        83           N   tau(  83) = (   0.1736962   0.6512356   0.5798983  )
        84           N   tau(  84) = (   0.4350238   0.3514275   0.1709211  )
        85           N   tau(  85) = (   0.7956096   0.8524646   0.5790685  )
        86           N   tau(  86) = (   0.5569790   0.1490689   0.1692870  )
        87           N   tau(  87) = (   0.6736972   0.6512356   0.5798983  )
        88           N   tau(  88) = (   0.9350238   0.3514275   0.1709211  )
        89           Ni  tau(  89) = (   0.2317814   0.7525556   0.6871039  )
        90           Ni  tau(  90) = (   0.4937992   0.2483520   0.2786599  )
        91           Ni  tau(  91) = (   0.7317814   0.7525556   0.6871039  )
        92           Ni  tau(  92) = (   0.9937992   0.2483520   0.2786599  )
        93           O   tau(  93) = (   0.1158100   0.3481839   0.3145586  )
        94           O   tau(  94) = (   0.3551690   0.6519036   0.7240468  )
        95           O   tau(  95) = (   0.3707656   0.1477170   0.3098797  )
        96           O   tau(  96) = (   0.1091506   0.8535652   0.7199135  )
        97           O   tau(  97) = (   0.4642788   0.3566669   0.3968154  )
        98           O   tau(  98) = (   0.2033039   0.6423280   0.8050417  )
        99           O   tau(  99) = (   0.0200847   0.1353504   0.3952413  )
       100           O   tau( 100) = (   0.2588616   0.8639860   0.8046490  )
       101           O   tau( 101) = (   0.6158110   0.3481839   0.3145586  )
       102           O   tau( 102) = (   0.8551690   0.6519036   0.7240468  )
       103           O   tau( 103) = (   0.8707656   0.1477170   0.3098797  )
       104           O   tau( 104) = (   0.6091506   0.8535652   0.7199135  )
       105           O   tau( 105) = (   0.9642788   0.3566669   0.3968154  )
       106           O   tau( 106) = (   0.7033039   0.6423280   0.8050417  )
       107           O   tau( 107) = (   0.5200847   0.1353504   0.3952413  )
       108           O   tau( 108) = (   0.7588616   0.8639860   0.8046490  )

     number of k points=     1  Marzari-Vanderbilt smearing, width (Ry)=  0.2000
                       cart. coord. in units 2pi/alat
        k(    1) = (   0.0000000   0.0000000   0.0000000), wk =   1.0000000

     Dense  grid:   733509 G-vectors     FFT dimensions: ( 160, 160, 125)

     Estimated max dynamical RAM per process >     637.27 MB

     Estimated total dynamical RAM >       9.96 GB
     Generating pointlists ...
     new r_m :   0.0358 (alat units)  0.8461 (a.u.) for type    1
     new r_m :   0.0581 (alat units)  1.3735 (a.u.) for type    2
     new r_m :   0.0358 (alat units)  0.8461 (a.u.) for type    3
     new r_m :   0.0445 (alat units)  1.0514 (a.u.) for type    4
     new r_m :   0.0654 (alat units)  1.5454 (a.u.) for type    5
     new r_m :   0.0423 (alat units)  0.9991 (a.u.) for type    6

     Check: negative core charge=   -0.000147

     Initial potential from superposition of free atoms

     starting charge  447.99671, renormalised to  448.00000


     %%%%%%%%%%%%%%%%%%%%%%%%%%%%%%%%%%%%%%%%%%%%%%%%%%%%%%%%%%%%%%%%%%%%%%%%
     %                                                                      %
     % You are using vdW-DF, which was implemented by the Thonhauser group. %
     % Please cite the following two papers that made this development      %
     % possible and the two reviews that describe the various versions:     %
     %                                                                      %
     %   T. Thonhauser et al., PRL 115, 136402 (2015).                      %
     %   T. Thonhauser et al., PRB 76, 125112 (2007).                       %
     %   K. Berland et al., Rep. Prog. Phys. 78, 066501 (2015).             %
     %   D.C. Langreth et al., J. Phys.: Condens. Matter 21, 084203 (2009). %
     %                                                                      %
     %                                                                      %
     % If you are calculating the stress with vdW-DF, please also cite:     %
     %                                                                      %
     %   R. Sabatini et al., J. Phys.: Condens. Matter 24, 424209 (2012).   %
     %                                                                      %
     %%%%%%%%%%%%%%%%%%%%%%%%%%%%%%%%%%%%%%%%%%%%%%%%%%%%%%%%%%%%%%%%%%%%%%%%


     Starting wfcs are  380 randomized atomic wfcs

     total cpu time spent up to now is      106.4 secs

     Self-consistent Calculation

     iteration #  1     ecut=   100.00 Ry     beta= 0.70
     Davidson diagonalization with overlap
     ethr =  1.00E-02,  avg # of iterations =  5.0

     total cpu time spent up to now is      340.0 secs

     total energy              =   -1903.26263689 Ry
     Harris-Foulkes estimate   =   -1911.50902761 Ry
     estimated scf accuracy    <      22.36580069 Ry

     total magnetization       =     8.00 Bohr mag/cell
     absolute magnetization    =     8.07 Bohr mag/cell

     iteration #  2     ecut=   100.00 Ry     beta= 0.70
     Davidson diagonalization with overlap
     ethr =  4.99E-03,  avg # of iterations =  2.0

     total cpu time spent up to now is      494.8 secs

     total energy              =   -1904.76892179 Ry
     Harris-Foulkes estimate   =   -1907.58381076 Ry
     estimated scf accuracy    <      10.80400113 Ry

     total magnetization       =     8.00 Bohr mag/cell
     absolute magnetization    =     8.17 Bohr mag/cell

     iteration #  3     ecut=   100.00 Ry     beta= 0.70
     Davidson diagonalization with overlap
     ethr =  2.41E-03,  avg # of iterations =  4.0

     total cpu time spent up to now is      642.9 secs

     total energy              =   -1905.11163623 Ry
     Harris-Foulkes estimate   =   -1906.95541896 Ry
     estimated scf accuracy    <      11.67721489 Ry

     total magnetization       =     8.00 Bohr mag/cell
     absolute magnetization    =     8.21 Bohr mag/cell

     iteration #  4     ecut=   100.00 Ry     beta= 0.70
     Davidson diagonalization with overlap
     ethr =  2.41E-03,  avg # of iterations =  1.0

     total cpu time spent up to now is      782.8 secs

     total energy              =   -1905.94145258 Ry
     Harris-Foulkes estimate   =   -1906.32852182 Ry
     estimated scf accuracy    <       3.12027463 Ry

     total magnetization       =     8.00 Bohr mag/cell
     absolute magnetization    =     8.18 Bohr mag/cell

     iteration #  5     ecut=   100.00 Ry     beta= 0.70
     Davidson diagonalization with overlap
     ethr =  6.96E-04,  avg # of iterations =  6.5

     total cpu time spent up to now is      934.6 secs

     total energy              =   -1905.95765304 Ry
     Harris-Foulkes estimate   =   -1906.04671537 Ry
     estimated scf accuracy    <       0.53624167 Ry

     total magnetization       =     8.00 Bohr mag/cell
     absolute magnetization    =     8.20 Bohr mag/cell

     iteration #  6     ecut=   100.00 Ry     beta= 0.70
     Davidson diagonalization with overlap
     ethr =  1.20E-04,  avg # of iterations =  6.0

     total cpu time spent up to now is     1091.4 secs

     total energy              =   -1905.95914050 Ry
     Harris-Foulkes estimate   =   -1905.98169170 Ry
     estimated scf accuracy    <       0.08980059 Ry

     total magnetization       =     8.00 Bohr mag/cell
     absolute magnetization    =     8.22 Bohr mag/cell

     iteration #  7     ecut=   100.00 Ry     beta= 0.70
     Davidson diagonalization with overlap
     ethr =  2.00E-05,  avg # of iterations = 12.5

     total cpu time spent up to now is     1263.7 secs

     total energy              =   -1905.94542808 Ry
     Harris-Foulkes estimate   =   -1905.97331685 Ry
     estimated scf accuracy    <       0.30330319 Ry

     total magnetization       =     8.00 Bohr mag/cell
     absolute magnetization    =     8.23 Bohr mag/cell

     iteration #  8     ecut=   100.00 Ry     beta= 0.70
     Davidson diagonalization with overlap
     ethr =  2.00E-05,  avg # of iterations =  1.5

     total cpu time spent up to now is     1403.7 secs

     total energy              =   -1905.94701641 Ry
     Harris-Foulkes estimate   =   -1905.95810186 Ry
     estimated scf accuracy    <       0.04290041 Ry

     total magnetization       =     8.00 Bohr mag/cell
     absolute magnetization    =     8.23 Bohr mag/cell

     iteration #  9     ecut=   100.00 Ry     beta= 0.70
     Davidson diagonalization with overlap
     ethr =  9.58E-06,  avg # of iterations = 13.5

     total cpu time spent up to now is     1569.0 secs

     total energy              =   -1905.94535718 Ry
     Harris-Foulkes estimate   =   -1905.94994252 Ry
     estimated scf accuracy    <       0.02391384 Ry

     total magnetization       =     8.00 Bohr mag/cell
     absolute magnetization    =     8.23 Bohr mag/cell

     iteration # 10     ecut=   100.00 Ry     beta= 0.70
     Davidson diagonalization with overlap
     ethr =  5.34E-06,  avg # of iterations =  3.0

     total cpu time spent up to now is     1708.0 secs

     total energy              =   -1905.94438934 Ry
     Harris-Foulkes estimate   =   -1905.94834267 Ry
     estimated scf accuracy    <       0.03734958 Ry

     total magnetization       =     8.00 Bohr mag/cell
     absolute magnetization    =     8.23 Bohr mag/cell

     iteration # 11     ecut=   100.00 Ry     beta= 0.70
     Davidson diagonalization with overlap
     ethr =  5.34E-06,  avg # of iterations =  2.5

     total cpu time spent up to now is     1851.6 secs

     total energy              =   -1905.94531929 Ry
     Harris-Foulkes estimate   =   -1905.94595607 Ry
     estimated scf accuracy    <       0.00442856 Ry

     total magnetization       =     8.00 Bohr mag/cell
     absolute magnetization    =     8.23 Bohr mag/cell

     iteration # 12     ecut=   100.00 Ry     beta= 0.70
     Davidson diagonalization with overlap
     ethr =  9.89E-07,  avg # of iterations = 10.0

     total cpu time spent up to now is     2021.1 secs

     total energy              =   -1905.94553204 Ry
     Harris-Foulkes estimate   =   -1905.94559114 Ry
     estimated scf accuracy    <       0.00139365 Ry

     total magnetization       =     8.00 Bohr mag/cell
     absolute magnetization    =     8.22 Bohr mag/cell

     iteration # 13     ecut=   100.00 Ry     beta= 0.70
     Davidson diagonalization with overlap
     ethr =  3.11E-07,  avg # of iterations =  3.0

     total cpu time spent up to now is     2168.0 secs

     total energy              =   -1905.94548305 Ry
     Harris-Foulkes estimate   =   -1905.94583457 Ry
     estimated scf accuracy    <       0.00528315 Ry

     total magnetization       =     8.00 Bohr mag/cell
     absolute magnetization    =     8.22 Bohr mag/cell

     iteration # 14     ecut=   100.00 Ry     beta= 0.70
     Davidson diagonalization with overlap
     ethr =  3.11E-07,  avg # of iterations =  3.5

     total cpu time spent up to now is     2312.4 secs

     total energy              =   -1905.94571021 Ry
     Harris-Foulkes estimate   =   -1905.94573395 Ry
     estimated scf accuracy    <       0.00043652 Ry

     total magnetization       =     8.00 Bohr mag/cell
     absolute magnetization    =     8.22 Bohr mag/cell

     iteration # 15     ecut=   100.00 Ry     beta= 0.70
     Davidson diagonalization with overlap
     ethr =  9.74E-08,  avg # of iterations =  4.0

     total cpu time spent up to now is     2462.6 secs

     total energy              =   -1905.94571425 Ry
     Harris-Foulkes estimate   =   -1905.94573558 Ry
     estimated scf accuracy    <       0.00011674 Ry

     total magnetization       =     8.00 Bohr mag/cell
     absolute magnetization    =     8.22 Bohr mag/cell

     iteration # 16     ecut=   100.00 Ry     beta= 0.70
     Davidson diagonalization with overlap
     ethr =  2.61E-08,  avg # of iterations =  6.0

     total cpu time spent up to now is     2633.3 secs

     total energy              =   -1905.94572210 Ry
     Harris-Foulkes estimate   =   -1905.94573434 Ry
     estimated scf accuracy    <       0.00008331 Ry

     total magnetization       =     8.00 Bohr mag/cell
     absolute magnetization    =     8.22 Bohr mag/cell

     iteration # 17     ecut=   100.00 Ry     beta= 0.70
     Davidson diagonalization with overlap
     ethr =  1.86E-08,  avg # of iterations =  4.0

     total cpu time spent up to now is     2782.0 secs

     total energy              =   -1905.94573096 Ry
     Harris-Foulkes estimate   =   -1905.94572759 Ry
     estimated scf accuracy    <       0.00002307 Ry

     total magnetization       =     8.00 Bohr mag/cell
     absolute magnetization    =     8.22 Bohr mag/cell

     iteration # 18     ecut=   100.00 Ry     beta= 0.70
     Davidson diagonalization with overlap
     ethr =  5.15E-09,  avg # of iterations =  4.5

     total cpu time spent up to now is     2958.2 secs

     total energy              =   -1905.94573227 Ry
     Harris-Foulkes estimate   =   -1905.94573342 Ry
     estimated scf accuracy    <       0.00001457 Ry

     total magnetization       =     8.00 Bohr mag/cell
     absolute magnetization    =     8.22 Bohr mag/cell

     iteration # 19     ecut=   100.00 Ry     beta= 0.70
     Davidson diagonalization with overlap
     ethr =  3.25E-09,  avg # of iterations =  4.0

     total cpu time spent up to now is     3121.1 secs

     total energy              =   -1905.94573566 Ry
     Harris-Foulkes estimate   =   -1905.94573443 Ry
     estimated scf accuracy    <       0.00003231 Ry

     total magnetization       =     8.00 Bohr mag/cell
     absolute magnetization    =     8.22 Bohr mag/cell

     iteration # 20     ecut=   100.00 Ry     beta= 0.70
     Davidson diagonalization with overlap
     ethr =  3.25E-09,  avg # of iterations =  4.0

     total cpu time spent up to now is     3282.4 secs

     total energy              =   -1905.94573814 Ry
     Harris-Foulkes estimate   =   -1905.94573780 Ry
     estimated scf accuracy    <       0.00001281 Ry

     total magnetization       =     8.00 Bohr mag/cell
     absolute magnetization    =     8.22 Bohr mag/cell

     iteration # 21     ecut=   100.00 Ry     beta= 0.70
     Davidson diagonalization with overlap
     ethr =  2.86E-09,  avg # of iterations =  3.5

     total cpu time spent up to now is     3432.6 secs

     total energy              =   -1905.94574094 Ry
     Harris-Foulkes estimate   =   -1905.94573939 Ry
     estimated scf accuracy    <       0.00001144 Ry

     total magnetization       =     8.00 Bohr mag/cell
     absolute magnetization    =     8.22 Bohr mag/cell

     iteration # 22     ecut=   100.00 Ry     beta= 0.70
     Davidson diagonalization with overlap
     ethr =  2.55E-09,  avg # of iterations =  4.0

     total cpu time spent up to now is     3591.5 secs

     total energy              =   -1905.94574191 Ry
     Harris-Foulkes estimate   =   -1905.94574201 Ry
     estimated scf accuracy    <       0.00000230 Ry

     total magnetization       =     8.00 Bohr mag/cell
     absolute magnetization    =     8.22 Bohr mag/cell

     iteration # 23     ecut=   100.00 Ry     beta= 0.70
     Davidson diagonalization with overlap
     ethr =  5.13E-10,  avg # of iterations =  5.0

     total cpu time spent up to now is     3793.8 secs

     total energy              =   -1905.94574436 Ry
     Harris-Foulkes estimate   =   -1905.94574269 Ry
     estimated scf accuracy    <       0.00000144 Ry

     total magnetization       =     8.00 Bohr mag/cell
     absolute magnetization    =     8.22 Bohr mag/cell

     iteration # 24     ecut=   100.00 Ry     beta= 0.70
     Davidson diagonalization with overlap
     ethr =  3.22E-10,  avg # of iterations =  5.0

     total cpu time spent up to now is     3991.5 secs

     total energy              =   -1905.94574212 Ry
     Harris-Foulkes estimate   =   -1905.94574497 Ry
     estimated scf accuracy    <       0.00000246 Ry

     total magnetization       =     8.00 Bohr mag/cell
     absolute magnetization    =     8.22 Bohr mag/cell

     iteration # 25     ecut=   100.00 Ry     beta= 0.70
     Davidson diagonalization with overlap
     ethr =  3.22E-10,  avg # of iterations =  5.0
 
     Magnetic moment per site:
     atom:    1    charge:    0.8419    magn:    0.0060    constr:    0.0000
     atom:    2    charge:    0.8610    magn:    0.0062    constr:    0.0000
     atom:    3    charge:    0.8647    magn:    0.0048    constr:    0.0000
     atom:    4    charge:    0.8642    magn:    0.0042    constr:    0.0000
     atom:    5    charge:    0.8602    magn:    0.0056    constr:    0.0000
     atom:    6    charge:    0.8428    magn:    0.0061    constr:    0.0000
     atom:    7    charge:    0.8613    magn:    0.0052    constr:    0.0000
     atom:    8    charge:    0.8418    magn:    0.0058    constr:    0.0000
     atom:    9    charge:    0.8522    magn:    0.0055    constr:    0.0000
     atom:   10    charge:    0.8527    magn:    0.0071    constr:    0.0000
     atom:   11    charge:    0.8527    magn:    0.0070    constr:    0.0000
     atom:   12    charge:    0.8520    magn:    0.0053    constr:    0.0000
     atom:   13    charge:    0.8544    magn:    0.0054    constr:    0.0000
     atom:   14    charge:    0.8649    magn:    0.0075    constr:    0.0000
     atom:   15    charge:    0.8547    magn:    0.0066    constr:    0.0000
     atom:   16    charge:    0.8536    magn:    0.0053    constr:    0.0000
     atom:   17    charge:    0.8382    magn:    0.0038    constr:    0.0000
     atom:   18    charge:    0.8605    magn:    0.0057    constr:    0.0000
     atom:   19    charge:    0.8667    magn:    0.0052    constr:    0.0000
     atom:   20    charge:    0.8642    magn:    0.0050    constr:    0.0000
     atom:   21    charge:    0.8364    magn:   -0.0018    constr:    0.0000
     atom:   22    charge:    0.8367    magn:   -0.0019    constr:    0.0000
     atom:   23    charge:    0.8367    magn:   -0.0018    constr:    0.0000
     atom:   24    charge:    0.8373    magn:   -0.0022    constr:    0.0000
     atom:   25    charge:    0.8419    magn:    0.0060    constr:    0.0000
     atom:   26    charge:    0.8610    magn:    0.0062    constr:    0.0000
     atom:   27    charge:    0.8647    magn:    0.0048    constr:    0.0000
     atom:   28    charge:    0.8642    magn:    0.0042    constr:    0.0000
     atom:   29    charge:    0.8602    magn:    0.0056    constr:    0.0000
     atom:   30    charge:    0.8428    magn:    0.0061    constr:    0.0000
     atom:   31    charge:    0.8438    magn:    0.0058    constr:    0.0000
     atom:   32    charge:    0.8603    magn:    0.0056    constr:    0.0000
     atom:   33    charge:    0.8529    magn:    0.0070    constr:    0.0000
     atom:   34    charge:    0.8512    magn:    0.0053    constr:    0.0000
     atom:   35    charge:    0.8527    magn:    0.0070    constr:    0.0000
     atom:   36    charge:    0.8520    magn:    0.0053    constr:    0.0000
     atom:   37    charge:    0.8545    magn:    0.0054    constr:    0.0000
     atom:   38    charge:    0.8649    magn:    0.0075    constr:    0.0000
     atom:   39    charge:    0.8624    magn:    0.0070    constr:    0.0000
     atom:   40    charge:    0.8636    magn:    0.0073    constr:    0.0000
     atom:   41    charge:    0.8626    magn:    0.0064    constr:    0.0000
     atom:   42    charge:    0.8412    magn:    0.0055    constr:    0.0000
     atom:   43    charge:    0.8668    magn:    0.0047    constr:    0.0000
     atom:   44    charge:    0.8640    magn:    0.0046    constr:    0.0000
     atom:   45    charge:    0.8364    magn:   -0.0017    constr:    0.0000
     atom:   46    charge:    0.8367    magn:   -0.0019    constr:    0.0000
     atom:   47    charge:    0.8366    magn:   -0.0018    constr:    0.0000
     atom:   48    charge:    0.8376    magn:   -0.0019    constr:    0.0000
     atom:   49    charge:    3.1341    magn:    0.0378    constr:    0.0000
     atom:   50    charge:    3.1048    magn:    0.0355    constr:    0.0000
     atom:   51    charge:    3.0998    magn:    0.0360    constr:    0.0000
     atom:   52    charge:    3.1251    magn:    0.0363    constr:    0.0000
     atom:   53    charge:    3.1342    magn:    0.0378    constr:    0.0000
     atom:   54    charge:    3.1048    magn:    0.0355    constr:    0.0000
     atom:   55    charge:    3.1305    magn:    0.0372    constr:    0.0000
     atom:   56    charge:    3.1051    magn:    0.0355    constr:    0.0000
     atom:   57    charge:    0.5004    magn:   -0.0012    constr:    0.0000
     atom:   58    charge:    0.5003    magn:   -0.0012    constr:    0.0000
     atom:   59    charge:    0.5006    magn:   -0.0012    constr:    0.0000
     atom:   60    charge:    0.5017    magn:   -0.0012    constr:    0.0000
     atom:   61    charge:    0.5052    magn:   -0.0011    constr:    0.0000
     atom:   62    charge:    0.5047    magn:   -0.0010    constr:    0.0000
     atom:   63    charge:    0.5025    magn:   -0.0010    constr:    0.0000
     atom:   64    charge:    0.5065    magn:   -0.0007    constr:    0.0000
     atom:   65    charge:    0.5022    magn:   -0.0010    constr:    0.0000
     atom:   66    charge:    0.5026    magn:    0.0011    constr:    0.0000
     atom:   67    charge:    0.4988    magn:   -0.0010    constr:    0.0000
     atom:   68    charge:    0.5014    magn:   -0.0010    constr:    0.0000
     atom:   69    charge:    0.4999    magn:   -0.0008    constr:    0.0000
     atom:   70    charge:    0.5005    magn:   -0.0012    constr:    0.0000
     atom:   71    charge:    0.5004    magn:   -0.0012    constr:    0.0000
     atom:   72    charge:    0.5003    magn:   -0.0012    constr:    0.0000
     atom:   73    charge:    0.5035    magn:   -0.0008    constr:    0.0000
     atom:   74    charge:    0.5044    magn:   -0.0008    constr:    0.0000
     atom:   75    charge:    0.5025    magn:   -0.0010    constr:    0.0000
     atom:   76    charge:    0.5065    magn:   -0.0007    constr:    0.0000
     atom:   77    charge:    0.5021    magn:   -0.0010    constr:    0.0000
     atom:   78    charge:    0.5028    magn:    0.0010    constr:    0.0000
     atom:   79    charge:    0.5044    magn:    0.0006    constr:    0.0000
     atom:   80    charge:    0.5033    magn:    0.0005    constr:    0.0000
     atom:   81    charge:    2.4976    magn:    0.0118    constr:    0.0000
     atom:   82    charge:    2.5003    magn:    0.0129    constr:    0.0000
     atom:   83    charge:    2.5008    magn:    0.0109    constr:    0.0000
     atom:   84    charge:    2.4984    magn:    0.0119    constr:    0.0000
     atom:   85    charge:    2.4976    magn:    0.0118    constr:    0.0000
     atom:   86    charge:    2.5004    magn:    0.0128    constr:    0.0000
     atom:   87    charge:    2.5029    magn:    0.0119    constr:    0.0000
     atom:   88    charge:    2.4989    magn:    0.0124    constr:    0.0000
     atom:   89    charge:    7.4596    magn:    1.1435    constr:    0.0000
     atom:   90    charge:    7.4608    magn:    1.1368    constr:    0.0000
     atom:   91    charge:    7.4615    magn:    1.1398    constr:    0.0000
     atom:   92    charge:    7.4622    magn:    1.1358    constr:    0.0000
     atom:   93    charge:    3.3094    magn:    0.0527    constr:    0.0000
     atom:   94    charge:    3.3094    magn:    0.0541    constr:    0.0000
     atom:   95    charge:    3.3138    magn:    0.0536    constr:    0.0000
     atom:   96    charge:    3.3070    magn:    0.0539    constr:    0.0000
     atom:   97    charge:    3.3064    magn:    0.0539    constr:    0.0000
     atom:   98    charge:    3.3073    magn:    0.0562    constr:    0.0000
     atom:   99    charge:    3.3107    magn:    0.0554    constr:    0.0000
     atom:  100    charge:    3.3070    magn:    0.0549    constr:    0.0000
     atom:  101    charge:    3.3128    magn:    0.0529    constr:    0.0000
     atom:  102    charge:    3.3083    magn:    0.0560    constr:    0.0000
     atom:  103    charge:    3.3141    magn:    0.0531    constr:    0.0000
     atom:  104    charge:    3.3072    magn:    0.0535    constr:    0.0000
     atom:  105    charge:    3.3094    magn:    0.0542    constr:    0.0000
     atom:  106    charge:    3.3107    magn:    0.0558    constr:    0.0000
     atom:  107    charge:    3.3107    magn:    0.0556    constr:    0.0000
     atom:  108    charge:    3.3070    magn:    0.0547    constr:    0.0000

     total cpu time spent up to now is     4181.1 secs

     End of self-consistent calculation

 ------ SPIN UP ------------


          k = 0.0000 0.0000 0.0000 ( 91663 PWs)   bands (ev):

   -21.5788 -21.5664 -21.5597 -21.5347 -21.4543 -21.4441 -21.4368 -21.4112
   -18.7282 -18.7128 -18.6599 -18.6279 -18.6189 -18.6103 -18.6050 -18.6009
   -18.5863 -18.5754 -18.5565 -18.5363 -18.4734 -18.4236 -18.3975 -18.3753
   -16.9751 -16.9518 -16.9293 -16.4560 -16.2367 -16.1598 -16.1437 -16.1089
   -14.7958 -14.7413 -14.7350 -14.6378 -14.5657 -14.5369 -14.4916 -14.4684
   -13.7984 -13.7165 -13.6051 -13.3268 -13.2268 -13.1441 -13.0557 -13.0365
   -11.3752 -11.3398 -11.2730 -11.1570 -11.0735 -11.0234 -11.0071 -11.0014
   -10.4485 -10.4100 -10.3671 -10.2682 -10.2166 -10.1812 -10.1568 -10.1310
    -9.2016  -9.0603  -9.0163  -8.7676  -8.5789  -8.3880  -8.3747  -8.3213
    -7.5442  -7.4149  -7.3903  -7.3053  -7.2792  -7.2428  -7.2059  -7.1599
    -7.1242  -7.0715  -7.0479  -6.9801  -6.9519  -6.8981  -6.8383  -6.7319
    -6.6311  -6.5917  -6.5805  -6.2440  -6.2099  -6.1959  -6.1357  -6.0981
    -6.0714  -6.0630  -6.0424  -6.0020  -5.9712  -5.9607  -5.9289  -5.8832
    -5.8104  -5.7908  -5.7835  -5.7461  -5.7054  -5.6864  -5.6478  -5.6283
    -5.5919  -5.5749  -5.5215  -5.4862  -5.4837  -5.4678  -5.3951  -5.3841
    -5.3518  -5.3208  -5.2886  -5.2329  -5.1526  -5.1249  -5.0927  -4.9763
    -4.8684  -4.8003  -4.6676  -4.6250  -4.6231  -4.5186  -4.4476  -4.3379
    -4.2663  -4.2355  -4.1727  -4.1243  -4.0003  -3.9395  -3.9250  -3.8715
    -3.8520  -3.7858  -3.7756  -3.7355  -3.6957  -3.6501  -3.5850  -3.4415
    -3.3982  -3.3065  -3.2773  -3.2236  -3.2118  -3.1414  -3.1017  -3.0497
    -3.0417  -2.9174  -2.8777  -2.8231  -2.7148  -2.6766  -2.6377  -2.5549
    -2.5520  -2.5197  -2.4786  -2.4397  -2.3855  -2.3333  -2.2927  -2.2584
    -2.2174  -2.1802  -2.1619  -2.1220  -2.0892  -2.0534  -1.9849  -1.9119
    -1.9085  -1.8464  -1.7891  -1.7495  -1.6782  -1.6585  -1.6405  -1.5808
    -1.5642  -1.5560  -1.5265  -1.5212  -1.4709  -1.4513  -1.4392  -1.3894
    -1.3677  -1.3366  -1.3221  -1.2924  -1.2770  -1.2464  -1.1401  -1.1127
    -1.0648  -1.0109  -0.9402  -0.9182  -0.8101  -0.7758  -0.7512  -0.5819
    -0.5699  -0.4363  -0.3427  -0.3188   0.5064   0.5175   0.5737   0.5872
     0.7577   0.7869   0.8272   0.8672   2.4307   2.4726   2.5751   2.5965
     2.6086   2.6698   2.6814   2.7475   3.2452   3.4191   3.4611   3.4924
     3.6329   3.7154   3.8333   3.9143   3.9666   4.0032   4.0408   4.1557
     4.5718   4.6257   4.7354   4.7677   4.8668   4.9189   4.9615   5.0197
     5.0727   5.1102   5.1143   5.1984   5.2769   5.2971   5.3758   5.4290
     5.4898   5.6234   5.6365   5.9880   6.0468   6.0982   6.1904   6.2189
     6.3262   6.3830

 ------ SPIN DOWN ----------


          k = 0.0000 0.0000 0.0000 ( 91663 PWs)   bands (ev):

   -21.4865 -21.4735 -21.4655 -21.4411 -21.3625 -21.3522 -21.3434 -21.3180
   -18.6688 -18.6682 -18.5929 -18.5421 -18.5124 -18.5010 -18.4999 -18.4879
   -18.4704 -18.4673 -18.4587 -18.4443 -18.4360 -18.3872 -18.3652 -18.3419
   -16.9187 -16.8966 -16.8742 -16.3999 -16.1877 -16.1065 -16.0908 -16.0578
   -14.7584 -14.7047 -14.6986 -14.5999 -14.5244 -14.4977 -14.4498 -14.4261
   -13.7545 -13.6725 -13.5606 -13.2832 -13.1839 -13.1006 -13.0113 -12.9908
   -11.3387 -11.3045 -11.2384 -11.1205 -11.0387 -10.9863 -10.9710 -10.9654
   -10.4167 -10.3781 -10.3353 -10.2384 -10.1884 -10.1534 -10.1296 -10.1015
    -9.1756  -9.0332  -8.9905  -8.7406  -8.5535  -8.3596  -8.3465  -8.2938
    -7.5025  -7.3843  -7.3601  -7.2796  -7.2528  -7.1970  -7.1718  -7.1180
    -7.0811  -7.0395  -7.0099  -6.9380  -6.9057  -6.8374  -6.7793  -6.6722
    -6.5962  -6.5531  -6.5412  -6.1996  -6.1582  -6.1401  -6.0808  -6.0338
    -6.0158  -5.9951  -5.9739  -5.9214  -5.9070  -5.8862  -5.8469  -5.8082
    -5.7082  -5.6978  -5.6835  -5.6726  -5.6501  -5.6127  -5.5618  -5.5380
    -5.5148  -5.4989  -5.4373  -5.4064  -5.3940  -5.3818  -5.3419  -5.2962
    -5.2731  -5.2225  -5.2074  -5.1730  -5.0749  -5.0578  -5.0260  -4.9148
    -4.7850  -4.7218  -4.6096  -4.5470  -4.5370  -4.4334  -4.3761  -4.2663
    -4.2112  -4.1956  -4.1390  -4.0383  -3.9142  -3.8805  -3.8201  -3.8066
    -3.7162  -3.6727  -3.6203  -3.5702  -3.5192  -3.4237  -3.2889  -3.2006
    -3.1139  -3.0944  -3.0611  -3.0021  -2.9503  -2.9127  -2.8957  -2.8215
    -2.7810  -2.7362  -2.6938  -2.5676  -2.5508  -2.4703  -2.3702  -2.3347
    -2.2481  -2.2210  -2.1884  -2.0622  -1.9883  -1.9590  -1.9417  -1.9219
    -1.8760  -1.8459  -1.8213  -1.7921  -1.7494  -1.7048  -1.6753  -1.6553
    -1.6246  -1.5143  -1.4639  -1.4589  -1.4156  -1.4065  -1.3818  -1.3505
    -1.3009  -1.2337  -1.1673  -1.1215  -1.0384  -1.0214  -0.9863  -0.8524
    -0.8029  -0.7738  -0.7111  -0.6598  -0.6318  -0.6015  -0.6003  -0.5498
    -0.5330  -0.5068  -0.4957  -0.4633  -0.4229  -0.3991  -0.3610  -0.3457
    -0.2925  -0.2080  -0.2026  -0.1677   1.3507   1.3586   1.4066   1.4230
     1.5494   1.5848   1.6140   1.6414   2.5469   2.5928   2.6787   2.7013
     2.7175   2.7816   2.7883   2.8568   3.3425   3.4083   3.5369   3.5893
     3.7117   3.8033   3.9143   3.9608   4.0109   4.0189   4.0751   4.1893
     4.5940   4.6560   4.7534   4.8050   4.8819   4.9532   4.9768   5.0250
     5.1248   5.1449   5.1609   5.2456   5.3113   5.3484   5.4136   5.4653
     5.5093   5.6172   5.6601   6.0065   6.0685   6.1342   6.2073   6.2342
     6.3536   6.3816

     the spin up/dw Fermi energies are     1.0644    0.7591 ev

!    total energy              =   -1905.94574340 Ry
     Harris-Foulkes estimate   =   -1905.94574257 Ry
     estimated scf accuracy    <       0.00000040 Ry

     The total energy is the sum of the following terms:

     one-electron contribution =   -2483.82369594 Ry
     hartree contribution      =    1416.89735665 Ry
     xc contribution           =    -593.41174195 Ry
     ewald contribution        =    -247.87555897 Ry
     Dispersion Correction     =      -0.50226040 Ry
     smearing contrib. (-TS)   =       2.77015721 Ry

     total magnetization       =     8.00 Bohr mag/cell
     absolute magnetization    =     8.22 Bohr mag/cell

     convergence has been achieved in  25 iterations

     Forces acting on atoms (cartesian axes, Ry/au):

     atom    1 type  1   force =    -0.01991279   -0.01469431    0.00460509
     atom    2 type  1   force =    -0.00717552    0.00432069   -0.00615507
     atom    3 type  1   force =     0.01475599    0.02377322   -0.01800062
     atom    4 type  1   force =     0.01125829   -0.01947995   -0.01794946
     atom    5 type  1   force =     0.00386657   -0.00869863    0.00622286
     atom    6 type  1   force =     0.02586911    0.00605943   -0.03645586
     atom    7 type  1   force =     0.01214100    0.00516493    0.00060431
     atom    8 type  1   force =     0.01987909   -0.01108206   -0.01107143
     atom    9 type  1   force =     0.01721131   -0.00435114   -0.01299017
     atom   10 type  1   force =     0.01658996   -0.02611196    0.00064535
     atom   11 type  1   force =    -0.02489262   -0.01149111    0.00214212
     atom   12 type  1   force =    -0.00773741    0.00757103   -0.01503477
     atom   13 type  1   force =     0.02558748   -0.00212639    0.01523834
     atom   14 type  1   force =    -0.00665870    0.08949535   -0.05737408
     atom   15 type  1   force =    -0.01799363    0.01541266    0.02522524
     atom   16 type  1   force =    -0.02598525   -0.00037525    0.01380894
     atom   17 type  1   force =    -0.02595609    0.00372554    0.01577300
     atom   18 type  1   force =    -0.00404599   -0.00751651    0.00632973
     atom   19 type  1   force =    -0.00710282   -0.02608520   -0.02393242
     atom   20 type  1   force =    -0.01206467    0.02211406   -0.01546572
     atom   21 type  1   force =    -0.00238940   -0.00586861    0.00952142
     atom   22 type  1   force =    -0.00743174    0.00371312    0.00232046
     atom   23 type  1   force =     0.01239022    0.00838092    0.00328565
     atom   24 type  1   force =    -0.00159763   -0.00482821    0.00767320
     atom   25 type  1   force =    -0.01996705   -0.01475704    0.00463066
     atom   26 type  1   force =    -0.00719025    0.00440433   -0.00609330
     atom   27 type  1   force =     0.01473427    0.02381430   -0.01807569
     atom   28 type  1   force =     0.01123585   -0.01955021   -0.01799541
     atom   29 type  1   force =     0.00385754   -0.00866395    0.00621983
     atom   30 type  1   force =     0.02604405    0.00609368   -0.03639990
     atom   31 type  1   force =     0.01897861    0.01401538   -0.00530209
     atom   32 type  1   force =     0.01655626   -0.00487887    0.00009982
     atom   33 type  1   force =     0.01787272    0.02091930   -0.00039553
     atom   34 type  1   force =     0.01767288    0.00634745   -0.01181607
     atom   35 type  1   force =    -0.02481567   -0.01145553    0.00190156
     atom   36 type  1   force =    -0.00780044    0.00745597   -0.01539301
     atom   37 type  1   force =     0.02590082   -0.00205346    0.01532507
     atom   38 type  1   force =    -0.00641139    0.08947770   -0.05763576
     atom   39 type  1   force =     0.00216845    0.06427948   -0.05930649
     atom   40 type  1   force =     0.00570741   -0.07664001   -0.04632341
     atom   41 type  1   force =    -0.01052983    0.00624789   -0.02861705
     atom   42 type  1   force =    -0.02001570   -0.00586642   -0.03051380
     atom   43 type  1   force =    -0.01080651   -0.02269571   -0.01661245
     atom   44 type  1   force =    -0.01188830    0.02122415   -0.02055712
     atom   45 type  1   force =    -0.00164386   -0.00607776    0.01030058
     atom   46 type  1   force =    -0.00700656    0.00390549    0.00279857
     atom   47 type  1   force =    -0.00320146    0.00490618    0.00939898
     atom   48 type  1   force =     0.01047644   -0.00644479    0.00520997
     atom   49 type  2   force =     0.01634814   -0.14906057    0.22507454
     atom   50 type  2   force =    -0.02926586   -0.02170999   -0.03778686
     atom   51 type  2   force =     0.05317889   -0.00614293    0.00779189
     atom   52 type  2   force =    -0.05479381   -0.12563600    0.16219109
     atom   53 type  2   force =     0.01673971   -0.14895668    0.22502093
     atom   54 type  2   force =    -0.02927163   -0.02152456   -0.03789721
     atom   55 type  2   force =    -0.03087140    0.12101918    0.20750801
     atom   56 type  2   force =     0.02599895    0.01842289   -0.03506642
     atom   57 type  3   force =     0.01215302    0.00172110    0.01140278
     atom   58 type  3   force =    -0.01404191   -0.00208386   -0.00730168
     atom   59 type  3   force =    -0.01228172    0.00224215    0.01026009
     atom   60 type  3   force =    -0.01227971   -0.00263704    0.01346021
     atom   61 type  3   force =    -0.01370973   -0.00718146    0.00256775
     atom   62 type  3   force =    -0.01373202    0.00573662    0.00238873
     atom   63 type  3   force =     0.01248714    0.00709868   -0.00024148
     atom   64 type  3   force =     0.02405085    0.00003721   -0.00250552
     atom   65 type  3   force =    -0.01287695    0.00678885   -0.01588152
     atom   66 type  3   force =    -0.00869890    0.05695658   -0.07103425
     atom   67 type  3   force =     0.01087233   -0.00713805   -0.01428102
     atom   68 type  3   force =     0.01199135    0.00679439   -0.01516950
     atom   69 type  3   force =     0.01398077    0.00472776   -0.01787183
     atom   70 type  3   force =     0.01336020   -0.00164089   -0.00841293
     atom   71 type  3   force =     0.01214602    0.00172422    0.01143469
     atom   72 type  3   force =    -0.01399677   -0.00206586   -0.00729140
     atom   73 type  3   force =    -0.02014504   -0.00314081   -0.00239881
     atom   74 type  3   force =    -0.02180406    0.00158242   -0.00367558
     atom   75 type  3   force =     0.01236999    0.00704310   -0.00020910
     atom   76 type  3   force =     0.02406043    0.00003350   -0.00259080
     atom   77 type  3   force =    -0.01293974    0.00677683   -0.01585967
     atom   78 type  3   force =    -0.00867930    0.05688339   -0.07094357
     atom   79 type  3   force =     0.01616299    0.04165273   -0.06243791
     atom   80 type  3   force =     0.01379707   -0.04421965   -0.06371514
     atom   81 type  4   force =     0.00371433    0.00280693   -0.01077863
     atom   82 type  4   force =     0.00078092   -0.00138803   -0.00964983
     atom   83 type  4   force =    -0.01032056   -0.00315175   -0.01040111
     atom   84 type  4   force =    -0.00317687    0.00167990   -0.01278953
     atom   85 type  4   force =     0.00370545    0.00232274   -0.01095999
     atom   86 type  4   force =     0.00085390   -0.00060825   -0.00954658
     atom   87 type  4   force =    -0.00300886   -0.00267428   -0.01243234
     atom   88 type  4   force =    -0.00487534    0.00365819   -0.00953869
     atom   89 type  5   force =     0.00591664    0.01748776   -0.00348723
     atom   90 type  5   force =    -0.00709610   -0.01303420    0.01114913
     atom   91 type  5   force =     0.00774375    0.01992390   -0.00595507
     atom   92 type  5   force =    -0.00210234   -0.01774008    0.01128752
     atom   93 type  6   force =     0.02264260    0.00607326   -0.00446295
     atom   94 type  6   force =     0.02154740    0.00149777   -0.00482585
     atom   95 type  6   force =    -0.01726090    0.01022578    0.00334128
     atom   96 type  6   force =    -0.02265814    0.01019959   -0.00509487
     atom   97 type  6   force =    -0.01841761    0.01152094    0.01755733
     atom   98 type  6   force =    -0.01703224   -0.01160774    0.01636421
     atom   99 type  6   force =     0.00773892   -0.00301412    0.02017597
     atom  100 type  6   force =     0.01735326    0.00610641    0.00810297
     atom  101 type  6   force =     0.01884545   -0.01011677   -0.00088526
     atom  102 type  6   force =     0.02425702    0.00140337    0.00442195
     atom  103 type  6   force =    -0.01841549    0.01150589    0.00292031
     atom  104 type  6   force =    -0.02326896    0.00930094   -0.00530839
     atom  105 type  6   force =    -0.01315673   -0.00395391    0.01102913
     atom  106 type  6   force =    -0.00842917    0.00345962    0.01103969
     atom  107 type  6   force =     0.00815921   -0.00299402    0.02019913
     atom  108 type  6   force =     0.01711818    0.00597772    0.00818508

     Total force =     0.612057     Total SCF correction =     0.001716

     BFGS Geometry Optimization

     number of scf cycles    =   1
     number of bfgs steps    =   0

     energy   new            =   -1905.9457433983 Ry

     new trust radius        =       0.2704530729 bohr
     new conv_thr            =       0.0000010000 Ry


ATOMIC_POSITIONS (crystal)
C             0.2873737026        0.9694290909        0.5222211856
C             0.0380695969        0.0312885712        0.0219909830
C             0.3912415298        0.0127745394        0.5455648775
C             0.1407035718        0.9869208732        0.0452215121
C             0.4520844479        0.9698344387        0.6506915085
C             0.2035804847        0.0286090419        0.1480153392
C             0.2086953157        0.5299222444        0.5264151251
C             0.4593758102        0.4709407267        0.0273337655
C             0.2458531239        0.6131471423        0.6057659406
C             0.4975216128        0.3875736371        0.1086502390
C             0.2484246714        0.8887204421        0.6033133301
C             0.0007274970        0.1125519143        0.1034726337
C             0.4090740235        0.8892931492        0.7283368516
C             0.1595994554        0.1133286329        0.2248569454
C             0.0881242405        0.6096342630        0.7286512271
C             0.3398033725        0.3916171439        0.2301052300
C             0.0458414472        0.5252364231        0.6521243890
C             0.2974927261        0.4743933894        0.1530800130
C             0.1078410094        0.4831677679        0.5488833596
C             0.3573069839        0.5165904314        0.0498414375
C             0.4332178170        0.0990710216        0.4671114009
C             0.1812046993        0.8998768980        0.9657915151
C             0.0679053747        0.3948281365        0.4708452276
C             0.3159825884        0.6039679836        0.9695022084
C             0.7873714304        0.9694264402        0.5222225021
C             0.5380690316        0.0312921054        0.0219941645
C             0.8912405404        0.0127762749        0.5455610107
C             0.6407025792        0.9869179045        0.0452191455
C             0.9520840629        0.9698359041        0.6506913525
C             0.7035879398        0.0286104889        0.1480182215
C             0.7089801142        0.5302962207        0.5261109155
C             0.9592466755        0.4712028428        0.0279091414
C             0.7458929175        0.6142149466        0.6064146282
C             0.9975557557        0.3889452121        0.1080084126
C             0.7484277020        0.8887219456        0.6033009398
C             0.5007244939        0.1125470525        0.1034541822
C             0.9090873639        0.8892962308        0.7283413186
C             0.6596086752        0.1133278870        0.2248434678
C             0.5888981668        0.6116991344        0.7242974164
C             0.8410880886        0.3883945707        0.2270081106
C             0.5464526034        0.5253430049        0.6498380774
C             0.7967824288        0.4744631141        0.1511823854
C             0.6076911482        0.4833109912        0.5492603748
C             0.8573096746        0.5165528279        0.0495792048
C             0.9332500952        0.0990621839        0.4671515319
C             0.6812231393        0.8998850268        0.9658161407
C             0.5672503399        0.3946813111        0.4711600950
C             0.8164911965        0.6038996749        0.9693753398
Cl            0.2038677506        0.0068634343        0.4049284745
Cl            0.3315371887        0.9827626428        0.1878977863
Cl            0.9212015801        0.4771034301        0.6903773215
Cl            0.5401854190        0.5083242413        0.9101906593
Cl            0.7038842701        0.0068678244        0.4049257133
Cl            0.8315358411        0.9827704783        0.1878941027
Cl            0.7910691793        0.4932126747        0.4111507095
Cl            0.6704082816        0.5220064608        0.1902519026
H             0.4870629461        0.0027647254        0.9440863010
H             0.0314619690        0.9987169464        0.6731439269
H             0.2581899138        0.5009897422        0.4498104465
H             0.0081339985        0.5002855717        0.9512412688
H             0.3220632766        0.6502025468        0.5927672520
H             0.0743891658        0.3530934013        0.0951510317
H             0.1706821697        0.8554229552        0.5885475627
H             0.4233373684        0.1477335724        0.0897569532
H             0.4528102224        0.8554598635        0.8079430216
H             0.2058043196        0.1455097044        0.3051383778
H             0.0441756785        0.6426423812        0.8058724552
H             0.2968711972        0.3578130974        0.3082696941
H             0.4692468471        0.4934307719        0.6725815105
H             0.2195094538        0.5051316639        0.1748306916
H             0.9870626798        0.0027648569        0.9440879445
H             0.5314628889        0.9987177068        0.6731444562
H             0.8217863096        0.6503732849        0.5925114490
H             0.5740419110        0.3529178655        0.0948386890
H             0.6706772428        0.8554206068        0.5885492301
H             0.9233376937        0.1477334155        0.0897525610
H             0.9528075859        0.8554593556        0.8079441469
H             0.7058062338        0.1455066120        0.3051430480
H             0.5443544135        0.6447040392        0.8033921325
H             0.7969021019        0.3556574955        0.3057693490
N             0.3085840692        0.8513716072        0.7042728460
N             0.0607529995        0.1487983486        0.2055549852
N             0.1860955338        0.6501768227        0.7053022905
N             0.4386635818        0.3509989843        0.2073822747
N             0.8085835233        0.8513511474        0.7042635051
N             0.5607561843        0.1488312985        0.2055603030
N             0.6864040258        0.6501969980        0.7051976718
N             0.9385947577        0.3510825770        0.2075497093
Ni            0.2472490953        0.7522249464        0.8361463903
Ni            0.4996821776        0.2474482389        0.3397522362
Ni            0.7473240964        0.7523278857        0.8360192840
Ni            0.9998936194        0.2472493915        0.3397593644
O             0.1237319432        0.3479456259        0.3826431357
O             0.3721152592        0.6510402886        0.8810434443
O             0.3769027333        0.1479390912        0.3773500927
O             0.1241344399        0.8527829845        0.8759985883
O             0.4723061124        0.3566468182        0.4838982913
O             0.2204316163        0.6409245142        0.9807198395
O             0.0291863863        0.1350306381        0.4821171644
O             0.2774279024        0.8630160270        0.9798163438
O             0.6235756193        0.3472615152        0.3828274046
O             0.8722385860        0.6510362995        0.8815197528
O             0.8768534821        0.1479931821        0.3773284108
O             0.6241083930        0.8527450117        0.8759875913
O             0.9725226085        0.3559929273        0.4835620559
O             0.7207906658        0.6415611863        0.9804455997
O             0.5292041925        0.1350314873        0.4821183573
O             0.7774180320        0.8630105891        0.9798205728



     Writing output data file /nfs/hpc/share/gantzlen/NiPyC2_relax_sc211_meta_functionalized_Cl_vdw-df2_relax.save/
     NEW-OLD atomic charge density approx. for the potential

     Check: negative core charge=   -0.000147

     total cpu time spent up to now is     4258.4 secs

     Self-consistent Calculation

     iteration #  1     ecut=   100.00 Ry     beta= 0.70
     Davidson diagonalization with overlap
     ethr =  1.00E-06,  avg # of iterations = 13.0

     total cpu time spent up to now is     4864.2 secs

     total energy              =   -1906.19109479 Ry
     Harris-Foulkes estimate   =   -1906.20104663 Ry
     estimated scf accuracy    <       0.04057471 Ry

     total magnetization       =     8.00 Bohr mag/cell
     absolute magnetization    =     8.22 Bohr mag/cell

     iteration #  2     ecut=   100.00 Ry     beta= 0.70
     Davidson diagonalization with overlap
     ethr =  9.06E-06,  avg # of iterations =  3.0

     total cpu time spent up to now is     5013.2 secs

     total energy              =   -1906.19109808 Ry
     Harris-Foulkes estimate   =   -1906.19524585 Ry
     estimated scf accuracy    <       0.01729524 Ry

     total magnetization       =     8.00 Bohr mag/cell
     absolute magnetization    =     8.23 Bohr mag/cell

     iteration #  3     ecut=   100.00 Ry     beta= 0.70
     Davidson diagonalization with overlap
     ethr =  3.86E-06,  avg # of iterations =  2.0

     total cpu time spent up to now is     5158.1 secs

     total energy              =   -1906.19144796 Ry
     Harris-Foulkes estimate   =   -1906.19773193 Ry
     estimated scf accuracy    <       0.07270105 Ry

     total magnetization       =     8.00 Bohr mag/cell
     absolute magnetization    =     8.23 Bohr mag/cell

     iteration #  4     ecut=   100.00 Ry     beta= 0.70
     Davidson diagonalization with overlap
     ethr =  3.86E-06,  avg # of iterations =  2.0

     total cpu time spent up to now is     5294.9 secs

     total energy              =   -1906.19400460 Ry
     Harris-Foulkes estimate   =   -1906.19473701 Ry
     estimated scf accuracy    <       0.00458113 Ry

     total magnetization       =     8.00 Bohr mag/cell
     absolute magnetization    =     8.23 Bohr mag/cell

     iteration #  5     ecut=   100.00 Ry     beta= 0.70
     Davidson diagonalization with overlap
     ethr =  1.02E-06,  avg # of iterations =  1.5

     total cpu time spent up to now is     5431.7 secs

     total energy              =   -1906.19433407 Ry
     Harris-Foulkes estimate   =   -1906.19474267 Ry
     estimated scf accuracy    <       0.00600237 Ry

     total magnetization       =     8.00 Bohr mag/cell
     absolute magnetization    =     8.23 Bohr mag/cell

     iteration #  6     ecut=   100.00 Ry     beta= 0.70
     Davidson diagonalization with overlap
     ethr =  1.02E-06,  avg # of iterations =  1.0

     total cpu time spent up to now is     5569.0 secs

     total energy              =   -1906.19445542 Ry
     Harris-Foulkes estimate   =   -1906.19452900 Ry
     estimated scf accuracy    <       0.00036491 Ry

     total magnetization       =     8.00 Bohr mag/cell
     absolute magnetization    =     8.23 Bohr mag/cell

     iteration #  7     ecut=   100.00 Ry     beta= 0.70
     Davidson diagonalization with overlap
     ethr =  8.15E-08,  avg # of iterations =  4.0

     total cpu time spent up to now is     5720.7 secs

     total energy              =   -1906.19447265 Ry
     Harris-Foulkes estimate   =   -1906.19448648 Ry
     estimated scf accuracy    <       0.00007941 Ry

     total magnetization       =     8.00 Bohr mag/cell
     absolute magnetization    =     8.23 Bohr mag/cell

     iteration #  8     ecut=   100.00 Ry     beta= 0.70
     Davidson diagonalization with overlap
     ethr =  1.77E-08,  avg # of iterations =  2.5

     total cpu time spent up to now is     5863.6 secs

     total energy              =   -1906.19447046 Ry
     Harris-Foulkes estimate   =   -1906.19448427 Ry
     estimated scf accuracy    <       0.00014642 Ry

     total magnetization       =     8.00 Bohr mag/cell
     absolute magnetization    =     8.23 Bohr mag/cell

     iteration #  9     ecut=   100.00 Ry     beta= 0.70
     Davidson diagonalization with overlap
     ethr =  1.77E-08,  avg # of iterations =  2.0

     total cpu time spent up to now is     6009.0 secs

     total energy              =   -1906.19446786 Ry
     Harris-Foulkes estimate   =   -1906.19447894 Ry
     estimated scf accuracy    <       0.00005795 Ry

     total magnetization       =     8.00 Bohr mag/cell
     absolute magnetization    =     8.23 Bohr mag/cell

     iteration # 10     ecut=   100.00 Ry     beta= 0.70
     Davidson diagonalization with overlap
     ethr =  1.29E-08,  avg # of iterations =  2.5

     total cpu time spent up to now is     6152.7 secs

     total energy              =   -1906.19446451 Ry
     Harris-Foulkes estimate   =   -1906.19447095 Ry
     estimated scf accuracy    <       0.00000974 Ry

     total magnetization       =     8.00 Bohr mag/cell
     absolute magnetization    =     8.23 Bohr mag/cell

     iteration # 11     ecut=   100.00 Ry     beta= 0.70
     Davidson diagonalization with overlap
     ethr =  2.17E-09,  avg # of iterations =  3.5

     total cpu time spent up to now is     6339.9 secs

     total energy              =   -1906.19446075 Ry
     Harris-Foulkes estimate   =   -1906.19446591 Ry
     estimated scf accuracy    <       0.00000339 Ry

     total magnetization       =     8.00 Bohr mag/cell
     absolute magnetization    =     8.23 Bohr mag/cell

     iteration # 12     ecut=   100.00 Ry     beta= 0.70
     Davidson diagonalization with overlap
     ethr =  7.58E-10,  avg # of iterations =  4.0

     total cpu time spent up to now is     6533.0 secs

     total energy              =   -1906.19445879 Ry
     Harris-Foulkes estimate   =   -1906.19446144 Ry
     estimated scf accuracy    <       0.00000153 Ry

     total magnetization       =     8.00 Bohr mag/cell
     absolute magnetization    =     8.23 Bohr mag/cell

     iteration # 13     ecut=   100.00 Ry     beta= 0.70
     Davidson diagonalization with overlap
     ethr =  3.41E-10,  avg # of iterations =  4.5

     total cpu time spent up to now is     6730.9 secs

     total energy              =   -1906.19445704 Ry
     Harris-Foulkes estimate   =   -1906.19445938 Ry
     estimated scf accuracy    <       0.00000435 Ry

     total magnetization       =     8.00 Bohr mag/cell
     absolute magnetization    =     8.23 Bohr mag/cell

     iteration # 14     ecut=   100.00 Ry     beta= 0.70
     Davidson diagonalization with overlap
     ethr =  3.41E-10,  avg # of iterations =  4.0
 
     Magnetic moment per site:
     atom:    1    charge:    0.8515    magn:    0.0041    constr:    0.0000
     atom:    2    charge:    0.8607    magn:    0.0060    constr:    0.0000
     atom:    3    charge:    0.8619    magn:    0.0059    constr:    0.0000
     atom:    4    charge:    0.8650    magn:    0.0044    constr:    0.0000
     atom:    5    charge:    0.8598    magn:    0.0050    constr:    0.0000
     atom:    6    charge:    0.8378    magn:    0.0057    constr:    0.0000
     atom:    7    charge:    0.8616    magn:    0.0050    constr:    0.0000
     atom:    8    charge:    0.8492    magn:    0.0046    constr:    0.0000
     atom:    9    charge:    0.8536    magn:    0.0055    constr:    0.0000
     atom:   10    charge:    0.8569    magn:    0.0074    constr:    0.0000
     atom:   11    charge:    0.8581    magn:    0.0075    constr:    0.0000
     atom:   12    charge:    0.8549    magn:    0.0058    constr:    0.0000
     atom:   13    charge:    0.8557    magn:    0.0056    constr:    0.0000
     atom:   14    charge:    0.8572    magn:    0.0068    constr:    0.0000
     atom:   15    charge:    0.8562    magn:    0.0066    constr:    0.0000
     atom:   16    charge:    0.8545    magn:    0.0056    constr:    0.0000
     atom:   17    charge:    0.8366    magn:    0.0039    constr:    0.0000
     atom:   18    charge:    0.8603    magn:    0.0051    constr:    0.0000
     atom:   19    charge:    0.8625    magn:    0.0059    constr:    0.0000
     atom:   20    charge:    0.8610    magn:    0.0061    constr:    0.0000
     atom:   21    charge:    0.8358    magn:   -0.0019    constr:    0.0000
     atom:   22    charge:    0.8354    magn:   -0.0019    constr:    0.0000
     atom:   23    charge:    0.8352    magn:   -0.0020    constr:    0.0000
     atom:   24    charge:    0.8352    magn:   -0.0025    constr:    0.0000
     atom:   25    charge:    0.8515    magn:    0.0040    constr:    0.0000
     atom:   26    charge:    0.8608    magn:    0.0060    constr:    0.0000
     atom:   27    charge:    0.8619    magn:    0.0059    constr:    0.0000
     atom:   28    charge:    0.8650    magn:    0.0044    constr:    0.0000
     atom:   29    charge:    0.8598    magn:    0.0050    constr:    0.0000
     atom:   30    charge:    0.8378    magn:    0.0057    constr:    0.0000
     atom:   31    charge:    0.8529    magn:    0.0043    constr:    0.0000
     atom:   32    charge:    0.8605    magn:    0.0054    constr:    0.0000
     atom:   33    charge:    0.8586    magn:    0.0080    constr:    0.0000
     atom:   34    charge:    0.8536    magn:    0.0057    constr:    0.0000
     atom:   35    charge:    0.8581    magn:    0.0075    constr:    0.0000
     atom:   36    charge:    0.8549    magn:    0.0058    constr:    0.0000
     atom:   37    charge:    0.8557    magn:    0.0056    constr:    0.0000
     atom:   38    charge:    0.8572    magn:    0.0068    constr:    0.0000
     atom:   39    charge:    0.8598    magn:    0.0064    constr:    0.0000
     atom:   40    charge:    0.8594    magn:    0.0065    constr:    0.0000
     atom:   41    charge:    0.8600    magn:    0.0061    constr:    0.0000
     atom:   42    charge:    0.8361    magn:    0.0054    constr:    0.0000
     atom:   43    charge:    0.8665    magn:    0.0053    constr:    0.0000
     atom:   44    charge:    0.8641    magn:    0.0049    constr:    0.0000
     atom:   45    charge:    0.8356    magn:   -0.0018    constr:    0.0000
     atom:   46    charge:    0.8353    magn:   -0.0019    constr:    0.0000
     atom:   47    charge:    0.8345    magn:   -0.0020    constr:    0.0000
     atom:   48    charge:    0.8369    magn:   -0.0021    constr:    0.0000
     atom:   49    charge:    3.0419    magn:    0.0315    constr:    0.0000
     atom:   50    charge:    3.1014    magn:    0.0336    constr:    0.0000
     atom:   51    charge:    3.1000    magn:    0.0331    constr:    0.0000
     atom:   52    charge:    3.0678    magn:    0.0304    constr:    0.0000
     atom:   53    charge:    3.0420    magn:    0.0314    constr:    0.0000
     atom:   54    charge:    3.1014    magn:    0.0335    constr:    0.0000
     atom:   55    charge:    3.0568    magn:    0.0312    constr:    0.0000
     atom:   56    charge:    3.1031    magn:    0.0337    constr:    0.0000
     atom:   57    charge:    0.5037    magn:   -0.0012    constr:    0.0000
     atom:   58    charge:    0.5024    magn:   -0.0012    constr:    0.0000
     atom:   59    charge:    0.5035    magn:   -0.0011    constr:    0.0000
     atom:   60    charge:    0.5056    magn:   -0.0011    constr:    0.0000
     atom:   61    charge:    0.5099    magn:   -0.0010    constr:    0.0000
     atom:   62    charge:    0.5100    magn:   -0.0010    constr:    0.0000
     atom:   63    charge:    0.5114    magn:   -0.0010    constr:    0.0000
     atom:   64    charge:    0.5110    magn:   -0.0008    constr:    0.0000
     atom:   65    charge:    0.5105    magn:   -0.0010    constr:    0.0000
     atom:   66    charge:    0.4957    magn:    0.0001    constr:    0.0000
     atom:   67    charge:    0.5108    magn:   -0.0009    constr:    0.0000
     atom:   68    charge:    0.5093    magn:   -0.0010    constr:    0.0000
     atom:   69    charge:    0.5005    magn:   -0.0009    constr:    0.0000
     atom:   70    charge:    0.5024    magn:   -0.0011    constr:    0.0000
     atom:   71    charge:    0.5037    magn:   -0.0012    constr:    0.0000
     atom:   72    charge:    0.5024    magn:   -0.0012    constr:    0.0000
     atom:   73    charge:    0.5125    magn:   -0.0008    constr:    0.0000
     atom:   74    charge:    0.5131    magn:   -0.0008    constr:    0.0000
     atom:   75    charge:    0.5114    magn:   -0.0010    constr:    0.0000
     atom:   76    charge:    0.5110    magn:   -0.0008    constr:    0.0000
     atom:   77    charge:    0.5106    magn:   -0.0010    constr:    0.0000
     atom:   78    charge:    0.4958    magn:    0.0001    constr:    0.0000
     atom:   79    charge:    0.4960    magn:   -0.0001    constr:    0.0000
     atom:   80    charge:    0.4985    magn:   -0.0001    constr:    0.0000
     atom:   81    charge:    2.4909    magn:    0.0117    constr:    0.0000
     atom:   82    charge:    2.5096    magn:    0.0112    constr:    0.0000
     atom:   83    charge:    2.4916    magn:    0.0116    constr:    0.0000
     atom:   84    charge:    2.4920    magn:    0.0119    constr:    0.0000
     atom:   85    charge:    2.4911    magn:    0.0116    constr:    0.0000
     atom:   86    charge:    2.5092    magn:    0.0112    constr:    0.0000
     atom:   87    charge:    2.5115    magn:    0.0104    constr:    0.0000
     atom:   88    charge:    2.5041    magn:    0.0115    constr:    0.0000
     atom:   89    charge:    7.4558    magn:    1.1586    constr:    0.0000
     atom:   90    charge:    7.4582    magn:    1.1477    constr:    0.0000
     atom:   91    charge:    7.4585    magn:    1.1539    constr:    0.0000
     atom:   92    charge:    7.4598    magn:    1.1485    constr:    0.0000
     atom:   93    charge:    3.3060    magn:    0.0536    constr:    0.0000
     atom:   94    charge:    3.3033    magn:    0.0561    constr:    0.0000
     atom:   95    charge:    3.3090    magn:    0.0541    constr:    0.0000
     atom:   96    charge:    3.3043    magn:    0.0533    constr:    0.0000
     atom:   97    charge:    3.3030    magn:    0.0548    constr:    0.0000
     atom:   98    charge:    3.3032    magn:    0.0579    constr:    0.0000
     atom:   99    charge:    3.3083    magn:    0.0551    constr:    0.0000
     atom:  100    charge:    3.3024    magn:    0.0553    constr:    0.0000
     atom:  101    charge:    3.3058    magn:    0.0547    constr:    0.0000
     atom:  102    charge:    3.3050    magn:    0.0567    constr:    0.0000
     atom:  103    charge:    3.3088    magn:    0.0539    constr:    0.0000
     atom:  104    charge:    3.3041    magn:    0.0532    constr:    0.0000
     atom:  105    charge:    3.3028    magn:    0.0560    constr:    0.0000
     atom:  106    charge:    3.3049    magn:    0.0574    constr:    0.0000
     atom:  107    charge:    3.3079    magn:    0.0556    constr:    0.0000
     atom:  108    charge:    3.3025    magn:    0.0550    constr:    0.0000

     total cpu time spent up to now is     6911.8 secs

     End of self-consistent calculation

 ------ SPIN UP ------------


          k = 0.0000 0.0000 0.0000 ( 91663 PWs)   bands (ev):

   -21.4131 -21.4047 -21.3936 -21.3633 -21.2767 -21.2718 -21.2641 -21.2253
   -18.7195 -18.7072 -18.7012 -18.5911 -18.5566 -18.5432 -18.5308 -18.5242
   -18.5196 -18.5065 -18.4934 -18.4778 -18.4179 -18.3903 -18.3778 -18.3097
   -17.2382 -17.2035 -17.1985 -16.9494 -16.4501 -16.4241 -16.4015 -16.3792
   -14.6934 -14.6682 -14.6248 -14.5637 -14.5161 -14.4877 -14.4628 -14.4413
   -13.6289 -13.5812 -13.4447 -13.2786 -13.2326 -13.1547 -13.0774 -13.0606
   -11.3814 -11.3332 -11.2761 -11.1873 -11.1420 -11.0908 -11.0889 -11.0727
   -10.3991 -10.3729 -10.3333 -10.2626 -10.1942 -10.1647 -10.1350 -10.1170
    -9.1787  -9.0100  -8.9788  -8.7496  -8.6574  -8.5090  -8.4664  -8.4079
    -7.5262  -7.4472  -7.3637  -7.2717  -7.2686  -7.2512  -7.1987  -7.1871
    -7.1309  -7.0926  -7.0380  -6.9742  -6.9344  -6.8875  -6.8454  -6.7253
    -6.6430  -6.5887  -6.5582  -6.3456  -6.2862  -6.2433  -6.2135  -6.1774
    -6.1147  -6.0820  -6.0345  -5.9952  -5.9835  -5.9606  -5.9144  -5.8619
    -5.7722  -5.7616  -5.7549  -5.7068  -5.6932  -5.6305  -5.6143  -5.6022
    -5.5782  -5.5304  -5.4849  -5.4695  -5.4510  -5.4305  -5.3847  -5.3619
    -5.3467  -5.2779  -5.2567  -5.2289  -5.1665  -5.1368  -5.1053  -5.0694
    -4.9304  -4.7806  -4.7618  -4.7001  -4.6723  -4.5865  -4.5115  -4.3114
    -4.2597  -4.2080  -4.1635  -4.1195  -4.0447  -3.9752  -3.9218  -3.9038
    -3.8897  -3.8409  -3.8034  -3.7317  -3.6946  -3.6807  -3.6435  -3.4548
    -3.4335  -3.3461  -3.3355  -3.3134  -3.2706  -3.1838  -3.1447  -3.1192
    -3.1068  -2.9396  -2.9193  -2.8593  -2.8184  -2.7630  -2.6305  -2.6001
    -2.5414  -2.5091  -2.4842  -2.4608  -2.3871  -2.3353  -2.2844  -2.2719
    -2.2103  -2.1993  -2.1571  -2.1233  -2.1022  -2.0661  -2.0284  -1.9471
    -1.9318  -1.8584  -1.7741  -1.7501  -1.6878  -1.6391  -1.6155  -1.5666
    -1.5554  -1.5461  -1.5097  -1.4864  -1.4702  -1.4443  -1.4066  -1.3802
    -1.3637  -1.3286  -1.3168  -1.2896  -1.2813  -1.2502  -1.1442  -1.0908
    -1.0611  -0.9871  -0.9648  -0.9105  -0.8278  -0.7814  -0.7402  -0.5433
    -0.5143  -0.4371  -0.3310  -0.2870   0.4929   0.5097   0.5593   0.5933
     0.7546   0.7866   0.8354   0.8778   2.3919   2.4399   2.5042   2.5201
     2.5738   2.6219   2.6613   2.7008   3.3082   3.4236   3.4884   3.5377
     3.6734   3.7047   3.8294   3.9148   3.9634   4.0386   4.0708   4.1770
     4.7052   4.7809   4.8503   4.8546   4.9555   4.9660   5.0370   5.0686
     5.1322   5.1981   5.2463   5.2832   5.3149   5.3249   5.4145   5.4436
     5.5285   5.6404   5.7265   6.0720   6.1236   6.2608   6.3732   6.4120
     6.4493   6.5397

 ------ SPIN DOWN ----------


          k = 0.0000 0.0000 0.0000 ( 91663 PWs)   bands (ev):

   -21.3196 -21.3108 -21.2984 -21.2693 -21.1836 -21.1777 -21.1708 -21.1296
   -18.6845 -18.6688 -18.6661 -18.5485 -18.4578 -18.4278 -18.4174 -18.4030
   -18.4003 -18.3855 -18.3819 -18.3714 -18.3665 -18.3459 -18.3197 -18.2728
   -17.1917 -17.1584 -17.1516 -16.9048 -16.4025 -16.3772 -16.3542 -16.3329
   -14.6561 -14.6312 -14.5877 -14.5255 -14.4776 -14.4493 -14.4237 -14.4021
   -13.5854 -13.5379 -13.4011 -13.2367 -13.1909 -13.1126 -13.0347 -13.0171
   -11.3445 -11.2974 -11.2410 -11.1510 -11.1066 -11.0550 -11.0530 -11.0357
   -10.3690 -10.3427 -10.3033 -10.2343 -10.1672 -10.1374 -10.1072 -10.0907
    -9.1551  -8.9861  -8.9551  -8.7257  -8.6332  -8.4833  -8.4401  -8.3821
    -7.4887  -7.4168  -7.3336  -7.2461  -7.2381  -7.2238  -7.1657  -7.1509
    -7.0892  -7.0616  -6.9957  -6.9297  -6.8854  -6.8319  -6.7908  -6.6694
    -6.6090  -6.5527  -6.5259  -6.3129  -6.2446  -6.2158  -6.1822  -6.1419
    -6.0441  -6.0118  -5.9593  -5.9176  -5.9057  -5.8917  -5.8241  -5.7909
    -5.7084  -5.6593  -5.6477  -5.6365  -5.6018  -5.5618  -5.5473  -5.5323
    -5.4948  -5.4514  -5.4124  -5.4033  -5.3639  -5.3526  -5.3180  -5.2748
    -5.2667  -5.1985  -5.1634  -5.1491  -5.1050  -5.0660  -5.0368  -5.0077
    -4.8534  -4.7040  -4.6773  -4.6185  -4.5788  -4.4888  -4.4275  -4.2300
    -4.2097  -4.1743  -4.1380  -4.0400  -3.9734  -3.9317  -3.8591  -3.8374
    -3.8110  -3.7561  -3.7227  -3.5928  -3.4763  -3.4301  -3.3059  -3.2468
    -3.1991  -3.1185  -3.1093  -3.0800  -3.0196  -2.9747  -2.9160  -2.8432
    -2.8042  -2.7536  -2.7016  -2.6889  -2.6193  -2.5765  -2.4160  -2.3184
    -2.2843  -2.2156  -2.1711  -2.0498  -1.9705  -1.9398  -1.9253  -1.9034
    -1.8544  -1.8346  -1.8072  -1.7740  -1.7467  -1.7050  -1.6939  -1.6387
    -1.6099  -1.5060  -1.4596  -1.4451  -1.4101  -1.3893  -1.3807  -1.3395
    -1.3036  -1.2362  -1.1759  -1.1090  -1.0404  -1.0166  -0.9821  -0.8166
    -0.7949  -0.7799  -0.7003  -0.6752  -0.6103  -0.5781  -0.5724  -0.5404
    -0.5162  -0.4789  -0.4747  -0.4477  -0.4128  -0.3765  -0.3409  -0.3068
    -0.2664  -0.1881  -0.1764  -0.1613   1.3441   1.3629   1.4000   1.4329
     1.5514   1.5901   1.6254   1.6538   2.5119   2.5669   2.6068   2.6330
     2.6795   2.7344   2.7701   2.8120   3.3942   3.4093   3.5711   3.6303
     3.7490   3.7934   3.9136   3.9845   4.0121   4.0375   4.0953   4.2042
[...]
    -1.9174  -1.8788  -1.8726  -1.8112  -1.7857  -1.7650  -1.7212  -1.6768
    -1.6149  -1.5981  -1.5598  -1.4946  -1.4678  -1.4284  -1.4032  -1.3844
    -1.3530  -1.2873  -1.2266  -1.1984  -1.1082  -1.0808  -1.0137  -0.9891
    -0.8738  -0.8285  -0.7641  -0.6955  -0.6494  -0.6241  -0.6130  -0.5918
    -0.5606  -0.5433  -0.5027  -0.4890  -0.4529  -0.4148  -0.3920  -0.3582
    -0.3278  -0.3105  -0.2112  -0.1845   1.0317   1.0783   1.1125   1.1938
     1.3006   1.4070   1.4447   1.5511   2.5258   2.5800   2.6134   2.6442
     2.6962   2.7149   2.7423   2.7574   3.4166   3.4807   3.6712   3.6915
     3.7302   3.8397   3.8690   3.9313   4.0059   4.0485   4.1437   4.2450
     4.8268   4.8492   4.9023   4.9687   5.0469   5.0761   5.1427   5.1985
     5.2610   5.2829   5.2943   5.3430   5.3549   5.3961   5.5264   5.6120
     5.6622   5.7354   5.8091   5.8811   5.9067   5.9641   6.0818   6.3106
     6.4557   6.4988

     the spin up/dw Fermi energies are     0.9605    0.6914 ev

!    total energy              =   -1906.58501666 Ry
     Harris-Foulkes estimate   =   -1906.58501696 Ry
     estimated scf accuracy    <          7.5E-09 Ry

     The total energy is the sum of the following terms:

     one-electron contribution =   -2353.77375377 Ry
     hartree contribution      =    1351.47187571 Ry
     xc contribution           =    -593.23608954 Ry
     ewald contribution        =    -313.36133294 Ry
     Dispersion Correction     =      -0.51702207 Ry
     smearing contrib. (-TS)   =       2.83130595 Ry

     total magnetization       =     8.00 Bohr mag/cell
     absolute magnetization    =     8.25 Bohr mag/cell

     convergence has been achieved in  10 iterations

     Forces acting on atoms (cartesian axes, Ry/au):

     atom    1 type  1   force =     0.00002488   -0.00005998    0.00058666
     atom    2 type  1   force =     0.00022101   -0.00019076   -0.00000632
     atom    3 type  1   force =     0.00030020    0.00008638    0.00036204
     atom    4 type  1   force =     0.00001723   -0.00015195    0.00007925
     atom    5 type  1   force =     0.00008798   -0.00008973    0.00016168
     atom    6 type  1   force =    -0.00021817   -0.00008488    0.00018403
     atom    7 type  1   force =    -0.00011253   -0.00003798   -0.00062625
     atom    8 type  1   force =    -0.00032282    0.00000401    0.00021399
     atom    9 type  1   force =     0.00032123   -0.00033690    0.00041317
     atom   10 type  1   force =     0.00076826   -0.00069152   -0.00025086
     atom   11 type  1   force =     0.00010502   -0.00014390   -0.00014529
     atom   12 type  1   force =     0.00010648    0.00013486   -0.00008649
     atom   13 type  1   force =     0.00007967    0.00018981    0.00020583
     atom   14 type  1   force =    -0.00036852    0.00003828   -0.00037109
     atom   15 type  1   force =     0.00032673   -0.00050525   -0.00022640
     atom   16 type  1   force =    -0.00018328    0.00025587    0.00070115
     atom   17 type  1   force =     0.00019011   -0.00012007   -0.00027228
     atom   18 type  1   force =    -0.00013162    0.00005885   -0.00017938
     atom   19 type  1   force =     0.00006705   -0.00009051   -0.00032742
     atom   20 type  1   force =    -0.00010558   -0.00000425    0.00061518
     atom   21 type  1   force =    -0.00014989   -0.00002839    0.00040112
     atom   22 type  1   force =    -0.00036297   -0.00042601   -0.00001910
     atom   23 type  1   force =    -0.00018226   -0.00050176    0.00028328
     atom   24 type  1   force =    -0.00001597    0.00001116    0.00015584
     atom   25 type  1   force =    -0.00026496    0.00017164   -0.00007770
     atom   26 type  1   force =     0.00034281    0.00024077    0.00000349
     atom   27 type  1   force =    -0.00012538   -0.00003682   -0.00076969
     atom   28 type  1   force =    -0.00001092   -0.00023549    0.00007211
     atom   29 type  1   force =     0.00009467    0.00024644   -0.00053121
     atom   30 type  1   force =     0.00007515   -0.00025926    0.00009457
     atom   31 type  1   force =    -0.00017665   -0.00010767    0.00025553
     atom   32 type  1   force =     0.00006591   -0.00022943   -0.00021260
     atom   33 type  1   force =     0.00005522    0.00011564    0.00001124
     atom   34 type  1   force =     0.00036617    0.00044642    0.00019447
     atom   35 type  1   force =    -0.00020163    0.00006267   -0.00024848
     atom   36 type  1   force =    -0.00001933   -0.00020690    0.00036102
     atom   37 type  1   force =     0.00042904    0.00033457   -0.00017980
     atom   38 type  1   force =     0.00035677    0.00028370   -0.00028062
     atom   39 type  1   force =    -0.00012259   -0.00040528    0.00021789
     atom   40 type  1   force =     0.00023924    0.00022723   -0.00054174
     atom   41 type  1   force =    -0.00025336   -0.00035198   -0.00003244
     atom   42 type  1   force =    -0.00025066    0.00001146    0.00043364
     atom   43 type  1   force =    -0.00010080   -0.00009757    0.00008623
     atom   44 type  1   force =     0.00009283   -0.00001890    0.00026690
     atom   45 type  1   force =    -0.00016836    0.00009063   -0.00011570
     atom   46 type  1   force =     0.00012862   -0.00002916    0.00020852
     atom   47 type  1   force =     0.00056931   -0.00035043    0.00027201
     atom   48 type  1   force =     0.00009781    0.00016706    0.00026946
     atom   49 type  2   force =     0.00015635    0.00026603    0.00015076
     atom   50 type  2   force =    -0.00006462   -0.00044202   -0.00013360
     atom   51 type  2   force =     0.00009120    0.00018862   -0.00001161
     atom   52 type  2   force =    -0.00018818    0.00005243    0.00010420
     atom   53 type  2   force =    -0.00035672    0.00047434   -0.00040043
     atom   54 type  2   force =     0.00009748    0.00024050    0.00024727
     atom   55 type  2   force =     0.00036376    0.00022269   -0.00024069
     atom   56 type  2   force =    -0.00058086    0.00033325   -0.00000559
     atom   57 type  3   force =     0.00015727   -0.00041338    0.00038960
     atom   58 type  3   force =    -0.00012760    0.00025104   -0.00040347
     atom   59 type  3   force =    -0.00014716    0.00011181   -0.00001584
     atom   60 type  3   force =     0.00040224    0.00027136   -0.00038268
     atom   61 type  3   force =    -0.00031029   -0.00005738   -0.00004437
     atom   62 type  3   force =     0.00011913    0.00016917   -0.00001404
     atom   63 type  3   force =    -0.00033256   -0.00028273    0.00023592
     atom   64 type  3   force =    -0.00003885   -0.00005875   -0.00000397
     atom   65 type  3   force =     0.00006817    0.00010498    0.00005657
     atom   66 type  3   force =    -0.00017817   -0.00019814   -0.00016079
     atom   67 type  3   force =     0.00037580    0.00050282   -0.00016112
     atom   68 type  3   force =     0.00022316    0.00025037    0.00025655
     atom   69 type  3   force =     0.00028515    0.00026250    0.00036048
     atom   70 type  3   force =    -0.00020647    0.00016050    0.00032030
     atom   71 type  3   force =    -0.00034803   -0.00028003    0.00022893
     atom   72 type  3   force =    -0.00043315   -0.00005052    0.00019505
     atom   73 type  3   force =    -0.00019339   -0.00070939   -0.00067638
     atom   74 type  3   force =     0.00028298   -0.00037165   -0.00033992
     atom   75 type  3   force =    -0.00029318   -0.00024290    0.00045203
     atom   76 type  3   force =     0.00042269    0.00012809   -0.00009957
     atom   77 type  3   force =     0.00042450    0.00015808   -0.00037492
     atom   78 type  3   force =     0.00006289    0.00024928   -0.00004696
     atom   79 type  3   force =     0.00048143    0.00008304   -0.00015259
     atom   80 type  3   force =     0.00021533    0.00031839   -0.00014426
     atom   81 type  4   force =     0.00027831   -0.00002176   -0.00008688
     atom   82 type  4   force =    -0.00002543    0.00042492   -0.00002981
     atom   83 type  4   force =    -0.00019617   -0.00008244   -0.00027253
     atom   84 type  4   force =    -0.00014824    0.00040165   -0.00003577
     atom   85 type  4   force =     0.00039559    0.00001796   -0.00027347
     atom   86 type  4   force =     0.00021680   -0.00013662   -0.00000062
     atom   87 type  4   force =    -0.00051119    0.00015530    0.00010308
     atom   88 type  4   force =     0.00013971    0.00005767    0.00030708
     atom   89 type  5   force =     0.00005305   -0.00017564    0.00023481
     atom   90 type  5   force =    -0.00025603    0.00075881   -0.00038311
     atom   91 type  5   force =     0.00002573    0.00024041   -0.00061215
     atom   92 type  5   force =     0.00003791    0.00018775   -0.00003288
     atom   93 type  6   force =    -0.00020067    0.00038244    0.00020294
     atom   94 type  6   force =    -0.00068333    0.00032207   -0.00013580
     atom   95 type  6   force =    -0.00037833   -0.00057173    0.00017615
     atom   96 type  6   force =    -0.00041487    0.00029076    0.00022991
     atom   97 type  6   force =    -0.00007173   -0.00081938   -0.00021217
     atom   98 type  6   force =    -0.00008681    0.00030649   -0.00019444
     atom   99 type  6   force =    -0.00016694   -0.00034747    0.00059655
     atom  100 type  6   force =     0.00007346    0.00004426   -0.00014893
     atom  101 type  6   force =    -0.00013951   -0.00036518   -0.00000740
     atom  102 type  6   force =    -0.00017602   -0.00026226    0.00023045
     atom  103 type  6   force =    -0.00026282   -0.00034689   -0.00023494
     atom  104 type  6   force =     0.00015664    0.00012712   -0.00017251
     atom  105 type  6   force =    -0.00006826   -0.00011982    0.00039605
     atom  106 type  6   force =     0.00011360   -0.00004023   -0.00022354
     atom  107 type  6   force =     0.00004439    0.00034068   -0.00019790
     atom  108 type  6   force =     0.00013973    0.00015402   -0.00001650

     Total force =     0.004997     Total SCF correction =     0.000201

     bfgs converged in  69 scf cycles and  68 bfgs steps
     (criteria: energy <  1.0E-04 Ry, force <  1.0E-03 Ry/Bohr)

     End of BFGS Geometry Optimization

     Final energy   =   -1906.5850166552 Ry
Begin final coordinates

ATOMIC_POSITIONS (crystal)
C             0.2790481647        0.9632525045        0.5385087547
C             0.0467358697        0.0423148046        0.0045737754
C             0.3788575667        0.0152448927        0.5586593086
C             0.1470037980        0.9967644441        0.0314704655
C             0.4470479088        0.9728110425        0.6559218608
C             0.2096068537        0.0417277065        0.1335718378
C             0.2118945634        0.5214983729        0.5343646478
C             0.4367533524        0.4394167200        0.0060422766
C             0.2421846760        0.6109592923        0.6065029631
C             0.4745851369        0.3597273594        0.0917046551
C             0.2529723217        0.8741413600        0.6142327092
C             0.0090714855        0.1247250707        0.0836731360
C             0.4146659311        0.8856244075        0.7305945927
C             0.1692678815        0.1299283424        0.2042593159
C             0.0942338805        0.5939340697        0.7415732073
C             0.3313942059        0.3853905893        0.2297629359
C             0.0616892457        0.5000247731        0.6764432461
C             0.2916203152        0.4683629707        0.1517624333
C             0.1193955502        0.4657750611        0.5666959894
C             0.3458456944        0.4994346122        0.0402380139
C             0.4139725414        0.1083321490        0.4832141330
C             0.1846264289        0.9036008926        0.9587356825
C             0.0805500092        0.3798286322        0.4823230849
C             0.3089869871        0.5937110314        0.9676127349
C             0.7796055872        0.9727971151        0.5456677115
C             0.5489001101        0.0371356768        0.0145374452
C             0.8845645000        0.0148036674        0.5567404805
C             0.6506067545        0.9946618206        0.0399052829
C             0.9547804251        0.9645868636        0.6459797075
C             0.7125011378        0.0394641796        0.1426905690
C             0.7136961722        0.5276105557        0.5411887536
C             0.9723005276        0.4933757260        0.0584881638
C             0.7479664223        0.6087084573        0.6270624202
C             1.0067702422        0.4067753641        0.1338511618
C             0.7510035686        0.8838378976        0.6197434933
C             0.5094302204        0.1168541364        0.0951737850
C             0.9198057840        0.8785534701        0.7210167545
C             0.6703604171        0.1265618666        0.2133992769
C             0.5722554408        0.6439697277        0.6869923800
C             0.8327646452        0.3716602831        0.2019616473
C             0.5332808815        0.5643883409        0.6026307928
C             0.7939598736        0.4627030498        0.1344644312
C             0.6039163316        0.5007216442        0.5329953001
C             0.8641248112        0.5221000467        0.0562527367
C             0.9221242355        0.1048962348        0.4783766300
C             0.6889822957        0.9046662861        0.9632027455
C             0.5628136437        0.4061781219        0.4629568937
C             0.8247706935        0.6094471890        0.9733197732
Cl            0.1791497560        0.0002941813        0.4357139180
Cl            0.3260652732        0.9831132686        0.1873057323
Cl            0.9585559816        0.4297554703        0.7412458428
Cl            0.5065775907        0.4538356039        0.8673567892
Cl            0.6759490194        0.0240716796        0.4593061634
Cl            0.8303624905        0.9837041558        0.1958217868
Cl            0.8116553865        0.4662841602        0.4601823521
Cl            0.6667474638        0.5027224752        0.1644576000
H             0.4987983501        0.0061995100        0.9371900023
H             0.0351127549        0.9930809037        0.6602195319
H             0.2599290393        0.4957030979        0.4549240286
H             0.0299254654        0.5383641595        1.0055842598
H             0.3130314742        0.6557064752        0.5859133464
H             0.0890866385        0.3828369595        0.1396086687
H             0.1771926532        0.8349138982        0.6002263137
H             0.4310903607        0.1496573391        0.0797349860
H             0.4628755790        0.8545814951        0.8091127795
H             0.2165845720        0.1684677645        0.2783557327
H             0.0501384460        0.6249602105        0.8214340015
H             0.2923950645        0.3599089414        0.3158327654
H             0.4492952726        0.5474381915        0.5985381642
H             0.2208079452        0.5101385686        0.1799154658
H             0.9960404542        0.0115703377        0.9275714560
H             0.5237795261        1.0082991851        0.6760401856
H             0.8314207737        0.6279931670        0.6384359233
H             0.5468567447        0.3181580520        0.0707152399
H             0.6716230094        0.8515896135        0.6115804272
H             0.9312321690        0.1591994148        0.0677853654
H             0.9693752567        0.8411907665        0.7938318045
H             0.7176334167        0.1665319624        0.2861614944
H             0.5206026561        0.6885872971        0.7487005182
H             0.7804422713        0.3233144738        0.2585329850
N             0.3187130506        0.8380949571        0.7084110720
N             0.0676103880        0.1631107704        0.1862319758
N             0.1831432235        0.6462823661        0.7069716404
N             0.4239252594        0.3351423790        0.2013073873
N             0.8190200601        0.8406083917        0.7065718844
N             0.5678858189        0.1571041233        0.1968855325
N             0.6787082378        0.6620692665        0.7004238133
N             0.9375727775        0.3480161173        0.2046495170
Ni            0.2465240285        0.7471991374        0.8370539542
Ni            0.4960932124        0.2464866500        0.3402959959
Ni            0.7486556298        0.7519445890        0.8366507025
Ni            0.9979170832        0.2459209760        0.3386288154
O             0.1343851738        0.3400936309        0.3890009291
O             0.3672714736        0.6408001475        0.8828671283
O             0.3584970022        0.1541501677        0.3928608851
O             0.1248691609        0.8539177902        0.8745225857
O             0.4642044985        0.3790550252        0.4692671918
O             0.2162769235        0.6348738526        0.9863483511
O             0.0211172072        0.1340212822        0.4840608043
O             0.2796247218        0.8651707814        0.9737282498
O             0.6223827294        0.3444455166        0.3942255982
O             0.8839945555        0.6584719490        0.8917701226
O             0.8636493839        0.1587116704        0.3970665567
O             0.6285425471        0.8589438939        0.8759220135
O             0.9847741561        0.3430583296        0.4930339687
O             0.7260841051        0.6403787461        0.9746895382
O             0.5084384604        0.1487766716        0.5014014287
O             0.7837511865        0.8657902187        0.9771686304
End final coordinates



     Writing output data file /nfs/hpc/share/gantzlen/NiPyC2_relax_sc211_meta_functionalized_Cl_vdw-df2_relax.save/
 
     init_run     :     99.89s CPU    103.48s WALL (       1 calls)
     electrons    : 149253.28s CPU 163784.85s WALL (      69 calls)
     update_pot   :   1663.33s CPU   1771.96s WALL (      68 calls)
     forces       :   3117.09s CPU   3258.31s WALL (      69 calls)

     Called by init_run:
     wfcinit      :     67.94s CPU     70.26s WALL (       1 calls)
     potinit      :     22.96s CPU     24.12s WALL (       1 calls)
     hinit0       :      7.56s CPU      7.65s WALL (       1 calls)

     Called by electrons:
     c_bands      : 132175.42s CPU 144769.65s WALL (     899 calls)
     sum_band     :   6490.70s CPU   7156.26s WALL (     899 calls)
     v_of_rho     :   9386.25s CPU  10393.04s WALL (     953 calls)
     mix_rho      :   1800.27s CPU   2057.14s WALL (     899 calls)
     vdW_kernel   :      7.13s CPU      7.27s WALL (       1 calls)

     Called by c_bands:
     init_us_2    :     93.01s CPU     96.35s WALL (    1799 calls)
     regterg      : 130501.56s CPU 135802.15s WALL (     899 calls)

     Called by sum_band:

     Called by *egterg:
     h_psi        :  50452.45s CPU  53596.91s WALL (    3910 calls)
     g_psi        :     33.57s CPU     34.41s WALL (    3010 calls)
     rdiaghg      :   3431.75s CPU   3472.74s WALL (    3826 calls)

     Called by h_psi:
     h_psi:calbec :  13196.67s CPU  13623.10s WALL (    3910 calls)
     vloc_psi     :  23957.73s CPU  26634.05s WALL (    3910 calls)
     add_vuspsi   :  13189.16s CPU  13227.07s WALL (    3910 calls)

     General routines
     calbec       :  14895.01s CPU  15360.34s WALL (    4186 calls)
     fft          :   6832.99s CPU   7792.76s WALL (   80491 calls)
     ffts         :   1296.37s CPU   1470.32s WALL (   15653 calls)
     fftw         :  26198.10s CPU  29328.92s WALL (  711705 calls)
 
     Parallel routines
     fft_scatt_xy :   4908.05s CPU   5086.01s WALL (  807849 calls)
     fft_scatt_yz :   7830.86s CPU  11184.28s WALL (  807849 calls)
 
     PWSCF        :   1d18h49m CPU   1d22h56m WALL

 
   This run was terminated on:  10:41:14  31Jul2020            

=------------------------------------------------------------------------------=
   JOB DONE.
=------------------------------------------------------------------------------=
QE finished Fri Jul 31 10:41:14 PDT 2020
