/apps/openmpi/3.1_intel-19/bin/mpiexec
/apps/qe/6.5/bin/pw.x
starting QE Wed Jul 29 11:44:53 PDT 2020

     Program PWSCF v.6.5 starts on 29Jul2020 at 11:44:55 

     This program is part of the open-source Quantum ESPRESSO suite
     for quantum simulation of materials; please cite
         "P. Giannozzi et al., J. Phys.:Condens. Matter 21 395502 (2009);
         "P. Giannozzi et al., J. Phys.:Condens. Matter 29 465901 (2017);
          URL http://www.quantum-espresso.org", 
     in publications or presentations arising from this work. More details at
     http://www.quantum-espresso.org/quote

     Parallel version (MPI & OpenMP), running on      16 processor cores
     Number of MPI processes:                16
     Threads/MPI process:                     1

     MPI processes distributed on     1 nodes
     K-points division:     npool     =       2
     R & G space division:  proc/nbgrp/npool/nimage =       8
     Reading input from ./QE_input_scripts/pw.NiPyC2_relax_sc211_meta_functionalized_F_vdw-df2_relax.in
Warning: card &CELL ignored
Warning: card    CELL_DYNAMICS = 'BFGS' ignored
Warning: card    CELL_DOFREE = 'XYZ' ignored
Warning: card / ignored

     Current dimensions of program PWSCF are:
     Max number of different atomic species (ntypx) = 10
     Max number of k-points (npk) =  40000
     Max angular momentum in pseudopotentials (lmaxx) =  3

     IMPORTANT: XC functional enforced from input :
     Exchange-correlation= VDW-DF2
                           (   1   4  13   0   2   0   0)
     Any further DFT definition will be discarded
     Please, verify this is what you really want


     -------------------------------------------------
     Parameters for Dispersion (Grimme-D2) Correction:
     -------------------------------------------------
       atom      VdW radius       C_6     

        C          2.744         60.710
        F          2.432         26.018
        H          1.892          4.857
        N          2.640         42.670
        Ni         2.952        374.666
        O          2.536         24.284

     gamma-point specific algorithms are used

     Subspace diagonalization in iterative solution of the eigenvalue problem:
     a serial algorithm will be used

 
     Parallelization info
     --------------------
     sticks:   dense  smooth     PW     G-vecs:    dense   smooth      PW
     Min        2228    2228    556               183376   183376   22914
     Max        2230    2230    558               183380   183380   22917
     Sum       17829   17829   4453              1467017  1467017  183325
 


     bravais-lattice index     =            0
     lattice parameter (alat)  =      23.6322  a.u.
     unit-cell volume          =   10858.6228 (a.u.)^3
     number of atoms/cell      =          108
     number of atomic types    =            6
     number of electrons       =       448.00 (up: 228.00, down: 220.00)
     number of Kohn-Sham states=          274
     kinetic-energy cutoff     =     100.0000  Ry
     charge density cutoff     =     400.0000  Ry
     convergence threshold     =      1.0E-06
     mixing beta               =       0.7000
     number of iterations used =            8  local-TF  mixing
     Exchange-correlation= VDW-DF2
                           (   1   4  13   0   2   0   0)
     nstep                     =          200


     celldm(1)=  23.632159  celldm(2)=   0.000000  celldm(3)=   0.000000
     celldm(4)=   0.000000  celldm(5)=   0.000000  celldm(6)=   0.000000

     crystal axes: (cart. coord. in units of alat)
               a(1) = (   1.000000   0.000000   0.000000 )  
               a(2) = (   0.000000   1.001423   0.000000 )  
               a(3) = (  -0.018199   0.000000   0.821574 )  

     reciprocal axes: (cart. coord. in units 2 pi/alat)
               b(1) = (  1.000000  0.000000  0.022152 )  
               b(2) = (  0.000000  0.998579  0.000000 )  
               b(3) = (  0.000000  0.000000  1.217175 )  


     PseudoPot. # 1 for C  read from file:
     ./pseudo/C.pbesol-nc.UPF
     MD5 check sum: ce26087537ded160c8d400e183a8bf42
     Pseudo is Norm-conserving, Zval =  4.0
     Generated using "atomic" code by A. Dal Corso v.6.5
     Using radial grid of 1073 points,  1 beta functions with: 
                l(1) =   1

     PseudoPot. # 2 for F  read from file:
     ./pseudo/F.pbesol-n-nc.UPF
     MD5 check sum: 7bfb8b5cfca7590fa41d3808836ab4b2
     Pseudo is Norm-conserving, Zval =  7.0
     Generated using "atomic" code by A. Dal Corso v.6.5
     Using radial grid of 1105 points,  1 beta functions with: 
                l(1) =   1

     PseudoPot. # 3 for H  read from file:
     ./pseudo/H.pbesol-n-nc.UPF
     MD5 check sum: 7995ef24074557c85b430109caaacc09
     Pseudo is Norm-conserving, Zval =  1.0
     Generated using "atomic" code by A. Dal Corso v.6.5
     Using radial grid of  929 points,  0 beta functions with: 

     PseudoPot. # 4 for N  read from file:
     ./pseudo/N.pbesol-nc.UPF
     MD5 check sum: e18cc5e4b8a5600c1a19b30c2cab1ca0
     Pseudo is Norm-conserving, Zval =  5.0
     Generated using "atomic" code by A. Dal Corso v.6.5
     Using radial grid of 1085 points,  1 beta functions with: 
                l(1) =   1

     PseudoPot. # 5 for Ni read from file:
     ./pseudo/Ni.pbesol-n-nc.UPF
     MD5 check sum: 623411631e0c2eb7c0b2b9815547d2d9
     Pseudo is Norm-conserving + core correction, Zval = 10.0
     Generated using "atomic" code by A. Dal Corso v.6.5
     Using radial grid of 1195 points,  2 beta functions with: 
                l(1) =   1
                l(2) =   2

     PseudoPot. # 6 for O  read from file:
     ./pseudo/O.pbesol-nc.UPF
     MD5 check sum: 73d10e7e91dbfcbe8a7e362101007f84
     Pseudo is Norm-conserving, Zval =  6.0
     Generated using "atomic" code by A. Dal Corso v.6.5
     Using radial grid of 1095 points,  1 beta functions with: 
                l(1) =   1

     atomic species   valence    mass     pseudopotential
        C              4.00    12.01070     C ( 1.00)
        F              7.00    18.99840     F ( 1.00)
        H              1.00     1.00794     H ( 1.00)
        N              5.00    14.00670     N ( 1.00)
        Ni            10.00    58.69340     Ni( 1.00)
        O              6.00    15.99940     O ( 1.00)

     Starting magnetic structure 
     atomic species   magnetization
        C            0.000
        F            0.000
        H            0.000
        N            0.000
        Ni           0.250
        O            0.000

     No symmetry found



   Cartesian axes

     site n.     atom                  positions (alat units)
         1           C   tau(   1) = (   0.2787122   0.9714307   0.4288486  )
         2           C   tau(   2) = (   0.0379730   0.0311503   0.0183277  )
         3           C   tau(   3) = (   0.3806882   0.0117868   0.4489838  )
         4           C   tau(   4) = (   0.1394042   0.9891499   0.0379124  )
         5           C   tau(   5) = (   0.4400787   0.9715829   0.5343281  )
         6           C   tau(   6) = (   0.1997920   0.0283934   0.1231482  )
         7           C   tau(   7) = (   0.1986011   0.5304580   0.4324635  )
         8           C   tau(   8) = (   0.4580372   0.4720800   0.0229252  )
         9           C   tau(   9) = (   0.2341003   0.6142040   0.4982314  )
        10           C   tau(  10) = (   0.4948422   0.3892302   0.0892369  )
        11           C   tau(  11) = (   0.2384981   0.8904717   0.4955761  )
        12           C   tau(  12) = (  -0.0008282   0.1123917   0.0856467  )
        13           C   tau(  13) = (   0.3947360   0.8906489   0.5977380  )
        14           C   tau(  14) = (   0.1557890   0.1097029   0.1871645  )
        15           C   tau(  15) = (   0.0756247   0.6098498   0.5975737  )
        16           C   tau(  16) = (   0.3367152   0.3921904   0.1884642  )
        17           C   tau(  17) = (   0.0350715   0.5258264   0.5351012  )
        18           C   tau(  18) = (   0.2948780   0.4753867   0.1254988  )
        19           C   tau(  19) = (   0.0981522   0.4849593   0.4519611  )
        20           C   tau(  20) = (   0.3569104   0.5163900   0.0416029  )
        21           C   tau(  21) = (   0.4248178   0.0994604   0.3833638  )
        22           C   tau(  22) = (   0.1639424   0.9010006   0.7933713  )
        23           C   tau(  23) = (   0.0588120   0.3950355   0.3866953  )
        24           C   tau(  24) = (   0.2984059   0.6050320   0.7961934  )
        25           C   tau(  25) = (   0.7787122   0.9714307   0.4288486  )
        26           C   tau(  26) = (   0.5379730   0.0311503   0.0183277  )
        27           C   tau(  27) = (   0.8806882   0.0117868   0.4489838  )
        28           C   tau(  28) = (   0.6394042   0.9891499   0.0379124  )
        29           C   tau(  29) = (   0.9400787   0.9715829   0.5343281  )
        30           C   tau(  30) = (   0.6997920   0.0283934   0.1231482  )
        31           C   tau(  31) = (   0.6986021   0.5304580   0.4324635  )
        32           C   tau(  32) = (   0.9580382   0.4720800   0.0229252  )
        33           C   tau(  33) = (   0.7341003   0.6142040   0.4982314  )
        34           C   tau(  34) = (   0.9948422   0.3892302   0.0892369  )
        35           C   tau(  35) = (   0.7384981   0.8904717   0.4955761  )
        36           C   tau(  36) = (   0.4991718   0.1123917   0.0856467  )
        37           C   tau(  37) = (   0.8947360   0.8906489   0.5977380  )
        38           C   tau(  38) = (   0.6557880   0.1097029   0.1871645  )
        39           C   tau(  39) = (   0.5756247   0.6098498   0.5975737  )
        40           C   tau(  40) = (   0.8367152   0.3921904   0.1884642  )
        41           C   tau(  41) = (   0.5350715   0.5258264   0.5351012  )
        42           C   tau(  42) = (   0.7948780   0.4753867   0.1254988  )
        43           C   tau(  43) = (   0.5981522   0.4849593   0.4519611  )
        44           C   tau(  44) = (   0.8569104   0.5163900   0.0416029  )
        45           C   tau(  45) = (   0.9248178   0.0994604   0.3833638  )
        46           C   tau(  46) = (   0.6639424   0.9010006   0.7933713  )
        47           C   tau(  47) = (   0.5588110   0.3950355   0.3866953  )
        48           C   tau(  48) = (   0.7984059   0.6050320   0.7961934  )
        49           F   tau(  49) = (   0.5396625   0.0055499   0.5574463  )
        50           F   tau(  50) = (   0.9579154   0.9984451   0.7577979  )
        51           F   tau(  51) = (   0.2623691   0.4959980   0.3520676  )
        52           F   tau(  52) = (   0.1960894   0.5135219   0.1475539  )
        53           F   tau(  53) = (   0.7176447   0.0055058   0.3467134  )
        54           F   tau(  54) = (   0.4579154   0.9984451   0.7577979  )
        55           F   tau(  55) = (   0.7623700   0.4959970   0.3520684  )
        56           F   tau(  56) = (   0.6960894   0.5135219   0.1475539  )
        57           H   tau(  57) = (   0.2290596   1.0009978   0.3640502  )
        58           H   tau(  58) = (   0.0198054   1.0002267   0.5533467  )
        59           H   tau(  59) = (   0.2791988   1.0000865   0.1418054  )
        60           H   tau(  60) = (  -0.0086584   0.5011092   0.7809458  )
        61           H   tau(  61) = (   0.3118554   0.6514319   0.4868937  )
        62           H   tau(  62) = (   0.0732386   0.3533532   0.0780726  )
        63           H   tau(  63) = (   0.1594426   0.8563401   0.4835457  )
        64           H   tau(  64) = (   0.4206861   0.1479423   0.0738480  )
        65           H   tau(  65) = (   0.4386511   0.8563902   0.6644572  )
        66           H   tau(  66) = (   0.2006191   0.1433067   0.2536997  )
        67           H   tau(  67) = (   0.0290492   0.6438591   0.6626884  )
        68           H   tau(  68) = (   0.2907535   0.3580349   0.2539083  )
        69           H   tau(  69) = (   0.4564147   0.4939330   0.5533319  )
        70           H   tau(  70) = (   0.7791988   1.0000865   0.1418054  )
        71           H   tau(  71) = (   0.4913416   0.5011092   0.7809458  )
        72           H   tau(  72) = (   0.8118554   0.6514319   0.4868937  )
        73           H   tau(  73) = (   0.5732386   0.3533532   0.0780726  )
        74           H   tau(  74) = (   0.6594426   0.8563401   0.4835457  )
        75           H   tau(  75) = (   0.9206861   0.1479423   0.0738480  )
        76           H   tau(  76) = (   0.9386511   0.8563902   0.6644572  )
        77           H   tau(  77) = (   0.7006201   0.1433067   0.2536997  )
        78           H   tau(  78) = (   0.5290492   0.6438591   0.6626884  )
        79           H   tau(  79) = (   0.7907535   0.3580349   0.2539083  )
        80           H   tau(  80) = (   0.9564147   0.4939330   0.5533319  )
        81           N   tau(  81) = (   0.2956096   0.8524646   0.5790685  )
        82           N   tau(  82) = (   0.0569790   0.1490689   0.1692870  )
        83           N   tau(  83) = (   0.1736962   0.6512356   0.5798983  )
        84           N   tau(  84) = (   0.4350238   0.3514275   0.1709211  )
        85           N   tau(  85) = (   0.7956096   0.8524646   0.5790685  )
        86           N   tau(  86) = (   0.5569790   0.1490689   0.1692870  )
        87           N   tau(  87) = (   0.6736972   0.6512356   0.5798983  )
        88           N   tau(  88) = (   0.9350238   0.3514275   0.1709211  )
        89           Ni  tau(  89) = (   0.2317814   0.7525556   0.6871039  )
        90           Ni  tau(  90) = (   0.4937992   0.2483520   0.2786599  )
        91           Ni  tau(  91) = (   0.7317814   0.7525556   0.6871039  )
        92           Ni  tau(  92) = (   0.9937992   0.2483520   0.2786599  )
        93           O   tau(  93) = (   0.1158100   0.3481839   0.3145586  )
        94           O   tau(  94) = (   0.3551690   0.6519036   0.7240468  )
        95           O   tau(  95) = (   0.3707656   0.1477170   0.3098797  )
        96           O   tau(  96) = (   0.1091506   0.8535652   0.7199135  )
        97           O   tau(  97) = (   0.4642788   0.3566669   0.3968154  )
        98           O   tau(  98) = (   0.2033039   0.6423280   0.8050417  )
        99           O   tau(  99) = (   0.0200847   0.1353504   0.3952413  )
       100           O   tau( 100) = (   0.2588616   0.8639860   0.8046490  )
       101           O   tau( 101) = (   0.6158110   0.3481839   0.3145586  )
       102           O   tau( 102) = (   0.8551690   0.6519036   0.7240468  )
       103           O   tau( 103) = (   0.8707656   0.1477170   0.3098797  )
       104           O   tau( 104) = (   0.6091506   0.8535652   0.7199135  )
       105           O   tau( 105) = (   0.9642788   0.3566669   0.3968154  )
       106           O   tau( 106) = (   0.7033039   0.6423280   0.8050417  )
       107           O   tau( 107) = (   0.5200847   0.1353504   0.3952413  )
       108           O   tau( 108) = (   0.7588616   0.8639860   0.8046490  )

     number of k points=     1  Marzari-Vanderbilt smearing, width (Ry)=  0.2000
                       cart. coord. in units 2pi/alat
        k(    1) = (   0.0000000   0.0000000   0.0000000), wk =   1.0000000

     Dense  grid:   733509 G-vectors     FFT dimensions: ( 160, 160, 125)

     Estimated max dynamical RAM per process >     635.86 MB

     Estimated total dynamical RAM >       9.94 GB
     Generating pointlists ...
     new r_m :   0.0358 (alat units)  0.8462 (a.u.) for type    1
     new r_m :   0.0446 (alat units)  1.0544 (a.u.) for type    2
     new r_m :   0.0358 (alat units)  0.8462 (a.u.) for type    3
     new r_m :   0.0445 (alat units)  1.0514 (a.u.) for type    4
     new r_m :   0.0654 (alat units)  1.5454 (a.u.) for type    5
     new r_m :   0.0423 (alat units)  0.9991 (a.u.) for type    6

     Check: negative core charge=   -0.000145

     Initial potential from superposition of free atoms

     starting charge  447.99678, renormalised to  448.00000


     %%%%%%%%%%%%%%%%%%%%%%%%%%%%%%%%%%%%%%%%%%%%%%%%%%%%%%%%%%%%%%%%%%%%%%%%
     %                                                                      %
     % You are using vdW-DF, which was implemented by the Thonhauser group. %
     % Please cite the following two papers that made this development      %
     % possible and the two reviews that describe the various versions:     %
     %                                                                      %
     %   T. Thonhauser et al., PRL 115, 136402 (2015).                      %
     %   T. Thonhauser et al., PRB 76, 125112 (2007).                       %
     %   K. Berland et al., Rep. Prog. Phys. 78, 066501 (2015).             %
     %   D.C. Langreth et al., J. Phys.: Condens. Matter 21, 084203 (2009). %
     %                                                                      %
     %                                                                      %
     % If you are calculating the stress with vdW-DF, please also cite:     %
     %                                                                      %
     %   R. Sabatini et al., J. Phys.: Condens. Matter 24, 424209 (2012).   %
     %                                                                      %
     %%%%%%%%%%%%%%%%%%%%%%%%%%%%%%%%%%%%%%%%%%%%%%%%%%%%%%%%%%%%%%%%%%%%%%%%


     Starting wfcs are  380 randomized atomic wfcs

     total cpu time spent up to now is      102.8 secs

     Self-consistent Calculation

     iteration #  1     ecut=   100.00 Ry     beta= 0.70
     Davidson diagonalization with overlap
     ethr =  1.00E-02,  avg # of iterations =  5.0

     total cpu time spent up to now is      338.6 secs

     total energy              =   -2018.68450770 Ry
     Harris-Foulkes estimate   =   -2028.16405689 Ry
     estimated scf accuracy    <      23.60541028 Ry

     total magnetization       =     8.00 Bohr mag/cell
     absolute magnetization    =     8.94 Bohr mag/cell

     iteration #  2     ecut=   100.00 Ry     beta= 0.70
     Davidson diagonalization with overlap
     ethr =  5.27E-03,  avg # of iterations =  2.0

     total cpu time spent up to now is      499.4 secs

     total energy              =   -2022.78173943 Ry
     Harris-Foulkes estimate   =   -2027.15418962 Ry
     estimated scf accuracy    <      20.34416449 Ry

     total magnetization       =     8.00 Bohr mag/cell
     absolute magnetization    =     8.30 Bohr mag/cell

     iteration #  3     ecut=   100.00 Ry     beta= 0.70
     Davidson diagonalization with overlap
     ethr =  4.54E-03,  avg # of iterations =  1.0

     total cpu time spent up to now is      637.2 secs

     total energy              =   -2022.65970727 Ry
     Harris-Foulkes estimate   =   -2023.70202836 Ry
     estimated scf accuracy    <       3.36286490 Ry

     total magnetization       =     8.00 Bohr mag/cell
     absolute magnetization    =     8.25 Bohr mag/cell

     iteration #  4     ecut=   100.00 Ry     beta= 0.70
     Davidson diagonalization with overlap
     ethr =  7.51E-04,  avg # of iterations =  6.0

     total cpu time spent up to now is      808.7 secs

     total energy              =   -2022.64180074 Ry
     Harris-Foulkes estimate   =   -2023.66424213 Ry
     estimated scf accuracy    <       8.17693145 Ry

     total magnetization       =     8.00 Bohr mag/cell
     absolute magnetization    =     8.33 Bohr mag/cell

     iteration #  5     ecut=   100.00 Ry     beta= 0.70
     Davidson diagonalization with overlap
     ethr =  7.51E-04,  avg # of iterations =  1.5

     total cpu time spent up to now is      947.5 secs

     total energy              =   -2023.08311911 Ry
     Harris-Foulkes estimate   =   -2023.14419229 Ry
     estimated scf accuracy    <       0.31680186 Ry

     total magnetization       =     8.00 Bohr mag/cell
     absolute magnetization    =     8.32 Bohr mag/cell

     iteration #  6     ecut=   100.00 Ry     beta= 0.70
     Davidson diagonalization with overlap
     ethr =  7.07E-05,  avg # of iterations = 10.0

     total cpu time spent up to now is     1115.7 secs

     total energy              =   -2023.08547931 Ry
     Harris-Foulkes estimate   =   -2023.12784741 Ry
     estimated scf accuracy    <       0.86829079 Ry

     total magnetization       =     8.00 Bohr mag/cell
     absolute magnetization    =     8.33 Bohr mag/cell

     iteration #  7     ecut=   100.00 Ry     beta= 0.70
     Davidson diagonalization with overlap
     ethr =  7.07E-05,  avg # of iterations =  1.0

     total cpu time spent up to now is     1249.7 secs

     total energy              =   -2023.00855420 Ry
     Harris-Foulkes estimate   =   -2023.10469031 Ry
     estimated scf accuracy    <       0.51625463 Ry

     total magnetization       =     8.00 Bohr mag/cell
     absolute magnetization    =     8.34 Bohr mag/cell

     iteration #  8     ecut=   100.00 Ry     beta= 0.70
     Davidson diagonalization with overlap
     ethr =  7.07E-05,  avg # of iterations =  3.0

     total cpu time spent up to now is     1390.3 secs

     total energy              =   -2023.04243362 Ry
     Harris-Foulkes estimate   =   -2023.06197630 Ry
     estimated scf accuracy    <       0.14369744 Ry

     total magnetization       =     8.00 Bohr mag/cell
     absolute magnetization    =     8.35 Bohr mag/cell

     iteration #  9     ecut=   100.00 Ry     beta= 0.70
     Davidson diagonalization with overlap
     ethr =  3.21E-05,  avg # of iterations =  6.0

     total cpu time spent up to now is     1542.0 secs

     total energy              =   -2023.03934213 Ry
     Harris-Foulkes estimate   =   -2023.04985269 Ry
     estimated scf accuracy    <       0.10530133 Ry

     total magnetization       =     8.00 Bohr mag/cell
     absolute magnetization    =     8.35 Bohr mag/cell

     iteration # 10     ecut=   100.00 Ry     beta= 0.70
     Davidson diagonalization with overlap
     ethr =  2.35E-05,  avg # of iterations =  2.0

     total cpu time spent up to now is     1677.0 secs

     total energy              =   -2023.04085403 Ry
     Harris-Foulkes estimate   =   -2023.04412158 Ry
     estimated scf accuracy    <       0.01335445 Ry

     total magnetization       =     8.00 Bohr mag/cell
     absolute magnetization    =     8.34 Bohr mag/cell

     iteration # 11     ecut=   100.00 Ry     beta= 0.70
     Davidson diagonalization with overlap
     ethr =  2.98E-06,  avg # of iterations =  7.0

     total cpu time spent up to now is     1850.6 secs

     total energy              =   -2023.04037884 Ry
     Harris-Foulkes estimate   =   -2023.04197530 Ry
     estimated scf accuracy    <       0.01221883 Ry

     total magnetization       =     8.00 Bohr mag/cell
     absolute magnetization    =     8.33 Bohr mag/cell

     iteration # 12     ecut=   100.00 Ry     beta= 0.70
     Davidson diagonalization with overlap
     ethr =  2.73E-06,  avg # of iterations =  2.0

     total cpu time spent up to now is     1993.7 secs

     total energy              =   -2023.04127333 Ry
     Harris-Foulkes estimate   =   -2023.04108749 Ry
     estimated scf accuracy    <       0.00113006 Ry

     total magnetization       =     8.00 Bohr mag/cell
     absolute magnetization    =     8.32 Bohr mag/cell

     iteration # 13     ecut=   100.00 Ry     beta= 0.70
     Davidson diagonalization with overlap
     ethr =  2.52E-07,  avg # of iterations =  4.0

     total cpu time spent up to now is     2144.8 secs

     total energy              =   -2023.04141351 Ry
     Harris-Foulkes estimate   =   -2023.04136846 Ry
     estimated scf accuracy    <       0.00099489 Ry

     total magnetization       =     8.00 Bohr mag/cell
     absolute magnetization    =     8.32 Bohr mag/cell

     iteration # 14     ecut=   100.00 Ry     beta= 0.70
     Davidson diagonalization with overlap
     ethr =  2.22E-07,  avg # of iterations =  3.5

     total cpu time spent up to now is     2285.6 secs

     total energy              =   -2023.04151588 Ry
     Harris-Foulkes estimate   =   -2023.04155016 Ry
     estimated scf accuracy    <       0.00190556 Ry

     total magnetization       =     8.00 Bohr mag/cell
     absolute magnetization    =     8.31 Bohr mag/cell

     iteration # 15     ecut=   100.00 Ry     beta= 0.70
     Davidson diagonalization with overlap
     ethr =  2.22E-07,  avg # of iterations =  4.0

     total cpu time spent up to now is     2432.7 secs

     total energy              =   -2023.04161723 Ry
     Harris-Foulkes estimate   =   -2023.04160927 Ry
     estimated scf accuracy    <       0.00025846 Ry

     total magnetization       =     8.00 Bohr mag/cell
     absolute magnetization    =     8.31 Bohr mag/cell

     iteration # 16     ecut=   100.00 Ry     beta= 0.70
     Davidson diagonalization with overlap
     ethr =  5.77E-08,  avg # of iterations =  5.5

     total cpu time spent up to now is     2584.9 secs

     total energy              =   -2023.04164321 Ry
     Harris-Foulkes estimate   =   -2023.04163734 Ry
     estimated scf accuracy    <       0.00006068 Ry

     total magnetization       =     8.00 Bohr mag/cell
     absolute magnetization    =     8.31 Bohr mag/cell

     iteration # 17     ecut=   100.00 Ry     beta= 0.70
     Davidson diagonalization with overlap
     ethr =  1.35E-08,  avg # of iterations =  4.0

     total cpu time spent up to now is     2734.4 secs

     total energy              =   -2023.04164919 Ry
     Harris-Foulkes estimate   =   -2023.04165316 Ry
     estimated scf accuracy    <       0.00016585 Ry

     total magnetization       =     8.00 Bohr mag/cell
     absolute magnetization    =     8.31 Bohr mag/cell

     iteration # 18     ecut=   100.00 Ry     beta= 0.70
     Davidson diagonalization with overlap
     ethr =  1.35E-08,  avg # of iterations =  4.0

     total cpu time spent up to now is     2889.7 secs

     total energy              =   -2023.04165866 Ry
     Harris-Foulkes estimate   =   -2023.04165788 Ry
     estimated scf accuracy    <       0.00000919 Ry

     total magnetization       =     8.00 Bohr mag/cell
     absolute magnetization    =     8.31 Bohr mag/cell

     iteration # 19     ecut=   100.00 Ry     beta= 0.70
     Davidson diagonalization with overlap
     ethr =  2.05E-09,  avg # of iterations =  4.0

     total cpu time spent up to now is     3079.0 secs

     total energy              =   -2023.04165687 Ry
     Harris-Foulkes estimate   =   -2023.04166061 Ry
     estimated scf accuracy    <       0.00000608 Ry

     total magnetization       =     8.00 Bohr mag/cell
     absolute magnetization    =     8.32 Bohr mag/cell

     iteration # 20     ecut=   100.00 Ry     beta= 0.70
     Davidson diagonalization with overlap
     ethr =  1.36E-09,  avg # of iterations =  4.0

     total cpu time spent up to now is     3253.6 secs

     total energy              =   -2023.04166453 Ry
     Harris-Foulkes estimate   =   -2023.04165818 Ry
     estimated scf accuracy    <       0.00001243 Ry

     total magnetization       =     8.00 Bohr mag/cell
     absolute magnetization    =     8.32 Bohr mag/cell

     iteration # 21     ecut=   100.00 Ry     beta= 0.70
     Davidson diagonalization with overlap
     ethr =  1.36E-09,  avg # of iterations =  5.0

     total cpu time spent up to now is     3434.9 secs

     total energy              =   -2023.04166607 Ry
     Harris-Foulkes estimate   =   -2023.04166586 Ry
     estimated scf accuracy    <       0.00000206 Ry

     total magnetization       =     8.00 Bohr mag/cell
     absolute magnetization    =     8.32 Bohr mag/cell

     iteration # 22     ecut=   100.00 Ry     beta= 0.70
     Davidson diagonalization with overlap
     ethr =  4.61E-10,  avg # of iterations =  5.0
 
     Magnetic moment per site:
     atom:    1    charge:    0.8597    magn:    0.0057    constr:    0.0000
     atom:    2    charge:    0.8306    magn:    0.0057    constr:    0.0000
     atom:    3    charge:    0.8677    magn:    0.0061    constr:    0.0000
     atom:    4    charge:    0.8673    magn:    0.0058    constr:    0.0000
     atom:    5    charge:    0.8302    magn:    0.0058    constr:    0.0000
     atom:    6    charge:    0.8615    magn:    0.0058    constr:    0.0000
     atom:    7    charge:    0.8313    magn:    0.0054    constr:    0.0000
     atom:    8    charge:    0.8600    magn:    0.0060    constr:    0.0000
     atom:    9    charge:    0.8562    magn:    0.0080    constr:    0.0000
     atom:   10    charge:    0.8509    magn:    0.0068    constr:    0.0000
     atom:   11    charge:    0.8522    magn:    0.0066    constr:    0.0000
     atom:   12    charge:    0.8559    magn:    0.0078    constr:    0.0000
     atom:   13    charge:    0.8580    magn:    0.0082    constr:    0.0000
     atom:   14    charge:    0.8539    magn:    0.0063    constr:    0.0000
     atom:   15    charge:    0.8540    magn:    0.0063    constr:    0.0000
     atom:   16    charge:    0.8572    magn:    0.0082    constr:    0.0000
     atom:   17    charge:    0.8604    magn:    0.0057    constr:    0.0000
     atom:   18    charge:    0.8302    magn:    0.0059    constr:    0.0000
     atom:   19    charge:    0.8696    magn:    0.0060    constr:    0.0000
     atom:   20    charge:    0.8673    magn:    0.0061    constr:    0.0000
     atom:   21    charge:    0.8357    magn:   -0.0029    constr:    0.0000
     atom:   22    charge:    0.8364    magn:   -0.0028    constr:    0.0000
     atom:   23    charge:    0.8361    magn:   -0.0028    constr:    0.0000
     atom:   24    charge:    0.8369    magn:   -0.0029    constr:    0.0000
     atom:   25    charge:    0.8299    magn:    0.0060    constr:    0.0000
     atom:   26    charge:    0.8301    magn:    0.0058    constr:    0.0000
     atom:   27    charge:    0.8679    magn:    0.0057    constr:    0.0000
     atom:   28    charge:    0.8672    magn:    0.0059    constr:    0.0000
     atom:   29    charge:    0.8600    magn:    0.0067    constr:    0.0000
     atom:   30    charge:    0.8613    magn:    0.0067    constr:    0.0000
     atom:   31    charge:    0.8313    magn:    0.0054    constr:    0.0000
     atom:   32    charge:    0.8600    magn:    0.0060    constr:    0.0000
     atom:   33    charge:    0.8563    magn:    0.0080    constr:    0.0000
     atom:   34    charge:    0.8509    magn:    0.0068    constr:    0.0000
     atom:   35    charge:    0.8552    magn:    0.0083    constr:    0.0000
     atom:   36    charge:    0.8559    magn:    0.0082    constr:    0.0000
     atom:   37    charge:    0.8544    magn:    0.0069    constr:    0.0000
     atom:   38    charge:    0.8538    magn:    0.0069    constr:    0.0000
     atom:   39    charge:    0.8541    magn:    0.0063    constr:    0.0000
     atom:   40    charge:    0.8572    magn:    0.0082    constr:    0.0000
     atom:   41    charge:    0.8604    magn:    0.0056    constr:    0.0000
     atom:   42    charge:    0.8302    magn:    0.0059    constr:    0.0000
     atom:   43    charge:    0.8695    magn:    0.0060    constr:    0.0000
     atom:   44    charge:    0.8673    magn:    0.0061    constr:    0.0000
     atom:   45    charge:    0.8354    magn:   -0.0027    constr:    0.0000
     atom:   46    charge:    0.8362    magn:   -0.0030    constr:    0.0000
     atom:   47    charge:    0.8361    magn:   -0.0029    constr:    0.0000
     atom:   48    charge:    0.8369    magn:   -0.0029    constr:    0.0000
     atom:   49    charge:    4.7370    magn:    0.0098    constr:    0.0000
     atom:   50    charge:    4.7434    magn:    0.0058    constr:    0.0000
     atom:   51    charge:    4.7436    magn:    0.0067    constr:    0.0000
     atom:   52    charge:    4.7384    magn:    0.0096    constr:    0.0000
     atom:   53    charge:    4.7443    magn:    0.0065    constr:    0.0000
     atom:   54    charge:    4.7439    magn:    0.0067    constr:    0.0000
     atom:   55    charge:    4.7436    magn:    0.0068    constr:    0.0000
     atom:   56    charge:    4.7384    magn:    0.0096    constr:    0.0000
     atom:   57    charge:    0.5013    magn:   -0.0012    constr:    0.0000
     atom:   58    charge:    0.5003    magn:   -0.0013    constr:    0.0000
     atom:   59    charge:    0.5001    magn:   -0.0013    constr:    0.0000
     atom:   60    charge:    0.5012    magn:   -0.0013    constr:    0.0000
     atom:   61    charge:    0.4999    magn:   -0.0010    constr:    0.0000
     atom:   62    charge:    0.5061    magn:   -0.0013    constr:    0.0000
     atom:   63    charge:    0.5054    magn:   -0.0012    constr:    0.0000
     atom:   64    charge:    0.5005    magn:   -0.0010    constr:    0.0000
     atom:   65    charge:    0.4976    magn:   -0.0009    constr:    0.0000
     atom:   66    charge:    0.5021    magn:   -0.0011    constr:    0.0000
     atom:   67    charge:    0.5017    magn:   -0.0011    constr:    0.0000
     atom:   68    charge:    0.4966    magn:   -0.0010    constr:    0.0000
     atom:   69    charge:    0.4999    magn:   -0.0013    constr:    0.0000
     atom:   70    charge:    0.5007    magn:   -0.0013    constr:    0.0000
     atom:   71    charge:    0.5012    magn:   -0.0013    constr:    0.0000
     atom:   72    charge:    0.4998    magn:   -0.0010    constr:    0.0000
     atom:   73    charge:    0.5060    magn:   -0.0013    constr:    0.0000
     atom:   74    charge:    0.5002    magn:   -0.0011    constr:    0.0000
     atom:   75    charge:    0.5002    magn:   -0.0010    constr:    0.0000
     atom:   76    charge:    0.5034    magn:   -0.0010    constr:    0.0000
     atom:   77    charge:    0.5029    magn:   -0.0009    constr:    0.0000
     atom:   78    charge:    0.5017    magn:   -0.0011    constr:    0.0000
     atom:   79    charge:    0.4965    magn:   -0.0010    constr:    0.0000
     atom:   80    charge:    0.4999    magn:   -0.0013    constr:    0.0000
     atom:   81    charge:    2.4967    magn:    0.0114    constr:    0.0000
     atom:   82    charge:    2.4962    magn:    0.0120    constr:    0.0000
     atom:   83    charge:    2.4997    magn:    0.0116    constr:    0.0000
     atom:   84    charge:    2.4965    magn:    0.0113    constr:    0.0000
     atom:   85    charge:    2.4966    magn:    0.0115    constr:    0.0000
     atom:   86    charge:    2.4963    magn:    0.0117    constr:    0.0000
     atom:   87    charge:    2.4997    magn:    0.0116    constr:    0.0000
     atom:   88    charge:    2.4965    magn:    0.0112    constr:    0.0000
     atom:   89    charge:    7.4564    magn:    1.1756    constr:    0.0000
     atom:   90    charge:    7.4545    magn:    1.1739    constr:    0.0000
     atom:   91    charge:    7.4561    magn:    1.1752    constr:    0.0000
     atom:   92    charge:    7.4551    magn:    1.1725    constr:    0.0000
     atom:   93    charge:    3.3059    magn:    0.0642    constr:    0.0000
     atom:   94    charge:    3.3072    magn:    0.0619    constr:    0.0000
     atom:   95    charge:    3.3093    magn:    0.0611    constr:    0.0000
     atom:   96    charge:    3.3048    magn:    0.0630    constr:    0.0000
     atom:   97    charge:    3.3042    magn:    0.0637    constr:    0.0000
     atom:   98    charge:    3.3043    magn:    0.0656    constr:    0.0000
     atom:   99    charge:    3.3074    magn:    0.0627    constr:    0.0000
     atom:  100    charge:    3.3037    magn:    0.0645    constr:    0.0000
     atom:  101    charge:    3.3055    magn:    0.0646    constr:    0.0000
     atom:  102    charge:    3.3070    magn:    0.0621    constr:    0.0000
     atom:  103    charge:    3.3079    magn:    0.0623    constr:    0.0000
     atom:  104    charge:    3.3034    magn:    0.0659    constr:    0.0000
     atom:  105    charge:    3.3043    magn:    0.0634    constr:    0.0000
     atom:  106    charge:    3.3042    magn:    0.0658    constr:    0.0000
     atom:  107    charge:    3.3035    magn:    0.0682    constr:    0.0000
     atom:  108    charge:    3.3032    magn:    0.0656    constr:    0.0000

     total cpu time spent up to now is     3633.8 secs

     End of self-consistent calculation

 ------ SPIN UP ------------


          k = 0.0000 0.0000 0.0000 ( 91663 PWs)   bands (ev):

   -25.1492 -25.1050 -25.0973 -25.0944 -25.0915 -24.9042 -24.9031 -24.8998
   -22.3487 -22.3461 -22.3440 -22.3375 -22.2249 -22.2244 -22.2198 -22.2147
   -19.3942 -19.3898 -19.3888 -19.3855 -19.3819 -19.3753 -19.3733 -19.3590
   -19.2873 -19.2803 -19.2566 -19.2261 -19.1745 -19.1555 -19.1479 -19.1294
   -15.6814 -15.6557 -15.6359 -15.6273 -15.6060 -15.5989 -15.5939 -15.5785
   -14.3750 -14.3514 -14.3391 -14.3130 -14.2496 -14.2463 -14.2084 -14.1718
   -12.0562 -11.9804 -11.9565 -11.9296 -11.8997 -11.8737 -11.8688 -11.8477
   -11.1974 -11.1803 -11.1736 -11.1262 -11.0911 -11.0770 -11.0593 -11.0513
    -9.7812  -9.5767  -9.5612  -9.5039  -9.3790  -9.2953  -9.2555  -9.1722
    -8.4786  -8.4324  -8.3913  -8.3644  -8.3286  -8.3047  -8.2166  -8.1710
    -8.1201  -8.0515  -8.0112  -7.9818  -7.9319  -7.8969  -7.8855  -7.8466
    -7.8282  -7.6374  -7.6141  -7.5334  -7.3430  -7.3076  -7.2164  -7.1463
    -6.8969  -6.8562  -6.8386  -6.8184  -6.7739  -6.7720  -6.7469  -6.7319
    -6.7084  -6.6965  -6.6222  -6.5806  -6.5143  -6.5071  -6.4955  -6.4551
    -6.4446  -6.4227  -6.3990  -6.3688  -6.3427  -6.3263  -6.3026  -6.2839
    -6.2596  -6.2167  -6.2089  -6.1749  -6.1016  -6.0599  -6.0097  -5.9801
    -5.9339  -5.8875  -5.8488  -5.8380  -5.7419  -5.6920  -5.6452  -5.6134
    -5.2126  -5.1812  -5.1291  -5.0963  -5.0534  -5.0085  -4.9844  -4.9630
    -4.9462  -4.9106  -4.8789  -4.8644  -4.7909  -4.7813  -4.7627  -4.7476
    -4.7025  -4.6410  -4.5929  -4.5666  -4.4877  -4.4114  -4.3445  -4.3200
    -4.3035  -4.2628  -4.1125  -4.0786  -4.0395  -3.9385  -3.8475  -3.7953
    -3.5683  -3.5427  -3.5176  -3.4548  -3.3993  -3.3473  -3.3241  -3.2948
    -3.2357  -3.2084  -3.2031  -3.1894  -3.1572  -3.1383  -3.0498  -3.0406
    -2.9210  -2.8655  -2.8173  -2.7142  -2.6262  -2.5689  -2.5304  -2.5268
    -2.4785  -2.4348  -2.3904  -2.3576  -2.3464  -2.3283  -2.3140  -2.3016
    -2.2828  -2.2264  -2.2055  -2.1784  -2.1640  -2.1529  -2.1302  -2.0920
    -2.0232  -1.9864  -1.9742  -1.9317  -1.7408  -1.7092  -1.6861  -1.6583
    -1.6179  -1.5851  -1.5289  -1.4492  -0.4014  -0.3352  -0.3228  -0.2645
    -0.0950  -0.0814  -0.0601   0.0022   1.7782   1.8375   1.8693   1.8802
     1.8912   1.9068   1.9685   2.0209   2.7257   3.0151   3.0395   3.0796
     3.1302   3.2134   3.2928   3.3496   3.3928   3.4756   3.4906   3.5458
     4.1850   4.2327   4.2593   4.3392   4.3630   4.4598   4.4840   4.5230
     4.5608   4.5729   4.6190   4.6397   4.6871   4.7961   4.8810   5.1090
     5.1357   5.2209   5.2259   5.5696   5.8453   5.9066   5.9496   5.9753
     6.0516   6.1134

 ------ SPIN DOWN ----------


          k = 0.0000 0.0000 0.0000 ( 91663 PWs)   bands (ev):

   -25.1384 -25.0927 -25.0845 -25.0815 -25.0785 -24.8867 -24.8859 -24.8825
   -22.2401 -22.2364 -22.2333 -22.2263 -22.1163 -22.1160 -22.1099 -22.1035
   -19.2657 -19.2601 -19.2482 -19.2453 -19.2396 -19.2362 -19.2313 -19.2307
   -19.2249 -19.2159 -19.2084 -19.1904 -19.1398 -19.1207 -19.1134 -19.0952
   -15.6430 -15.6173 -15.5980 -15.5883 -15.5670 -15.5599 -15.5549 -15.5388
   -14.3313 -14.3067 -14.2948 -14.2673 -14.2031 -14.2001 -14.1618 -14.1244
   -12.0155 -11.9400 -11.9160 -11.8910 -11.8602 -11.8342 -11.8286 -11.8068
   -11.1712 -11.1543 -11.1477 -11.0992 -11.0638 -11.0497 -11.0325 -11.0242
    -9.7578  -9.5535  -9.5360  -9.4805  -9.3520  -9.2692  -9.2268  -9.1440
    -8.4511  -8.4086  -8.3692  -8.3428  -8.3097  -8.2795  -8.1896  -8.1437
    -8.0978  -8.0256  -7.9765  -7.9518  -7.9016  -7.8693  -7.8502  -7.8155
    -7.7895  -7.5893  -7.5640  -7.4951  -7.2904  -7.2551  -7.1652  -7.0886
    -6.8152  -6.7812  -6.7445  -6.7372  -6.6910  -6.6772  -6.6595  -6.6508
    -6.6061  -6.5945  -6.5181  -6.4719  -6.4410  -6.4344  -6.4070  -6.3992
    -6.3550  -6.3198  -6.2925  -6.2711  -6.2637  -6.2198  -6.2061  -6.1962
    -6.1716  -6.1413  -6.1373  -6.0999  -6.0571  -6.0284  -5.9680  -5.9051
    -5.8744  -5.7845  -5.7546  -5.7291  -5.6378  -5.5868  -5.5431  -5.5297
    -5.1656  -5.1512  -5.1035  -5.0349  -5.0109  -4.9439  -4.9231  -4.9059
    -4.8821  -4.8530  -4.8327  -4.8182  -4.7284  -4.7117  -4.6920  -4.6482
    -4.5916  -4.4023  -4.3705  -4.3244  -4.3037  -4.2889  -4.1966  -4.1644
    -4.1230  -4.0992  -4.0145  -3.8322  -3.6788  -3.6210  -3.5885  -3.4693
    -3.2994  -3.2665  -3.2301  -3.1419  -3.0504  -2.9515  -2.9001  -2.8257
    -2.7637  -2.7253  -2.7117  -2.6835  -2.6563  -2.6360  -2.6225  -2.5943
    -2.5510  -2.5205  -2.4878  -2.3834  -2.3497  -2.3113  -2.2790  -2.2270
    -2.1858  -2.1798  -2.1063  -2.0978  -2.0570  -1.9754  -1.8684  -1.8512
    -1.6766  -1.6620  -1.6451  -1.6114  -1.5722  -1.5414  -1.5052  -1.4808
    -1.4233  -1.4065  -1.3667  -1.3316  -1.3266  -1.3216  -1.3084  -1.2861
    -1.2532  -1.2175  -1.1990  -1.1666   0.4906   0.5440   0.5536   0.5939
     0.7225   0.7406   0.7656   0.8060   1.8958   1.9594   1.9996   2.0016
     2.0102   2.0363   2.0928   2.1379   2.6934   3.1007   3.1496   3.1840
     3.2418   3.3023   3.3351   3.4016   3.5063   3.5197   3.5436   3.5922
     4.1820   4.2220   4.2762   4.3403   4.4265   4.4798   4.5453   4.5611
     4.6271   4.6511   4.6631   4.7049   4.7076   4.8538   4.8815   5.1076
     5.1378   5.2270   5.2346   5.5879   5.8608   5.9037   5.9553   5.9777
     6.0528   6.1235

     the spin up/dw Fermi energies are     0.1931   -0.1307 ev

!    total energy              =   -2023.04166502 Ry
     Harris-Foulkes estimate   =   -2023.04166705 Ry
     estimated scf accuracy    <       0.00000088 Ry

     The total energy is the sum of the following terms:

     one-electron contribution =   -2794.47207011 Ry
     hartree contribution      =    1569.23449119 Ry
     xc contribution           =    -588.20234752 Ry
     ewald contribution        =    -212.03028051 Ry
     Dispersion Correction     =      -0.44876570 Ry
     smearing contrib. (-TS)   =       2.87730762 Ry

     total magnetization       =     8.00 Bohr mag/cell
     absolute magnetization    =     8.32 Bohr mag/cell

     convergence has been achieved in  22 iterations

     Forces acting on atoms (cartesian axes, Ry/au):

     atom    1 type  1   force =    -0.00703215   -0.00212355   -0.00031594
     atom    2 type  1   force =    -0.01828778   -0.00125576   -0.01507752
     atom    3 type  1   force =     0.00257115    0.02654444   -0.02749487
     atom    4 type  1   force =     0.02387061   -0.02668137   -0.01329108
     atom    5 type  1   force =     0.03556713    0.00752933    0.00631536
     atom    6 type  1   force =    -0.00174405    0.00678859    0.00185530
     atom    7 type  1   force =     0.02280989   -0.00314074   -0.02067021
     atom    8 type  1   force =     0.00613754   -0.00088232   -0.00119491
     atom    9 type  1   force =     0.02904784    0.01712281    0.00270535
     atom   10 type  1   force =     0.02568537   -0.00319377   -0.01118119
     atom   11 type  1   force =    -0.02396572    0.00182571   -0.01253839
     atom   12 type  1   force =    -0.02938882    0.01517254    0.00277510
     atom   13 type  1   force =     0.01411154   -0.04092655    0.03233432
     atom   14 type  1   force =     0.02844059    0.00365545    0.01907078
     atom   15 type  1   force =    -0.02967163    0.00182486    0.01741775
     atom   16 type  1   force =    -0.01677702   -0.03846287    0.03266826
     atom   17 type  1   force =     0.00191771    0.00597467    0.00184054
     atom   18 type  1   force =    -0.03469189    0.01042949    0.00590294
     atom   19 type  1   force =    -0.02361621   -0.02807379   -0.01398360
     atom   20 type  1   force =     0.00066587    0.02586198   -0.02806482
     atom   21 type  1   force =     0.00439133   -0.00721442    0.01166008
     atom   22 type  1   force =    -0.00704454    0.00663965    0.00364955
     atom   23 type  1   force =     0.00995409    0.00884379    0.00148474
     atom   24 type  1   force =    -0.00216893   -0.00758601    0.01182400
     atom   25 type  1   force =    -0.02114038    0.00488302   -0.01831245
     atom   26 type  1   force =    -0.02184897   -0.00421173   -0.02214475
     atom   27 type  1   force =     0.02360867    0.02506956   -0.01168394
     atom   28 type  1   force =     0.02538409   -0.02543734   -0.01144732
     atom   29 type  1   force =     0.00183108   -0.00218341   -0.00685444
     atom   30 type  1   force =     0.00011972    0.00211076   -0.00757518
     atom   31 type  1   force =     0.02283560   -0.00329565   -0.02080460
     atom   32 type  1   force =     0.00616756   -0.00094923   -0.00117189
     atom   33 type  1   force =     0.02915046    0.01708622    0.00261062
     atom   34 type  1   force =     0.02540679   -0.00307681   -0.01118571
     atom   35 type  1   force =    -0.03430827   -0.02064465    0.00404599
     atom   36 type  1   force =    -0.03122082    0.01633565    0.00419205
     atom   37 type  1   force =     0.02508845   -0.02434624    0.01965268
     atom   38 type  1   force =     0.02548943    0.02615666    0.01815409
     atom   39 type  1   force =    -0.02973346    0.00172269    0.01725097
     atom   40 type  1   force =    -0.01682857   -0.03860047    0.03291833
     atom   41 type  1   force =     0.00190294    0.00599254    0.00184706
     atom   42 type  1   force =    -0.03489285    0.01052876    0.00589708
     atom   43 type  1   force =    -0.02362766   -0.02805882   -0.01391084
     atom   44 type  1   force =     0.00066767    0.02586441   -0.02804214
     atom   45 type  1   force =    -0.01012267   -0.00632384    0.00307328
     atom   46 type  1   force =    -0.00957235    0.00749253    0.00160169
     atom   47 type  1   force =     0.01043407    0.00856285    0.00137650
     atom   48 type  1   force =    -0.00204056   -0.00759822    0.01171939
     atom   49 type  2   force =    -0.04976650   -0.02394260   -0.01583806
     atom   50 type  2   force =     0.02563643    0.03618192    0.05431702
     atom   51 type  2   force =    -0.02450574    0.03748429    0.05856067
     atom   52 type  2   force =     0.04901556   -0.02448969   -0.01023466
     atom   53 type  2   force =     0.03038597   -0.04478005    0.05757803
     atom   54 type  2   force =     0.02495076    0.03660792    0.06228297
     atom   55 type  2   force =    -0.02461234    0.03756327    0.05869044
     atom   56 type  2   force =     0.04924388   -0.02457369   -0.01030277
     atom   57 type  3   force =     0.01170960   -0.00344412    0.01170235
     atom   58 type  3   force =    -0.01768637   -0.00329183   -0.00689369
     atom   59 type  3   force =    -0.01445735    0.00230403   -0.00798120
     atom   60 type  3   force =    -0.01121394   -0.00267604    0.01150930
     atom   61 type  3   force =    -0.01100259   -0.01003106   -0.00276435
     atom   62 type  3   force =    -0.01685306    0.00856122    0.00276804
     atom   63 type  3   force =     0.01437411    0.00708899    0.00163846
     atom   64 type  3   force =     0.01087899   -0.01034841   -0.00371053
     atom   65 type  3   force =    -0.01144253    0.00791029   -0.02534042
     atom   66 type  3   force =    -0.01430397   -0.00705248   -0.01709314
     atom   67 type  3   force =     0.01386555   -0.00671901   -0.01575663
     atom   68 type  3   force =     0.01058798    0.00900038   -0.02388895
     atom   69 type  3   force =     0.01388967    0.00289222   -0.00838469
     atom   70 type  3   force =    -0.01728715    0.00327278   -0.00750197
     atom   71 type  3   force =    -0.01122951   -0.00271943    0.01153857
     atom   72 type  3   force =    -0.01100783   -0.01003877   -0.00270422
     atom   73 type  3   force =    -0.01696663    0.00854509    0.00277376
     atom   74 type  3   force =     0.01391024    0.01122397   -0.00337423
     atom   75 type  3   force =     0.01091411   -0.01024170   -0.00327629
     atom   76 type  3   force =    -0.01822592    0.00575163   -0.02755382
     atom   77 type  3   force =    -0.01976193   -0.00491809   -0.02958128
     atom   78 type  3   force =     0.01388980   -0.00676780   -0.01566630
     atom   79 type  3   force =     0.01056517    0.00885944   -0.02395121
     atom   80 type  3   force =     0.01385630    0.00290919   -0.00839162
     atom   81 type  4   force =     0.01730784    0.00933751   -0.01081339
     atom   82 type  4   force =    -0.00059777   -0.00579600   -0.01888057
     atom   83 type  4   force =    -0.00182456   -0.00635380   -0.01918146
     atom   84 type  4   force =    -0.01617057    0.01088421   -0.01451127
     atom   85 type  4   force =     0.00317244    0.01087214   -0.02171151
     atom   86 type  4   force =     0.00234247   -0.00937288   -0.02152954
     atom   87 type  4   force =    -0.00187400   -0.00613574   -0.01918485
     atom   88 type  4   force =    -0.01608269    0.01075737   -0.01437676
     atom   89 type  5   force =     0.00804541    0.01818286   -0.00017605
     atom   90 type  5   force =    -0.00497306   -0.01629861    0.01413611
     atom   91 type  5   force =     0.00806202    0.01976025   -0.00030819
     atom   92 type  5   force =    -0.00644810   -0.01586745    0.01348850
     atom   93 type  6   force =     0.01187437   -0.00348691   -0.00227082
     atom   94 type  6   force =     0.02670945   -0.00464436   -0.00427856
     atom   95 type  6   force =    -0.02363848   -0.00704955   -0.00649699
     atom   96 type  6   force =    -0.01335787    0.00225955   -0.00730336
     atom   97 type  6   force =    -0.01749647    0.00796353    0.01761281
     atom   98 type  6   force =    -0.01330377   -0.00526618    0.00638619
     atom   99 type  6   force =     0.01735797   -0.01154810    0.01565423
     atom  100 type  6   force =     0.01497647    0.00962257    0.01741129
     atom  101 type  6   force =     0.01111299   -0.00313846   -0.00208923
     atom  102 type  6   force =     0.02638311   -0.00490381   -0.00413646
     atom  103 type  6   force =    -0.01252972   -0.00153144   -0.00448925
     atom  104 type  6   force =    -0.01134586   -0.00199408   -0.00198333
     atom  105 type  6   force =    -0.01743889    0.00798672    0.01772519
     atom  106 type  6   force =    -0.01327137   -0.00529107    0.00635084
     atom  107 type  6   force =     0.00698355   -0.00392554    0.00636452
     atom  108 type  6   force =     0.01514241    0.00910402    0.01652430

     Total force =     0.326894     Total SCF correction =     0.002233

     BFGS Geometry Optimization

     number of scf cycles    =   1
     number of bfgs steps    =   0

     energy   new            =   -2023.0416650219 Ry

     new trust radius        =       0.0790176514 bohr
     new conv_thr            =       0.0000010000 Ry


ATOMIC_POSITIONS (crystal)
C             0.2879141367        0.9699602693        0.5219677274
C             0.0375910154        0.0310529376        0.0215314319
C             0.3907170261        0.0128916375        0.5450758756
C             0.1412416316        0.9866165767        0.0454614422
C             0.4534259506        0.9705201525        0.6506962728
C             0.2024479392        0.0286398525        0.1499885573
C             0.2091268302        0.5295712877        0.5253193799
C             0.4588035913        0.4713717174        0.0278424560
C             0.2463687016        0.6140545257        0.6065743391
C             0.4978954011        0.3885420471        0.1080411125
C             0.2484501322        0.8892831455        0.6025572097
C            -0.0001719932        0.1128731168        0.1043899318
C             0.4086044419        0.8876536454        0.7292173806
C             0.1611563460        0.1097014614        0.2287942414
C             0.0876227650        0.6090601098        0.7282491021
C             0.3402106988        0.3900077483        0.2310765802
C             0.0470078734        0.5253314603        0.6514067968
C             0.2961955383        0.4751516990        0.1530580312
C             0.1071515674        0.4830837400        0.5493957742
C             0.3578338698        0.5167487999        0.0491925203
C             0.4335067497        0.0990141542        0.4672215530
C             0.1812223298        0.9000005589        0.9658599704
C             0.0678006011        0.3948476949        0.4707524715
C             0.3159623047        0.6038514525        0.9697159955
C             0.7873002749        0.9702563323        0.5210408164
C             0.5374336986        0.0309280332        0.0211674336
C             0.8916220541        0.0128293160        0.5458902182
C             0.6413074031        0.9866691433        0.0455564054
C             0.9519860576        0.9701097397        0.6500179617
C             0.7025179652        0.0284421902        0.1495028400
C             0.7091287920        0.5295647419        0.5253124582
C             0.9588058831        0.4713688902        0.0278436418
C             0.7463729553        0.6140529797        0.6065694601
C             0.9978836089        0.3885469892        0.1080408796
C             0.7480280305        0.8883336587        0.6034113889
C             0.4997518134        0.1129222639        0.1044629117
C             0.9090570449        0.8883542477        0.7285642123
C             0.6610296079        0.1106522517        0.2287470273
C             0.5876199924        0.6090557923        0.7282405123
C             0.8402087517        0.3900019342        0.2310894599
C             0.5470072545        0.5253322152        0.6514071331
C             0.7961870291        0.4751558935        0.1530577293
C             0.6071511509        0.4830843726        0.5493995216
C             0.8578339672        0.5167489024        0.0491936883
C             0.9328845376        0.0990517857        0.4667792894
C             0.6811134453        0.9000365975        0.9657544952
C             0.5678198104        0.3948358238        0.4707468966
C             0.8159676386        0.6038509366        0.9697106075
F             0.5498902735        0.0045303037        0.6776942599
F             0.9758377257        0.9985548697        0.9251706004
F             0.2691859267        0.4968769014        0.4315441697
F             0.2014225107        0.5117571862        0.1790718633
F             0.7266647602        0.0036058158        0.4249765591
F             0.4758161783        0.9985728704        0.9255808874
F             0.7691825376        0.4968792387        0.4315518538
F             0.7014321083        0.5117536371        0.1790683554
H             0.2376304636        0.9994294686        0.4437157302
H             0.0313081354        0.9986659034        0.6731649401
H             0.2817207526        0.9987623568        0.1721909279
H             0.0081772681        0.5002839239        0.9511407869
H             0.3221728316        0.6500821368        0.5924926223
H             0.0742574539        0.3532127551        0.0951705682
H             0.1707637794        0.8554225458        0.5886443888
H             0.4227788687        0.1472947274        0.0896948892
H             0.4528620538        0.8555072500        0.8074558406
H             0.2056177021        0.1428049971        0.3079166172
H             0.0443009543        0.6426600879        0.8057964539
H             0.2968036403        0.3579063119        0.3078205986
H             0.4692518849        0.4933532108        0.6730701463
H             0.7816014583        0.9988032915        0.1722156106
H             0.5081766367        0.5002820904        0.9511422946
H             0.8221726666        0.6500818109        0.5924957192
H             0.5742526533        0.3532120734        0.0951708628
H             0.6707394521        0.8555972696        0.5883862101
H             0.9227807621        0.1472992363        0.0897172545
H             0.9525729382        0.8554160355        0.8073418393
H             0.7053760414        0.1428951855        0.3072734149
H             0.5443020650        0.6426580263        0.8058011064
H             0.7968026168        0.3579003562        0.3078173918
H             0.9692504665        0.4933539279        0.6730697894
N             0.3091592491        0.8516475570        0.7042710560
N             0.0606860074        0.1486120896        0.2050795552
N             0.1864468133        0.6500415197        0.7048500578
N             0.4381121366        0.3513879130        0.2072935962
N             0.8085508909        0.8517124030        0.7037097479
N             0.5608079412        0.1484609482        0.2049431200
N             0.6864457181        0.6500507338        0.7048498835
N             0.9381159813        0.3513825533        0.2073005244
Ni            0.2473422782        0.7522543183        0.8363169323
Ni            0.4997748144        0.2473103009        0.3399060808
Ni            0.7473428573        0.7523209708        0.8363101265
Ni            0.9997117909        0.2473285197        0.3398727259
O             0.1232783382        0.3475416602        0.3827560413
O             0.3723342058        0.6507807521        0.8810716328
O             0.3766236425        0.1472091208        0.3768433721
O             0.1245259129        0.8524474774        0.8758848403
O             0.4723451427        0.3564964997        0.4839011485
O             0.2205800341        0.6411924770        0.9802059209
O             0.0295891800        0.1346700340        0.4818842719
O             0.2773360533        0.8631646025        0.9802957693
O             0.6232472903        0.3475563842        0.3827653943
O             0.8723205299        0.6507697892        0.8810789515
O             0.8770955943        0.1474422889        0.3769467808
O             0.6246160384        0.8522677402        0.8761588486
O             0.9723476843        0.3564974796        0.4839069368
O             0.7205813720        0.6411914256        0.9802041001
O             0.5291414761        0.1349921260        0.4814058050
O             0.7773422438        0.8631426908        0.9802500850



     Writing output data file /nfs/hpc/share/gantzlen/NiPyC2_relax_sc211_meta_functionalized_F_vdw-df2_relax.save/
     NEW-OLD atomic charge density approx. for the potential

     Check: negative core charge=   -0.000145

     total cpu time spent up to now is     3705.8 secs

     Self-consistent Calculation

     iteration #  1     ecut=   100.00 Ry     beta= 0.70
     Davidson diagonalization with overlap
     ethr =  1.00E-06,  avg # of iterations = 18.0

     total cpu time spent up to now is     4259.8 secs

     total energy              =   -2023.05604066 Ry
     Harris-Foulkes estimate   =   -2023.07096076 Ry
     estimated scf accuracy    <       0.06871539 Ry

     total magnetization       =     8.00 Bohr mag/cell
     absolute magnetization    =     8.30 Bohr mag/cell

     iteration #  2     ecut=   100.00 Ry     beta= 0.70
     Davidson diagonalization with overlap
     ethr =  1.53E-05,  avg # of iterations =  3.5

     total cpu time spent up to now is     4398.1 secs

     total energy              =   -2023.04990525 Ry
     Harris-Foulkes estimate   =   -2023.07007520 Ry
     estimated scf accuracy    <       0.13307159 Ry

     total magnetization       =     8.00 Bohr mag/cell
     absolute magnetization    =     8.31 Bohr mag/cell

     iteration #  3     ecut=   100.00 Ry     beta= 0.70
     Davidson diagonalization with overlap
     ethr =  1.53E-05,  avg # of iterations =  2.0

     total cpu time spent up to now is     4536.4 secs

     total energy              =   -2023.05837792 Ry
     Harris-Foulkes estimate   =   -2023.06414857 Ry
     estimated scf accuracy    <       0.04073715 Ry

     total magnetization       =     8.00 Bohr mag/cell
     absolute magnetization    =     8.30 Bohr mag/cell

     iteration #  4     ecut=   100.00 Ry     beta= 0.70
     Davidson diagonalization with overlap
     ethr =  9.09E-06,  avg # of iterations =  1.5

     total cpu time spent up to now is     4658.3 secs

     total energy              =   -2023.05916315 Ry
     Harris-Foulkes estimate   =   -2023.06086820 Ry
     estimated scf accuracy    <       0.01630609 Ry

     total magnetization       =     8.00 Bohr mag/cell
     absolute magnetization    =     8.31 Bohr mag/cell

     iteration #  5     ecut=   100.00 Ry     beta= 0.70
     Davidson diagonalization with overlap
     ethr =  3.64E-06,  avg # of iterations =  9.0

     total cpu time spent up to now is     4805.8 secs

     total energy              =   -2023.05909505 Ry
     Harris-Foulkes estimate   =   -2023.06028649 Ry
     estimated scf accuracy    <       0.00728863 Ry

     total magnetization       =     8.00 Bohr mag/cell
     absolute magnetization    =     8.31 Bohr mag/cell

     iteration #  6     ecut=   100.00 Ry     beta= 0.70
     Davidson diagonalization with overlap
     ethr =  1.63E-06,  avg # of iterations =  4.0

     total cpu time spent up to now is     4952.2 secs

     total energy              =   -2023.05884276 Ry
     Harris-Foulkes estimate   =   -2023.05944451 Ry
     estimated scf accuracy    <       0.00163135 Ry

     total magnetization       =     8.00 Bohr mag/cell
     absolute magnetization    =     8.31 Bohr mag/cell

     iteration #  7     ecut=   100.00 Ry     beta= 0.70
     Davidson diagonalization with overlap
     ethr =  3.64E-07,  avg # of iterations =  5.5

     total cpu time spent up to now is     5121.3 secs

     total energy              =   -2023.05897922 Ry
     Harris-Foulkes estimate   =   -2023.05903574 Ry
     estimated scf accuracy    <       0.00031166 Ry

     total magnetization       =     8.00 Bohr mag/cell
     absolute magnetization    =     8.31 Bohr mag/cell

     iteration #  8     ecut=   100.00 Ry     beta= 0.70
     Davidson diagonalization with overlap
     ethr =  6.96E-08,  avg # of iterations =  4.0

     total cpu time spent up to now is     5265.8 secs

     total energy              =   -2023.05898005 Ry
     Harris-Foulkes estimate   =   -2023.05901926 Ry
     estimated scf accuracy    <       0.00044537 Ry

     total magnetization       =     8.00 Bohr mag/cell
     absolute magnetization    =     8.31 Bohr mag/cell

     iteration #  9     ecut=   100.00 Ry     beta= 0.70
     Davidson diagonalization with overlap
     ethr =  6.96E-08,  avg # of iterations =  2.0

     total cpu time spent up to now is     5402.6 secs

     total energy              =   -2023.05899658 Ry
     Harris-Foulkes estimate   =   -2023.05901910 Ry
     estimated scf accuracy    <       0.00031376 Ry

     total magnetization       =     8.00 Bohr mag/cell
     absolute magnetization    =     8.31 Bohr mag/cell

     iteration # 10     ecut=   100.00 Ry     beta= 0.70
     Davidson diagonalization with overlap
     ethr =  6.96E-08,  avg # of iterations =  3.0

     total cpu time spent up to now is     5540.8 secs

     total energy              =   -2023.05901607 Ry
     Harris-Foulkes estimate   =   -2023.05901572 Ry
     estimated scf accuracy    <       0.00005090 Ry

     total magnetization       =     8.00 Bohr mag/cell
     absolute magnetization    =     8.31 Bohr mag/cell

     iteration # 11     ecut=   100.00 Ry     beta= 0.70
     Davidson diagonalization with overlap
     ethr =  1.14E-08,  avg # of iterations =  3.5

     total cpu time spent up to now is     5693.1 secs

     total energy              =   -2023.05902201 Ry
     Harris-Foulkes estimate   =   -2023.05901931 Ry
     estimated scf accuracy    <       0.00002718 Ry

     total magnetization       =     8.00 Bohr mag/cell
     absolute magnetization    =     8.31 Bohr mag/cell

     iteration # 12     ecut=   100.00 Ry     beta= 0.70
     Davidson diagonalization with overlap
     ethr =  6.07E-09,  avg # of iterations =  4.0

     total cpu time spent up to now is     5873.0 secs

     total energy              =   -2023.05902618 Ry
     Harris-Foulkes estimate   =   -2023.05902558 Ry
     estimated scf accuracy    <       0.00001074 Ry

     total magnetization       =     8.00 Bohr mag/cell
     absolute magnetization    =     8.31 Bohr mag/cell

     iteration # 13     ecut=   100.00 Ry     beta= 0.70
     Davidson diagonalization with overlap
     ethr =  2.40E-09,  avg # of iterations =  3.5

     total cpu time spent up to now is     6027.2 secs

     total energy              =   -2023.05902733 Ry
     Harris-Foulkes estimate   =   -2023.05902795 Ry
     estimated scf accuracy    <       0.00001821 Ry

     total magnetization       =     8.00 Bohr mag/cell
     absolute magnetization    =     8.31 Bohr mag/cell

     iteration # 14     ecut=   100.00 Ry     beta= 0.70
     Davidson diagonalization with overlap
     ethr =  2.40E-09,  avg # of iterations =  3.0

     total cpu time spent up to now is     6182.9 secs

     total energy              =   -2023.05902857 Ry
     Harris-Foulkes estimate   =   -2023.05902864 Ry
     estimated scf accuracy    <       0.00000737 Ry

     total magnetization       =     8.00 Bohr mag/cell
     absolute magnetization    =     8.31 Bohr mag/cell

     iteration # 15     ecut=   100.00 Ry     beta= 0.70
     Davidson diagonalization with overlap
     ethr =  1.65E-09,  avg # of iterations =  4.0

     total cpu time spent up to now is     6356.4 secs

     total energy              =   -2023.05902924 Ry
     Harris-Foulkes estimate   =   -2023.05903023 Ry
     estimated scf accuracy    <       0.00001043 Ry

     total magnetization       =     8.00 Bohr mag/cell
     absolute magnetization    =     8.31 Bohr mag/cell

     iteration # 16     ecut=   100.00 Ry     beta= 0.70
     Davidson diagonalization with overlap
     ethr =  1.65E-09,  avg # of iterations =  3.5

     total cpu time spent up to now is     6507.1 secs

     total energy              =   -2023.05902960 Ry
     Harris-Foulkes estimate   =   -2023.05903004 Ry
     estimated scf accuracy    <       0.00000447 Ry

     total magnetization       =     8.00 Bohr mag/cell
     absolute magnetization    =     8.31 Bohr mag/cell

     iteration # 17     ecut=   100.00 Ry     beta= 0.70
     Davidson diagonalization with overlap
     ethr =  9.98E-10,  avg # of iterations =  3.5

     total cpu time spent up to now is     6670.3 secs

     total energy              =   -2023.05903039 Ry
     Harris-Foulkes estimate   =   -2023.05902999 Ry
     estimated scf accuracy    <       0.00000130 Ry

     total magnetization       =     8.00 Bohr mag/cell
     absolute magnetization    =     8.31 Bohr mag/cell

     iteration # 18     ecut=   100.00 Ry     beta= 0.70
     Davidson diagonalization with overlap
     ethr =  2.90E-10,  avg # of iterations =  5.0

     total cpu time spent up to now is     6873.7 secs

     total energy              =   -2023.05903053 Ry
     Harris-Foulkes estimate   =   -2023.05903090 Ry
     estimated scf accuracy    <       0.00000115 Ry

     total magnetization       =     8.00 Bohr mag/cell
     absolute magnetization    =     8.31 Bohr mag/cell

     iteration # 19     ecut=   100.00 Ry     beta= 0.70
     Davidson diagonalization with overlap
     ethr =  2.57E-10,  avg # of iterations =  4.5
 
     Magnetic moment per site:
     atom:    1    charge:    0.8600    magn:    0.0052    constr:    0.0000
     atom:    2    charge:    0.8335    magn:    0.0064    constr:    0.0000
     atom:    3    charge:    0.8652    magn:    0.0058    constr:    0.0000
     atom:    4    charge:    0.8654    magn:    0.0057    constr:    0.0000
     atom:    5    charge:    0.8311    magn:    0.0068    constr:    0.0000
     atom:    6    charge:    0.8617    magn:    0.0053    constr:    0.0000
     atom:    7    charge:    0.8350    magn:    0.0063    constr:    0.0000
     atom:    8    charge:    0.8601    magn:    0.0055    constr:    0.0000
     atom:    9    charge:    0.8583    magn:    0.0073    constr:    0.0000
     atom:   10    charge:    0.8521    magn:    0.0069    constr:    0.0000
     atom:   11    charge:    0.8527    magn:    0.0068    constr:    0.0000
     atom:   12    charge:    0.8585    magn:    0.0072    constr:    0.0000
     atom:   13    charge:    0.8588    magn:    0.0077    constr:    0.0000
     atom:   14    charge:    0.8541    magn:    0.0065    constr:    0.0000
     atom:   15    charge:    0.8543    magn:    0.0064    constr:    0.0000
     atom:   16    charge:    0.8575    magn:    0.0078    constr:    0.0000
     atom:   17    charge:    0.8608    magn:    0.0052    constr:    0.0000
     atom:   18    charge:    0.8308    magn:    0.0068    constr:    0.0000
     atom:   19    charge:    0.8673    magn:    0.0059    constr:    0.0000
     atom:   20    charge:    0.8650    magn:    0.0059    constr:    0.0000
     atom:   21    charge:    0.8356    magn:   -0.0025    constr:    0.0000
     atom:   22    charge:    0.8357    magn:   -0.0026    constr:    0.0000
     atom:   23    charge:    0.8353    magn:   -0.0027    constr:    0.0000
     atom:   24    charge:    0.8355    magn:   -0.0028    constr:    0.0000
     atom:   25    charge:    0.8335    magn:    0.0067    constr:    0.0000
     atom:   26    charge:    0.8341    magn:    0.0066    constr:    0.0000
     atom:   27    charge:    0.8666    magn:    0.0053    constr:    0.0000
     atom:   28    charge:    0.8658    magn:    0.0055    constr:    0.0000
     atom:   29    charge:    0.8588    magn:    0.0060    constr:    0.0000
     atom:   30    charge:    0.8603    magn:    0.0060    constr:    0.0000
     atom:   31    charge:    0.8351    magn:    0.0063    constr:    0.0000
     atom:   32    charge:    0.8601    magn:    0.0054    constr:    0.0000
     atom:   33    charge:    0.8583    magn:    0.0073    constr:    0.0000
     atom:   34    charge:    0.8521    magn:    0.0069    constr:    0.0000
     atom:   35    charge:    0.8581    magn:    0.0078    constr:    0.0000
     atom:   36    charge:    0.8581    magn:    0.0077    constr:    0.0000
     atom:   37    charge:    0.8548    magn:    0.0070    constr:    0.0000
     atom:   38    charge:    0.8543    magn:    0.0070    constr:    0.0000
     atom:   39    charge:    0.8543    magn:    0.0064    constr:    0.0000
     atom:   40    charge:    0.8575    magn:    0.0078    constr:    0.0000
     atom:   41    charge:    0.8608    magn:    0.0051    constr:    0.0000
     atom:   42    charge:    0.8308    magn:    0.0068    constr:    0.0000
     atom:   43    charge:    0.8673    magn:    0.0059    constr:    0.0000
     atom:   44    charge:    0.8650    magn:    0.0059    constr:    0.0000
     atom:   45    charge:    0.8348    magn:   -0.0024    constr:    0.0000
     atom:   46    charge:    0.8359    magn:   -0.0027    constr:    0.0000
     atom:   47    charge:    0.8354    magn:   -0.0027    constr:    0.0000
     atom:   48    charge:    0.8356    magn:   -0.0029    constr:    0.0000
     atom:   49    charge:    4.7354    magn:    0.0058    constr:    0.0000
     atom:   50    charge:    4.7344    magn:    0.0044    constr:    0.0000
     atom:   51    charge:    4.7352    magn:    0.0044    constr:    0.0000
     atom:   52    charge:    4.7369    magn:    0.0058    constr:    0.0000
     atom:   53    charge:    4.7331    magn:    0.0045    constr:    0.0000
     atom:   54    charge:    4.7343    magn:    0.0043    constr:    0.0000
     atom:   55    charge:    4.7352    magn:    0.0044    constr:    0.0000
     atom:   56    charge:    4.7369    magn:    0.0058    constr:    0.0000
     atom:   57    charge:    0.5035    magn:   -0.0011    constr:    0.0000
     atom:   58    charge:    0.5011    magn:   -0.0012    constr:    0.0000
     atom:   59    charge:    0.5003    magn:   -0.0011    constr:    0.0000
     atom:   60    charge:    0.5037    magn:   -0.0011    constr:    0.0000
     atom:   61    charge:    0.5111    magn:   -0.0007    constr:    0.0000
     atom:   62    charge:    0.5138    magn:   -0.0012    constr:    0.0000
     atom:   63    charge:    0.5120    magn:   -0.0012    constr:    0.0000
     atom:   64    charge:    0.5120    magn:   -0.0007    constr:    0.0000
     atom:   65    charge:    0.5146    magn:   -0.0007    constr:    0.0000
     atom:   66    charge:    0.5116    magn:   -0.0012    constr:    0.0000
     atom:   67    charge:    0.5109    magn:   -0.0012    constr:    0.0000
     atom:   68    charge:    0.5136    magn:   -0.0007    constr:    0.0000
     atom:   69    charge:    0.5000    magn:   -0.0012    constr:    0.0000
     atom:   70    charge:    0.5010    magn:   -0.0012    constr:    0.0000
     atom:   71    charge:    0.5037    magn:   -0.0011    constr:    0.0000
     atom:   72    charge:    0.5112    magn:   -0.0007    constr:    0.0000
     atom:   73    charge:    0.5139    magn:   -0.0012    constr:    0.0000
     atom:   74    charge:    0.5135    magn:   -0.0008    constr:    0.0000
     atom:   75    charge:    0.5112    magn:   -0.0007    constr:    0.0000
     atom:   76    charge:    0.5152    magn:   -0.0011    constr:    0.0000
     atom:   77    charge:    0.5148    magn:   -0.0011    constr:    0.0000
     atom:   78    charge:    0.5109    magn:   -0.0012    constr:    0.0000
     atom:   79    charge:    0.5137    magn:   -0.0007    constr:    0.0000
     atom:   80    charge:    0.5000    magn:   -0.0012    constr:    0.0000
     atom:   81    charge:    2.4909    magn:    0.0116    constr:    0.0000
     atom:   82    charge:    2.4875    magn:    0.0128    constr:    0.0000
     atom:   83    charge:    2.4900    magn:    0.0125    constr:    0.0000
     atom:   84    charge:    2.4891    magn:    0.0118    constr:    0.0000
     atom:   85    charge:    2.4914    magn:    0.0116    constr:    0.0000
     atom:   86    charge:    2.4905    magn:    0.0120    constr:    0.0000
     atom:   87    charge:    2.4900    magn:    0.0125    constr:    0.0000
     atom:   88    charge:    2.4892    magn:    0.0118    constr:    0.0000
     atom:   89    charge:    7.4537    magn:    1.1882    constr:    0.0000
     atom:   90    charge:    7.4523    magn:    1.1864    constr:    0.0000
     atom:   91    charge:    7.4528    magn:    1.1879    constr:    0.0000
     atom:   92    charge:    7.4527    magn:    1.1842    constr:    0.0000
     atom:   93    charge:    3.3056    magn:    0.0607    constr:    0.0000
     atom:   94    charge:    3.3004    magn:    0.0633    constr:    0.0000
     atom:   95    charge:    3.3038    magn:    0.0608    constr:    0.0000
     atom:   96    charge:    3.3035    magn:    0.0600    constr:    0.0000
     atom:   97    charge:    3.2984    magn:    0.0645    constr:    0.0000
     atom:   98    charge:    3.3029    magn:    0.0635    constr:    0.0000
     atom:   99    charge:    3.3019    magn:    0.0626    constr:    0.0000
     atom:  100    charge:    3.2998    magn:    0.0635    constr:    0.0000
     atom:  101    charge:    3.3059    magn:    0.0607    constr:    0.0000
     atom:  102    charge:    3.3003    magn:    0.0635    constr:    0.0000
     atom:  103    charge:    3.3083    magn:    0.0579    constr:    0.0000
     atom:  104    charge:    3.3044    magn:    0.0610    constr:    0.0000
     atom:  105    charge:    3.2985    magn:    0.0643    constr:    0.0000
     atom:  106    charge:    3.3028    magn:    0.0637    constr:    0.0000
     atom:  107    charge:    3.3061    magn:    0.0622    constr:    0.0000
     atom:  108    charge:    3.2987    magn:    0.0648    constr:    0.0000

     total cpu time spent up to now is     7070.3 secs

     End of self-consistent calculation

 ------ SPIN UP ------------


          k = 0.0000 0.0000 0.0000 ( 91663 PWs)   bands (ev):

   -26.2034 -26.1766 -26.1504 -26.1451 -26.0368 -25.9494 -25.9177 -25.9127
   -22.1093 -22.0968 -22.0827 -22.0792 -21.9782 -21.9711 -21.9557 -21.9539
   -19.2252 -19.2238 -19.2072 -19.2027 -19.1998 -19.1945 -19.1827 -19.1778
   -19.1255 -19.1178 -19.1014 -19.0917 -19.0213 -19.0147 -19.0050 -18.9952
   -15.5261 -15.4974 -15.4836 -15.4704 -15.4593 -15.4571 -15.4487 -15.4306
   -14.3281 -14.3264 -14.2971 -14.2810 -14.2178 -14.2119 -14.1733 -14.1493
   -12.0813 -12.0106 -11.9812 -11.9635 -11.9149 -11.8831 -11.8718 -11.8582
   -11.2351 -11.2139 -11.2005 -11.1724 -11.1648 -11.1338 -11.1104 -11.1039
    -9.8916  -9.6931  -9.6554  -9.6288  -9.4805  -9.4011  -9.3449  -9.2916
    -8.7915  -8.7472  -8.7266  -8.7033  -8.6596  -8.5681  -8.5252  -8.5138
    -8.2858  -8.1801  -8.0983  -8.0710  -8.0638  -8.0334  -8.0209  -7.9721
    -7.9591  -7.6884  -7.6439  -7.5934  -7.4174  -7.3507  -7.2561  -7.2241
    -7.1090  -7.0928  -7.0750  -7.0096  -6.9445  -6.8259  -6.8184  -6.7999
    -6.7454  -6.7069  -6.6648  -6.6615  -6.6246  -6.6156  -6.5583  -6.4700
    -6.4311  -6.4214  -6.4049  -6.3997  -6.3776  -6.3073  -6.2853  -6.2779
    -6.2505  -6.2135  -6.1926  -6.1847  -6.1487  -6.1161  -6.0391  -6.0175
    -5.9981  -5.9425  -5.9115  -5.8864  -5.7431  -5.7216  -5.6809  -5.6670
    -5.4317  -5.3583  -5.3463  -5.2743  -5.2649  -5.2353  -5.2059  -5.1705
    -5.1515  -5.0460  -5.0165  -4.9959  -4.9425  -4.9057  -4.8370  -4.7245
    -4.7025  -4.6746  -4.6446  -4.5920  -4.5498  -4.5214  -4.4739  -4.4321
    -4.3752  -4.3288  -4.2398  -4.1462  -3.9841  -3.8893  -3.8023  -3.7309
    -3.5732  -3.4803  -3.4378  -3.4019  -3.3167  -3.3045  -3.2360  -3.1896
    -3.1303  -3.1127  -3.0945  -3.0808  -3.0657  -3.0424  -2.9518  -2.9353
    -2.8088  -2.7702  -2.7336  -2.6214  -2.5314  -2.4709  -2.4249  -2.4205
    -2.3791  -2.3455  -2.2908  -2.2627  -2.2451  -2.2220  -2.2146  -2.1936
    -2.1746  -2.1160  -2.0962  -2.0688  -2.0658  -2.0442  -2.0353  -2.0072
    -1.9397  -1.9158  -1.8940  -1.8695  -1.6522  -1.6172  -1.6094  -1.5750
    -1.5482  -1.5217  -1.4628  -1.3904  -0.3110  -0.2496  -0.2322  -0.1778
    -0.0008   0.0055   0.0312   0.0887   1.7744   1.8303   1.8632   1.8723
     1.8850   1.8971   1.9609   2.0086   2.7231   2.9892   3.0383   3.0734
     3.1077   3.1781   3.2667   3.3184   3.3769   3.4734   3.4895   3.5365
     4.2082   4.2302   4.2532   4.3615   4.3752   4.4862   4.5069   4.5337
     4.5894   4.5919   4.6364   4.6535   4.6940   4.8292   4.9204   5.1354
     5.1600   5.2743   5.2887   5.6877   5.9156   5.9503   6.0135   6.0576
     6.1331   6.2522

 ------ SPIN DOWN ----------


          k = 0.0000 0.0000 0.0000 ( 91663 PWs)   bands (ev):

   -26.1949 -26.1679 -26.1420 -26.1366 -26.0285 -25.9386 -25.9069 -25.9019
   -22.0029 -21.9916 -21.9743 -21.9719 -21.8720 -21.8658 -21.8475 -21.8466
   -19.1071 -19.0960 -19.0870 -19.0804 -19.0742 -19.0630 -19.0614 -19.0546
   -19.0504 -19.0489 -19.0375 -19.0261 -18.9869 -18.9763 -18.9672 -18.9594
   -15.4879 -15.4590 -15.4449 -15.4326 -15.4211 -15.4190 -15.4103 -15.3914
   -14.2855 -14.2823 -14.2540 -14.2377 -14.1732 -14.1676 -14.1285 -14.1039
   -12.0424 -11.9720 -11.9432 -11.9265 -11.8763 -11.8448 -11.8331 -11.8189
   -11.2093 -11.1880 -11.1759 -11.1473 -11.1391 -11.1081 -11.0847 -11.0787
    -9.8706  -9.6724  -9.6336  -9.6073  -9.4578  -9.3785  -9.3209  -9.2676
    -8.7735  -8.7312  -8.7073  -8.6862  -8.6395  -8.5457  -8.5045  -8.4947
    -8.2644  -8.1587  -8.0762  -8.0502  -8.0440  -8.0137  -8.0003  -7.9448
    -7.9229  -7.6413  -7.5963  -7.5381  -7.3653  -7.2973  -7.2104  -7.1588
    -7.0523  -7.0367  -7.0134  -6.9531  -6.8822  -6.7700  -6.7474  -6.7349
    -6.6820  -6.6489  -6.6025  -6.5622  -6.5532  -6.5275  -6.4733  -6.4099
    -6.3749  -6.3465  -6.3102  -6.3010  -6.2630  -6.2551  -6.2069  -6.1918
    -6.1535  -6.1202  -6.1042  -6.0937  -6.0811  -6.0469  -5.9761  -5.9338
    -5.9015  -5.8246  -5.7928  -5.7729  -5.6570  -5.6273  -5.5797  -5.5636
    -5.4139  -5.3332  -5.3178  -5.2543  -5.2397  -5.2095  -5.1715  -5.1377
    -5.1015  -4.9660  -4.9392  -4.9102  -4.8550  -4.8198  -4.7570  -4.6327
[...]
    -2.7402  -2.7310  -2.7088  -2.6573  -2.6553  -2.6164  -2.5982  -2.5480
    -2.5088  -2.4611  -2.4025  -2.3419  -2.3166  -2.2909  -2.2430  -2.1835
    -2.1427  -2.1381  -2.0886  -2.0771  -2.0578  -1.9784  -1.8894  -1.8581
    -1.6387  -1.6178  -1.5963  -1.5798  -1.5645  -1.5417  -1.5243  -1.4529
    -1.3621  -1.3563  -1.3544  -1.3245  -1.3028  -1.2910  -1.2841  -1.2382
    -1.2111  -1.1656  -1.1350  -1.1040   0.4084   0.4532   0.4714   0.5079
     0.6723   0.7029   0.7296   0.7771   1.8969   1.9311   1.9634   1.9802
     1.9891   2.0069   2.0622   2.0987   2.7058   3.0822   3.1637   3.2186
     3.2402   3.2955   3.3608   3.4097   3.4942   3.5113   3.5555   3.5836
     4.1985   4.2071   4.2581   4.3434   4.4419   4.5083   4.5490   4.5800
     4.6352   4.6649   4.6886   4.7088   4.7646   4.9699   4.9942   5.1421
     5.2032   5.2609   5.3363   5.6870   5.9576   6.0256   6.0309   6.0573
     6.1499   6.2144

     the spin up/dw Fermi energies are     0.1988   -0.1030 ev

!    total energy              =   -2023.13381677 Ry
     Harris-Foulkes estimate   =   -2023.13381686 Ry
     estimated scf accuracy    <          6.3E-09 Ry

     The total energy is the sum of the following terms:

     one-electron contribution =   -2773.38582002 Ry
     hartree contribution      =    1558.22839460 Ry
     xc contribution           =    -588.51247562 Ry
     ewald contribution        =    -221.74979521 Ry
     Dispersion Correction     =      -0.45513482 Ry
     smearing contrib. (-TS)   =       2.74101430 Ry

     total magnetization       =     8.00 Bohr mag/cell
     absolute magnetization    =     8.32 Bohr mag/cell

     convergence has been achieved in  10 iterations

     Forces acting on atoms (cartesian axes, Ry/au):

     atom    1 type  1   force =     0.00036066   -0.00022408    0.00013005
     atom    2 type  1   force =    -0.00031174    0.00039930   -0.00009225
     atom    3 type  1   force =    -0.00009892   -0.00012091   -0.00003287
     atom    4 type  1   force =    -0.00028547   -0.00016633    0.00031074
     atom    5 type  1   force =    -0.00027515   -0.00008397    0.00022247
     atom    6 type  1   force =    -0.00053301   -0.00022013   -0.00019668
     atom    7 type  1   force =    -0.00031598    0.00029878   -0.00012405
     atom    8 type  1   force =     0.00022230   -0.00004368   -0.00049509
     atom    9 type  1   force =     0.00025908    0.00001195    0.00011373
     atom   10 type  1   force =    -0.00017089   -0.00021061   -0.00002069
     atom   11 type  1   force =     0.00003059    0.00034945    0.00042982
     atom   12 type  1   force =     0.00002364    0.00051779   -0.00003179
     atom   13 type  1   force =    -0.00017537    0.00015115   -0.00016017
     atom   14 type  1   force =     0.00014919   -0.00020869   -0.00020309
     atom   15 type  1   force =    -0.00011531    0.00000223   -0.00010048
     atom   16 type  1   force =    -0.00023131   -0.00003146   -0.00026959
     atom   17 type  1   force =     0.00010789   -0.00021432   -0.00003033
     atom   18 type  1   force =     0.00001510    0.00019564   -0.00025083
     atom   19 type  1   force =    -0.00027661    0.00021520   -0.00020747
     atom   20 type  1   force =     0.00025723   -0.00027003   -0.00016927
     atom   21 type  1   force =    -0.00046370    0.00013731   -0.00015075
     atom   22 type  1   force =     0.00005736    0.00029078    0.00025097
     atom   23 type  1   force =    -0.00015567    0.00002547   -0.00064304
     atom   24 type  1   force =    -0.00012697   -0.00029538   -0.00000885
     atom   25 type  1   force =     0.00032591   -0.00001506   -0.00011250
     atom   26 type  1   force =     0.00018967    0.00007294    0.00008333
     atom   27 type  1   force =     0.00050005   -0.00009684   -0.00028078
     atom   28 type  1   force =     0.00018692   -0.00041262   -0.00004016
     atom   29 type  1   force =     0.00015390   -0.00000631    0.00057215
     atom   30 type  1   force =     0.00034635   -0.00023790    0.00023578
     atom   31 type  1   force =    -0.00030043    0.00008614   -0.00013764
     atom   32 type  1   force =    -0.00008205    0.00019739   -0.00021256
     atom   33 type  1   force =     0.00024727   -0.00012235    0.00015474
     atom   34 type  1   force =     0.00020568   -0.00022276   -0.00007127
     atom   35 type  1   force =    -0.00012050    0.00001822   -0.00022262
     atom   36 type  1   force =    -0.00014261   -0.00031424    0.00006485
     atom   37 type  1   force =    -0.00012384    0.00010933    0.00006932
     atom   38 type  1   force =     0.00027442   -0.00029110    0.00004748
     atom   39 type  1   force =    -0.00068015    0.00006262   -0.00008473
     atom   40 type  1   force =    -0.00015492    0.00000831    0.00001408
     atom   41 type  1   force =    -0.00010697   -0.00026468   -0.00028798
     atom   42 type  1   force =    -0.00005754    0.00030694   -0.00008351
     atom   43 type  1   force =    -0.00065286    0.00010851   -0.00004121
     atom   44 type  1   force =     0.00055314    0.00002975    0.00011530
     atom   45 type  1   force =    -0.00023786   -0.00052617    0.00007086
     atom   46 type  1   force =    -0.00019239    0.00000746    0.00023257
     atom   47 type  1   force =    -0.00006967   -0.00010346   -0.00048364
     atom   48 type  1   force =     0.00005307   -0.00004079    0.00007580
     atom   49 type  2   force =     0.00000602   -0.00023590   -0.00009687
     atom   50 type  2   force =     0.00011068    0.00019883    0.00025462
     atom   51 type  2   force =    -0.00028173    0.00022744   -0.00010145
     atom   52 type  2   force =     0.00011153    0.00016135   -0.00013452
     atom   53 type  2   force =     0.00020311   -0.00016414    0.00026316
     atom   54 type  2   force =     0.00017444   -0.00050158    0.00023956
     atom   55 type  2   force =    -0.00032192    0.00041184    0.00055521
     atom   56 type  2   force =    -0.00009939   -0.00009574   -0.00034808
     atom   57 type  3   force =     0.00016552   -0.00013310    0.00014148
     atom   58 type  3   force =     0.00013270    0.00027826    0.00009946
     atom   59 type  3   force =    -0.00046213   -0.00005400   -0.00016327
     atom   60 type  3   force =     0.00046345    0.00002778   -0.00011619
     atom   61 type  3   force =     0.00039754    0.00052976    0.00011404
     atom   62 type  3   force =     0.00003616    0.00002497   -0.00008779
     atom   63 type  3   force =     0.00017065    0.00009197    0.00016280
     atom   64 type  3   force =    -0.00025651   -0.00016532   -0.00051010
     atom   65 type  3   force =     0.00013802   -0.00023898   -0.00017112
     atom   66 type  3   force =    -0.00033543   -0.00002341   -0.00008185
     atom   67 type  3   force =    -0.00019053    0.00036779    0.00007604
     atom   68 type  3   force =    -0.00004018   -0.00008027    0.00024168
     atom   69 type  3   force =    -0.00021068    0.00028225    0.00024857
     atom   70 type  3   force =     0.00034935    0.00034058   -0.00010477
     atom   71 type  3   force =     0.00026510    0.00007665    0.00004650
     atom   72 type  3   force =     0.00035593   -0.00032425   -0.00025432
     atom   73 type  3   force =     0.00014701    0.00024255    0.00013150
     atom   74 type  3   force =     0.00021932   -0.00016009   -0.00042216
     atom   75 type  3   force =     0.00011781   -0.00002275   -0.00043391
     atom   76 type  3   force =     0.00007597    0.00007818    0.00015003
     atom   77 type  3   force =     0.00007388    0.00004756    0.00011281
     atom   78 type  3   force =     0.00022134    0.00025071    0.00037301
     atom   79 type  3   force =    -0.00024578    0.00027362    0.00024189
     atom   80 type  3   force =     0.00004463   -0.00002175   -0.00002759
     atom   81 type  4   force =    -0.00000079    0.00009303    0.00011225
     atom   82 type  4   force =     0.00041233   -0.00017645    0.00026258
     atom   83 type  4   force =    -0.00006534   -0.00031357    0.00006949
     atom   84 type  4   force =    -0.00026546    0.00028444   -0.00016951
     atom   85 type  4   force =     0.00007371   -0.00036948   -0.00032449
     atom   86 type  4   force =     0.00028050    0.00024842   -0.00020215
     atom   87 type  4   force =    -0.00036162   -0.00032707    0.00016915
     atom   88 type  4   force =    -0.00010857    0.00038099    0.00007317
     atom   89 type  5   force =     0.00050423    0.00041867   -0.00000666
     atom   90 type  5   force =     0.00074183    0.00030921   -0.00038516
     atom   91 type  5   force =    -0.00075970   -0.00042220    0.00003975
     atom   92 type  5   force =    -0.00000517   -0.00005721   -0.00025336
     atom   93 type  6   force =     0.00000978   -0.00019274    0.00027883
     atom   94 type  6   force =    -0.00014500   -0.00027094    0.00013057
     atom   95 type  6   force =    -0.00023917    0.00029993    0.00056550
     atom   96 type  6   force =     0.00017472    0.00005153    0.00066391
     atom   97 type  6   force =    -0.00023023    0.00004082   -0.00038492
     atom   98 type  6   force =     0.00013830   -0.00042903    0.00052607
     atom   99 type  6   force =     0.00003719    0.00018713   -0.00010719
     atom  100 type  6   force =    -0.00007279   -0.00007749    0.00024721
     atom  101 type  6   force =     0.00047851   -0.00007682    0.00046287
     atom  102 type  6   force =    -0.00012787   -0.00004014    0.00020303
     atom  103 type  6   force =    -0.00003555   -0.00017134   -0.00045170
     atom  104 type  6   force =    -0.00009262   -0.00001742    0.00016469
     atom  105 type  6   force =    -0.00013699    0.00040178    0.00004335
     atom  106 type  6   force =    -0.00008340   -0.00044102    0.00030860
     atom  107 type  6   force =    -0.00028760   -0.00014094   -0.00030931
     atom  108 type  6   force =     0.00056937    0.00025832   -0.00007308

     Total force =     0.004610     Total SCF correction =     0.000190

     bfgs converged in  46 scf cycles and  45 bfgs steps
     (criteria: energy <  1.0E-04 Ry, force <  1.0E-03 Ry/Bohr)

     End of BFGS Geometry Optimization

     Final energy   =   -2023.1338167699 Ry
Begin final coordinates

ATOMIC_POSITIONS (crystal)
C             0.2878844156        0.9752351944        0.5310578581
C             0.0416926350        0.0376911539        0.0235310288
C             0.3934046966        0.0104322051        0.5489731159
C             0.1441972932        0.9929869297        0.0445648027
C             0.4562731498        0.9599077373        0.6463835939
C             0.2060260827        0.0350069260        0.1477053494
C             0.2117265289        0.5297131441        0.5333847112
C             0.4590619420        0.4769631963        0.0372235386
C             0.2467121818        0.6144175794        0.6128732550
C             0.4953716441        0.3913034416        0.1137058197
C             0.2489561561        0.8931043525        0.6088063475
C             0.0026505743        0.1163917696        0.1073494170
C             0.4139227087        0.8757257887        0.7204729921
C             0.1643023758        0.1153458589        0.2267778818
C             0.0834386022        0.6146356947        0.7206049078
C             0.3327074857        0.3807084275        0.2219508529
C             0.0450084585        0.5300046511        0.6439683613
C             0.2927697777        0.4676518248        0.1481537552
C             0.1096153349        0.4844640780        0.5491480670
C             0.3555776941        0.5165747838        0.0526813484
C             0.4355813428        0.0973560522        0.4701350566
C             0.1842524756        0.9045409298        0.9658275432
C             0.0703569156        0.3937796133        0.4719513608
C             0.3143282346        0.6045005861        0.9717900912
C             0.7882832496        0.9599413872        0.5198220309
C             0.5347013314        0.0350661958        0.0264090734
C             0.8917499766        0.0028080682        0.5399745495
C             0.6400671773        0.9954309902        0.0402980330
C             0.9549809514        0.9571044422        0.6390408357
C             0.7057033544        0.0444202227        0.1346692810
C             0.7107415128        0.5288787607        0.5345193393
C             0.9595859161        0.4756204971        0.0364395475
C             0.7465276480        0.6124118620        0.6152616519
C             0.9958564678        0.3901819518        0.1132734175
C             0.7499387538        0.8798806645        0.6024181884
C             0.4972055736        0.1142681064        0.1107067057
C             0.9136560118        0.8761772606        0.7174573574
C             0.6652537020        0.1251440601        0.2144427631
C             0.5831041250        0.6136739829        0.7227825372
C             0.8333357411        0.3803082633        0.2220870543
C             0.5439667256        0.5299613161        0.6452456168
C             0.7934584801        0.4671062523        0.1480358857
C             0.6080071275        0.4847243019        0.5497082173
C             0.8562804762        0.5155702806        0.0522141117
C             0.9332516460        0.0930430416        0.4653982725
C             0.6804396116        0.9046458283        0.9653668853
C             0.5674072691        0.3951070773        0.4717721295
C             0.8154117669        0.6039620707        0.9718449473
F             0.5553302968       -0.0088937555        0.6740262482
F             0.9775001027        1.0089480495        0.9252929706
F             0.2793905104        0.4959339841        0.4450058033
F             0.1954374407        0.5024580877        0.1736367086
F             0.7227137260       -0.0084428150        0.4245191351
F             0.4656648085        1.0007122098        0.9362489391
F             0.7782906258        0.4953103122        0.4457993289
F             0.6963223768        0.5023724078        0.1736223035
H             0.2354406045        1.0120911682        0.4601825530
H             0.0342870901        0.9859838723        0.6594444515
H             0.2850377060        1.0049245909        0.1685111948
H             0.0125351272        0.5109776159        0.9677957532
H             0.3256173697        0.6471576615        0.6024234263
H             0.0747483555        0.3579113715        0.1050275640
H             0.1681182841        0.8646758960        0.5998470721
H             0.4157021084        0.1415123420        0.1029767988
H             0.4608930264        0.8383034339        0.7960706261
H             0.2090162818        0.1486909761        0.3069273849
H             0.0372304418        0.6496449987        0.7960692743
H             0.2851263035        0.3444548520        0.2953696534
H             0.4649746961        0.4995215454        0.6607628048
H             0.7865126962        1.0178865559        0.1506049921
H             0.5120969168        0.5124817218        0.9687911147
H             0.8257077715        0.6446310103        0.6054956359
H             0.5742324951        0.3590749348        0.1052092285
H             0.6700804700        0.8495454013        0.5896411521
H             0.9231572837        0.1478906627        0.0932358324
H             0.9589451191        0.8416645964        0.7961188970
H             0.7126071256        0.1613962973        0.2901011712
H             0.5370839436        0.6488191555        0.7983267593
H             0.7859805371        0.3443904781        0.2959791980
H             0.9662456916        0.4991366665        0.6599522106
N             0.3117889662        0.8460699925        0.7019521838
N             0.0635062358        0.1530439222        0.2067011919
N             0.1832312085        0.6544535941        0.7044088216
N             0.4327281959        0.3459136014        0.2047412872
N             0.8115617058        0.8420817339        0.7003525822
N             0.5617097149        0.1559425524        0.2035254444
N             0.6832042860        0.6526166299        0.7068968134
N             0.9332710241        0.3451792054        0.2046187172
Ni            0.2469474122        0.7528475978        0.8367607947
Ni            0.4973422444        0.2474126281        0.3398102709
Ni            0.7467238036        0.7527465959        0.8371337618
Ni            0.9976598123        0.2470922127        0.3399502051
O             0.1267460410        0.3439468475        0.3877657672
O             0.3723318538        0.6494238806        0.8844769339
O             0.3772011045        0.1418951662        0.3791859879
O             0.1273009693        0.8589362697        0.8750251751
O             0.4715173198        0.3595458490        0.4849356233
O             0.2186181371        0.6409824266        0.9801079323
O             0.0292641734        0.1275029360        0.4835878077
O             0.2786079476        0.8659006036        0.9838760418
O             0.6231587607        0.3462573603        0.3861072496
O             0.8731119899        0.6485734444        0.8842012758
O             0.8765728215        0.1439585201        0.3788666602
O             0.6219608629        0.8510372715        0.8834757609
O             0.9740706129        0.3586760846        0.4843672052
O             0.7201807104        0.6413824460        0.9812406603
O             0.5303315874        0.1349679168        0.4841851009
O             0.7776008633        0.8718706222        0.9790380694
End final coordinates



     Writing output data file /nfs/hpc/share/gantzlen/NiPyC2_relax_sc211_meta_functionalized_F_vdw-df2_relax.save/
 
     init_run     :     96.84s CPU    100.53s WALL (       1 calls)
     electrons    : 100996.31s CPU 113752.60s WALL (      46 calls)
     update_pot   :   1041.12s CPU   1120.99s WALL (      45 calls)
     forces       :   1979.27s CPU   2113.76s WALL (      46 calls)

     Called by init_run:
     wfcinit      :     66.96s CPU     69.28s WALL (       1 calls)
     potinit      :     22.34s CPU     23.61s WALL (       1 calls)
     hinit0       :      6.15s CPU      6.23s WALL (       1 calls)

     Called by electrons:
     c_bands      :  89023.00s CPU 100163.86s WALL (     641 calls)
     sum_band     :   4496.92s CPU   5075.26s WALL (     641 calls)
     v_of_rho     :   6501.78s CPU   7288.93s WALL (     671 calls)
     mix_rho      :   1366.71s CPU   1607.02s WALL (     641 calls)
     vdW_kernel   :      7.03s CPU      7.16s WALL (       1 calls)

     Called by c_bands:
     init_us_2    :     62.52s CPU     64.73s WALL (    1283 calls)
     regterg      :  87893.15s CPU  93728.49s WALL (     641 calls)

     Called by sum_band:

     Called by *egterg:
     h_psi        :  33948.66s CPU  36935.11s WALL (    2832 calls)
     g_psi        :     21.32s CPU     21.90s WALL (    2190 calls)
     rdiaghg      :   2432.29s CPU   2461.23s WALL (    2770 calls)

     Called by h_psi:
     h_psi:calbec :   8734.19s CPU   9287.02s WALL (    2832 calls)
     vloc_psi     :  16372.52s CPU  18778.11s WALL (    2832 calls)
     add_vuspsi   :   8770.31s CPU   8795.69s WALL (    2832 calls)

     General routines
     calbec       :   9831.60s CPU  10431.09s WALL (    3016 calls)
     fft          :   4706.07s CPU   5474.72s WALL (   56490 calls)
     ffts         :    987.27s CPU   1151.22s WALL (   12261 calls)
     fftw         :  17971.39s CPU  20794.61s WALL (  501325 calls)
 
     Parallel routines
     fft_scatt_xy :   3305.73s CPU   3451.33s WALL (  570076 calls)
     fft_scatt_yz :   5544.88s CPU   8606.41s WALL (  570076 calls)
 
     PWSCF        :   1d 4h55m CPU   1d 8h32m WALL

 
   This run was terminated on:  20:17: 1  30Jul2020            

=------------------------------------------------------------------------------=
   JOB DONE.
=------------------------------------------------------------------------------=
QE finished Thu Jul 30 20:17:02 PDT 2020
