/apps/openmpi/3.1_intel-19/bin/mpiexec
/apps/qe/6.5/bin/pw.x
starting QE Wed Jul 29 11:44:52 PDT 2020

     Program PWSCF v.6.5 starts on 29Jul2020 at 11:44:54 

     This program is part of the open-source Quantum ESPRESSO suite
     for quantum simulation of materials; please cite
         "P. Giannozzi et al., J. Phys.:Condens. Matter 21 395502 (2009);
         "P. Giannozzi et al., J. Phys.:Condens. Matter 29 465901 (2017);
          URL http://www.quantum-espresso.org", 
     in publications or presentations arising from this work. More details at
     http://www.quantum-espresso.org/quote

     Parallel version (MPI & OpenMP), running on      16 processor cores
     Number of MPI processes:                16
     Threads/MPI process:                     1

     MPI processes distributed on     1 nodes
     K-points division:     npool     =       2
     R & G space division:  proc/nbgrp/npool/nimage =       8
     Reading input from ./QE_input_scripts/pw.NiPyC2_relax_sc211_meta_functionalized_Br_vdw-df2_relax.in
Warning: card &CELL ignored
Warning: card    CELL_DYNAMICS = 'BFGS' ignored
Warning: card    CELL_DOFREE = 'XYZ' ignored
Warning: card / ignored

     Current dimensions of program PWSCF are:
     Max number of different atomic species (ntypx) = 10
     Max number of k-points (npk) =  40000
     Max angular momentum in pseudopotentials (lmaxx) =  3

     IMPORTANT: XC functional enforced from input :
     Exchange-correlation= VDW-DF2
                           (   1   4  13   0   2   0   0)
     Any further DFT definition will be discarded
     Please, verify this is what you really want


     -------------------------------------------------
     Parameters for Dispersion (Grimme-D2) Correction:
     -------------------------------------------------
       atom      VdW radius       C_6     

        Br         3.305        432.600
        C          2.744         60.710
        H          1.892          4.857
        N          2.640         42.670
        Ni         2.952        374.666
        O          2.536         24.284

     gamma-point specific algorithms are used

     Subspace diagonalization in iterative solution of the eigenvalue problem:
     a serial algorithm will be used

 
     Parallelization info
     --------------------
     sticks:   dense  smooth     PW     G-vecs:    dense   smooth      PW
     Min        2228    2228    556               183376   183376   22914
     Max        2230    2230    558               183380   183380   22917
     Sum       17829   17829   4453              1467017  1467017  183325
 


     bravais-lattice index     =            0
     lattice parameter (alat)  =      23.6322  a.u.
     unit-cell volume          =   10858.6228 (a.u.)^3
     number of atoms/cell      =          108
     number of atomic types    =            6
     number of electrons       =       448.00 (up: 228.00, down: 220.00)
     number of Kohn-Sham states=          274
     kinetic-energy cutoff     =     100.0000  Ry
     charge density cutoff     =     400.0000  Ry
     convergence threshold     =      1.0E-06
     mixing beta               =       0.7000
     number of iterations used =            8  local-TF  mixing
     Exchange-correlation= VDW-DF2
                           (   1   4  13   0   2   0   0)
     nstep                     =          200


     celldm(1)=  23.632159  celldm(2)=   0.000000  celldm(3)=   0.000000
     celldm(4)=   0.000000  celldm(5)=   0.000000  celldm(6)=   0.000000

     crystal axes: (cart. coord. in units of alat)
               a(1) = (   1.000000   0.000000   0.000000 )  
               a(2) = (   0.000000   1.001423   0.000000 )  
               a(3) = (  -0.018199   0.000000   0.821574 )  

     reciprocal axes: (cart. coord. in units 2 pi/alat)
               b(1) = (  1.000000  0.000000  0.022152 )  
               b(2) = (  0.000000  0.998579  0.000000 )  
               b(3) = (  0.000000  0.000000  1.217175 )  


     PseudoPot. # 1 for Br read from file:
     ./pseudo/Br.pbesol-n-nc.UPF
     MD5 check sum: aa882b714d6bd557db24118bfa7419d9
     Pseudo is Norm-conserving + core correction, Zval =  7.0
     Generated using "atomic" code by A. Dal Corso v.6.5
     Using radial grid of 1213 points,  2 beta functions with: 
                l(1) =   0
                l(2) =   1

     PseudoPot. # 2 for C  read from file:
     ./pseudo/C.pbesol-nc.UPF
     MD5 check sum: ce26087537ded160c8d400e183a8bf42
     Pseudo is Norm-conserving, Zval =  4.0
     Generated using "atomic" code by A. Dal Corso v.6.5
     Using radial grid of 1073 points,  1 beta functions with: 
                l(1) =   1

     PseudoPot. # 3 for H  read from file:
     ./pseudo/H.pbesol-n-nc.UPF
     MD5 check sum: 7995ef24074557c85b430109caaacc09
     Pseudo is Norm-conserving, Zval =  1.0
     Generated using "atomic" code by A. Dal Corso v.6.5
     Using radial grid of  929 points,  0 beta functions with: 

     PseudoPot. # 4 for N  read from file:
     ./pseudo/N.pbesol-nc.UPF
     MD5 check sum: e18cc5e4b8a5600c1a19b30c2cab1ca0
     Pseudo is Norm-conserving, Zval =  5.0
     Generated using "atomic" code by A. Dal Corso v.6.5
     Using radial grid of 1085 points,  1 beta functions with: 
                l(1) =   1

     PseudoPot. # 5 for Ni read from file:
     ./pseudo/Ni.pbesol-n-nc.UPF
     MD5 check sum: 623411631e0c2eb7c0b2b9815547d2d9
     Pseudo is Norm-conserving + core correction, Zval = 10.0
     Generated using "atomic" code by A. Dal Corso v.6.5
     Using radial grid of 1195 points,  2 beta functions with: 
                l(1) =   1
                l(2) =   2

     PseudoPot. # 6 for O  read from file:
     ./pseudo/O.pbesol-nc.UPF
     MD5 check sum: 73d10e7e91dbfcbe8a7e362101007f84
     Pseudo is Norm-conserving, Zval =  6.0
     Generated using "atomic" code by A. Dal Corso v.6.5
     Using radial grid of 1095 points,  1 beta functions with: 
                l(1) =   1

     atomic species   valence    mass     pseudopotential
        Br             7.00    79.90400     Br( 1.00)
        C              4.00    12.01070     C ( 1.00)
        H              1.00     1.00794     H ( 1.00)
        N              5.00    14.00670     N ( 1.00)
        Ni            10.00    58.69340     Ni( 1.00)
        O              6.00    15.99940     O ( 1.00)

     Starting magnetic structure 
     atomic species   magnetization
        Br           0.000
        C            0.000
        H            0.000
        N            0.000
        Ni           0.250
        O            0.000

     No symmetry found



   Cartesian axes

     site n.     atom                  positions (alat units)
         1           Br  tau(   1) = (   0.5819058   0.0163072   0.5721082  )
         2           Br  tau(   2) = (   0.3412546   0.9818255   0.1599580  )
         3           Br  tau(   3) = (   0.8945211   0.4745345   0.5707370  )
         4           Br  tau(   4) = (   0.1539678   0.5253747   0.1617129  )
         5           Br  tau(   5) = (   0.0819058   0.0163072   0.5721082  )
         6           Br  tau(   6) = (   0.4273232   0.9882997   0.7249892  )
         7           Br  tau(   7) = (   0.7936544   0.4858736   0.3199120  )
         8           Br  tau(   8) = (   0.6539678   0.5253747   0.1617129  )
         9           C   tau(   9) = (   0.2787122   0.9714307   0.4288486  )
        10           C   tau(  10) = (   0.0379730   0.0311503   0.0183277  )
        11           C   tau(  11) = (   0.3806882   0.0117868   0.4489838  )
        12           C   tau(  12) = (   0.1394042   0.9891499   0.0379124  )
        13           C   tau(  13) = (   0.4400787   0.9715829   0.5343281  )
        14           C   tau(  14) = (   0.1997920   0.0283934   0.1231482  )
        15           C   tau(  15) = (   0.1986011   0.5304580   0.4324635  )
        16           C   tau(  16) = (   0.4580372   0.4720800   0.0229252  )
        17           C   tau(  17) = (   0.2341003   0.6142040   0.4982314  )
        18           C   tau(  18) = (   0.4948422   0.3892302   0.0892369  )
        19           C   tau(  19) = (   0.2384981   0.8904717   0.4955761  )
        20           C   tau(  20) = (  -0.0008282   0.1123917   0.0856467  )
        21           C   tau(  21) = (   0.3947360   0.8906489   0.5977380  )
        22           C   tau(  22) = (   0.1557890   0.1097029   0.1871645  )
        23           C   tau(  23) = (   0.0756247   0.6098498   0.5975737  )
        24           C   tau(  24) = (   0.3367152   0.3921904   0.1884642  )
        25           C   tau(  25) = (   0.0350715   0.5258264   0.5351012  )
        26           C   tau(  26) = (   0.2948780   0.4753867   0.1254988  )
        27           C   tau(  27) = (   0.0981522   0.4849593   0.4519611  )
        28           C   tau(  28) = (   0.3569104   0.5163900   0.0416029  )
        29           C   tau(  29) = (   0.4248178   0.0994604   0.3833638  )
        30           C   tau(  30) = (   0.1639424   0.9010006   0.7933713  )
        31           C   tau(  31) = (   0.0588120   0.3950355   0.3866953  )
        32           C   tau(  32) = (   0.2984059   0.6050320   0.7961934  )
        33           C   tau(  33) = (   0.7787122   0.9714307   0.4288486  )
        34           C   tau(  34) = (   0.5379730   0.0311503   0.0183277  )
        35           C   tau(  35) = (   0.8806882   0.0117868   0.4489838  )
        36           C   tau(  36) = (   0.6394042   0.9891499   0.0379124  )
        37           C   tau(  37) = (   0.9400787   0.9715829   0.5343281  )
        38           C   tau(  38) = (   0.6997920   0.0283934   0.1231482  )
        39           C   tau(  39) = (   0.6986021   0.5304580   0.4324635  )
        40           C   tau(  40) = (   0.9580382   0.4720800   0.0229252  )
        41           C   tau(  41) = (   0.7341003   0.6142040   0.4982314  )
        42           C   tau(  42) = (   0.9948422   0.3892302   0.0892369  )
        43           C   tau(  43) = (   0.7384981   0.8904717   0.4955761  )
        44           C   tau(  44) = (   0.4991718   0.1123917   0.0856467  )
        45           C   tau(  45) = (   0.8947360   0.8906489   0.5977380  )
        46           C   tau(  46) = (   0.6557880   0.1097029   0.1871645  )
        47           C   tau(  47) = (   0.5756247   0.6098498   0.5975737  )
        48           C   tau(  48) = (   0.8367152   0.3921904   0.1884642  )
        49           C   tau(  49) = (   0.5350715   0.5258264   0.5351012  )
        50           C   tau(  50) = (   0.7948780   0.4753867   0.1254988  )
        51           C   tau(  51) = (   0.5981522   0.4849593   0.4519611  )
        52           C   tau(  52) = (   0.8569104   0.5163900   0.0416029  )
        53           C   tau(  53) = (   0.9248178   0.0994604   0.3833638  )
        54           C   tau(  54) = (   0.6639424   0.9010006   0.7933713  )
        55           C   tau(  55) = (   0.5588110   0.3950355   0.3866953  )
        56           C   tau(  56) = (   0.7984059   0.6050320   0.7961934  )
        57           H   tau(  57) = (   0.2290596   1.0009978   0.3640502  )
        58           H   tau(  58) = (   0.2505234   0.5016080   0.3691185  )
        59           H   tau(  59) = (  -0.0086584   0.5011092   0.7809458  )
        60           H   tau(  60) = (   0.3118554   0.6514319   0.4868937  )
        61           H   tau(  61) = (   0.0732386   0.3533532   0.0780726  )
        62           H   tau(  62) = (   0.1594426   0.8563401   0.4835457  )
        63           H   tau(  63) = (   0.4206861   0.1479423   0.0738480  )
        64           H   tau(  64) = (   0.4386511   0.8563902   0.6644572  )
        65           H   tau(  65) = (   0.2006191   0.1433067   0.2536997  )
        66           H   tau(  66) = (   0.0290492   0.6438591   0.6626884  )
        67           H   tau(  67) = (   0.2907535   0.3580349   0.2539083  )
        68           H   tau(  68) = (   0.4564147   0.4939330   0.5533319  )
        69           H   tau(  69) = (   0.7290596   1.0009978   0.3640502  )
        70           H   tau(  70) = (   0.9693669   0.0026958   0.7751545  )
        71           H   tau(  71) = (   0.7791988   1.0000865   0.1418054  )
        72           H   tau(  72) = (   0.4913416   0.5011092   0.7809458  )
        73           H   tau(  73) = (   0.8118554   0.6514319   0.4868937  )
        74           H   tau(  74) = (   0.5732386   0.3533532   0.0780726  )
        75           H   tau(  75) = (   0.6594426   0.8563401   0.4835457  )
        76           H   tau(  76) = (   0.9206861   0.1479423   0.0738480  )
        77           H   tau(  77) = (   0.9386511   0.8563902   0.6644572  )
        78           H   tau(  78) = (   0.7006201   0.1433067   0.2536997  )
        79           H   tau(  79) = (   0.5290492   0.6438591   0.6626884  )
        80           H   tau(  80) = (   0.7907535   0.3580349   0.2539083  )
        81           N   tau(  81) = (   0.2956096   0.8524646   0.5790685  )
        82           N   tau(  82) = (   0.0569790   0.1490689   0.1692870  )
        83           N   tau(  83) = (   0.1736962   0.6512356   0.5798983  )
        84           N   tau(  84) = (   0.4350238   0.3514275   0.1709211  )
        85           N   tau(  85) = (   0.7956096   0.8524646   0.5790685  )
        86           N   tau(  86) = (   0.5569790   0.1490689   0.1692870  )
        87           N   tau(  87) = (   0.6736972   0.6512356   0.5798983  )
        88           N   tau(  88) = (   0.9350238   0.3514275   0.1709211  )
        89           Ni  tau(  89) = (   0.2317814   0.7525556   0.6871039  )
        90           Ni  tau(  90) = (   0.4937992   0.2483520   0.2786599  )
        91           Ni  tau(  91) = (   0.7317814   0.7525556   0.6871039  )
        92           Ni  tau(  92) = (   0.9937992   0.2483520   0.2786599  )
        93           O   tau(  93) = (   0.1158100   0.3481839   0.3145586  )
        94           O   tau(  94) = (   0.3551690   0.6519036   0.7240468  )
        95           O   tau(  95) = (   0.3707656   0.1477170   0.3098797  )
        96           O   tau(  96) = (   0.1091506   0.8535652   0.7199135  )
        97           O   tau(  97) = (   0.4642788   0.3566669   0.3968154  )
        98           O   tau(  98) = (   0.2033039   0.6423280   0.8050417  )
        99           O   tau(  99) = (   0.0200847   0.1353504   0.3952413  )
       100           O   tau( 100) = (   0.2588616   0.8639860   0.8046490  )
       101           O   tau( 101) = (   0.6158110   0.3481839   0.3145586  )
       102           O   tau( 102) = (   0.8551690   0.6519036   0.7240468  )
       103           O   tau( 103) = (   0.8707656   0.1477170   0.3098797  )
       104           O   tau( 104) = (   0.6091506   0.8535652   0.7199135  )
       105           O   tau( 105) = (   0.9642788   0.3566669   0.3968154  )
       106           O   tau( 106) = (   0.7033039   0.6423280   0.8050417  )
       107           O   tau( 107) = (   0.5200847   0.1353504   0.3952413  )
       108           O   tau( 108) = (   0.7588616   0.8639860   0.8046490  )

     number of k points=     1  Marzari-Vanderbilt smearing, width (Ry)=  0.2000
                       cart. coord. in units 2pi/alat
        k(    1) = (   0.0000000   0.0000000   0.0000000), wk =   1.0000000

     Dense  grid:   733509 G-vectors     FFT dimensions: ( 160, 160, 125)

     Estimated max dynamical RAM per process >     637.27 MB

     Estimated total dynamical RAM >       9.96 GB
     Generating pointlists ...
     new r_m :   0.0594 (alat units)  1.4028 (a.u.) for type    1
     new r_m :   0.0358 (alat units)  0.8462 (a.u.) for type    2
     new r_m :   0.0358 (alat units)  0.8462 (a.u.) for type    3
     new r_m :   0.0445 (alat units)  1.0514 (a.u.) for type    4
     new r_m :   0.0654 (alat units)  1.5454 (a.u.) for type    5
     new r_m :   0.0423 (alat units)  0.9991 (a.u.) for type    6

     Check: negative core charge=   -0.000141

     Initial potential from superposition of free atoms

     starting charge  447.99659, renormalised to  448.00000


     %%%%%%%%%%%%%%%%%%%%%%%%%%%%%%%%%%%%%%%%%%%%%%%%%%%%%%%%%%%%%%%%%%%%%%%%
     %                                                                      %
     % You are using vdW-DF, which was implemented by the Thonhauser group. %
     % Please cite the following two papers that made this development      %
     % possible and the two reviews that describe the various versions:     %
     %                                                                      %
     %   T. Thonhauser et al., PRL 115, 136402 (2015).                      %
     %   T. Thonhauser et al., PRB 76, 125112 (2007).                       %
     %   K. Berland et al., Rep. Prog. Phys. 78, 066501 (2015).             %
     %   D.C. Langreth et al., J. Phys.: Condens. Matter 21, 084203 (2009). %
     %                                                                      %
     %                                                                      %
     % If you are calculating the stress with vdW-DF, please also cite:     %
     %                                                                      %
     %   R. Sabatini et al., J. Phys.: Condens. Matter 24, 424209 (2012).   %
     %                                                                      %
     %%%%%%%%%%%%%%%%%%%%%%%%%%%%%%%%%%%%%%%%%%%%%%%%%%%%%%%%%%%%%%%%%%%%%%%%


     Starting wfcs are  380 randomized atomic wfcs

     total cpu time spent up to now is       50.9 secs

     Self-consistent Calculation

     iteration #  1     ecut=   100.00 Ry     beta= 0.70
     Davidson diagonalization with overlap
     ethr =  1.00E-02,  avg # of iterations =  5.0

     total cpu time spent up to now is      169.7 secs

     total energy              =   -1913.27673955 Ry
     Harris-Foulkes estimate   =   -1922.51461522 Ry
     estimated scf accuracy    <      26.84386433 Ry

     total magnetization       =     8.00 Bohr mag/cell
     absolute magnetization    =     8.03 Bohr mag/cell

     iteration #  2     ecut=   100.00 Ry     beta= 0.70
     Davidson diagonalization with overlap
     ethr =  5.99E-03,  avg # of iterations =  2.0

     total cpu time spent up to now is      241.9 secs

     total energy              =   -1915.90705863 Ry
     Harris-Foulkes estimate   =   -1917.06069552 Ry
     estimated scf accuracy    <       3.39054579 Ry

     total magnetization       =     8.00 Bohr mag/cell
     absolute magnetization    =     8.09 Bohr mag/cell

     iteration #  3     ecut=   100.00 Ry     beta= 0.70
     Davidson diagonalization with overlap
     ethr =  7.57E-04,  avg # of iterations =  7.5

     total cpu time spent up to now is      332.7 secs

     total energy              =   -1916.00178888 Ry
     Harris-Foulkes estimate   =   -1916.54109108 Ry
     estimated scf accuracy    <       1.88152058 Ry

     total magnetization       =     8.00 Bohr mag/cell
     absolute magnetization    =     8.18 Bohr mag/cell

     iteration #  4     ecut=   100.00 Ry     beta= 0.70
     Davidson diagonalization with overlap
     ethr =  4.20E-04,  avg # of iterations =  2.0

     total cpu time spent up to now is      402.9 secs

     total energy              =   -1916.11294023 Ry
     Harris-Foulkes estimate   =   -1916.46176616 Ry
     estimated scf accuracy    <       3.30553148 Ry

     total magnetization       =     8.00 Bohr mag/cell
     absolute magnetization    =     8.14 Bohr mag/cell

     iteration #  5     ecut=   100.00 Ry     beta= 0.70
     Davidson diagonalization with overlap
     ethr =  4.20E-04,  avg # of iterations =  1.0

     total cpu time spent up to now is      472.4 secs

     total energy              =   -1916.15164674 Ry
     Harris-Foulkes estimate   =   -1916.22562909 Ry
     estimated scf accuracy    <       0.31256913 Ry

     total magnetization       =     8.00 Bohr mag/cell
     absolute magnetization    =     8.14 Bohr mag/cell

     iteration #  6     ecut=   100.00 Ry     beta= 0.70
     Davidson diagonalization with overlap
     ethr =  6.98E-05,  avg # of iterations =  8.5

     total cpu time spent up to now is      557.0 secs

     total energy              =   -1916.15108699 Ry
     Harris-Foulkes estimate   =   -1916.16954262 Ry
     estimated scf accuracy    <       0.06533421 Ry

     total magnetization       =     8.00 Bohr mag/cell
     absolute magnetization    =     8.15 Bohr mag/cell

     iteration #  7     ecut=   100.00 Ry     beta= 0.70
     Davidson diagonalization with overlap
     ethr =  1.46E-05,  avg # of iterations =  5.5

     total cpu time spent up to now is      635.4 secs

     total energy              =   -1916.14400506 Ry
     Harris-Foulkes estimate   =   -1916.15982370 Ry
     estimated scf accuracy    <       0.16865110 Ry

     total magnetization       =     8.00 Bohr mag/cell
     absolute magnetization    =     8.16 Bohr mag/cell

     iteration #  8     ecut=   100.00 Ry     beta= 0.70
     Davidson diagonalization with overlap
     ethr =  1.46E-05,  avg # of iterations =  1.0

     total cpu time spent up to now is      704.1 secs

     total energy              =   -1916.14052120 Ry
     Harris-Foulkes estimate   =   -1916.15131379 Ry
     estimated scf accuracy    <       0.04273024 Ry

     total magnetization       =     8.00 Bohr mag/cell
     absolute magnetization    =     8.17 Bohr mag/cell

     iteration #  9     ecut=   100.00 Ry     beta= 0.70
     Davidson diagonalization with overlap
     ethr =  9.54E-06,  avg # of iterations = 13.0

     total cpu time spent up to now is      788.8 secs

     total energy              =   -1916.14030867 Ry
     Harris-Foulkes estimate   =   -1916.14300209 Ry
     estimated scf accuracy    <       0.00877769 Ry

     total magnetization       =     8.00 Bohr mag/cell
     absolute magnetization    =     8.18 Bohr mag/cell

     iteration # 10     ecut=   100.00 Ry     beta= 0.70
     Davidson diagonalization with overlap
     ethr =  1.96E-06,  avg # of iterations =  3.5

     total cpu time spent up to now is      866.8 secs

     total energy              =   -1916.13961616 Ry
     Harris-Foulkes estimate   =   -1916.14187535 Ry
     estimated scf accuracy    <       0.02554999 Ry

     total magnetization       =     8.00 Bohr mag/cell
     absolute magnetization    =     8.19 Bohr mag/cell

     iteration # 11     ecut=   100.00 Ry     beta= 0.70
     Davidson diagonalization with overlap
     ethr =  1.96E-06,  avg # of iterations =  2.0

     total cpu time spent up to now is      936.8 secs

     total energy              =   -1916.14013238 Ry
     Harris-Foulkes estimate   =   -1916.14074231 Ry
     estimated scf accuracy    <       0.00324512 Ry

     total magnetization       =     8.00 Bohr mag/cell
     absolute magnetization    =     8.19 Bohr mag/cell

     iteration # 12     ecut=   100.00 Ry     beta= 0.70
     Davidson diagonalization with overlap
     ethr =  7.24E-07,  avg # of iterations =  3.0

     total cpu time spent up to now is     1009.5 secs

     total energy              =   -1916.14025424 Ry
     Harris-Foulkes estimate   =   -1916.14034622 Ry
     estimated scf accuracy    <       0.00084028 Ry

     total magnetization       =     8.00 Bohr mag/cell
     absolute magnetization    =     8.19 Bohr mag/cell

     iteration # 13     ecut=   100.00 Ry     beta= 0.70
     Davidson diagonalization with overlap
     ethr =  1.88E-07,  avg # of iterations =  3.5

     total cpu time spent up to now is     1084.8 secs

     total energy              =   -1916.14025467 Ry
     Harris-Foulkes estimate   =   -1916.14035791 Ry
     estimated scf accuracy    <       0.00138303 Ry

     total magnetization       =     8.00 Bohr mag/cell
     absolute magnetization    =     8.19 Bohr mag/cell

     iteration # 14     ecut=   100.00 Ry     beta= 0.70
     Davidson diagonalization with overlap
     ethr =  1.88E-07,  avg # of iterations =  2.5

     total cpu time spent up to now is     1155.8 secs

     total energy              =   -1916.14028360 Ry
     Harris-Foulkes estimate   =   -1916.14032682 Ry
     estimated scf accuracy    <       0.00019943 Ry

     total magnetization       =     8.00 Bohr mag/cell
     absolute magnetization    =     8.19 Bohr mag/cell

     iteration # 15     ecut=   100.00 Ry     beta= 0.70
     Davidson diagonalization with overlap
     ethr =  4.45E-08,  avg # of iterations =  4.5

     total cpu time spent up to now is     1234.1 secs

     total energy              =   -1916.14028000 Ry
     Harris-Foulkes estimate   =   -1916.14029930 Ry
     estimated scf accuracy    <       0.00003027 Ry

     total magnetization       =     8.00 Bohr mag/cell
     absolute magnetization    =     8.19 Bohr mag/cell

     iteration # 16     ecut=   100.00 Ry     beta= 0.70
     Davidson diagonalization with overlap
     ethr =  6.76E-09,  avg # of iterations =  5.0

     total cpu time spent up to now is     1327.9 secs

     total energy              =   -1916.14028530 Ry
     Harris-Foulkes estimate   =   -1916.14028533 Ry
     estimated scf accuracy    <       0.00001026 Ry

     total magnetization       =     8.00 Bohr mag/cell
     absolute magnetization    =     8.19 Bohr mag/cell

     iteration # 17     ecut=   100.00 Ry     beta= 0.70
     Davidson diagonalization with overlap
     ethr =  2.29E-09,  avg # of iterations =  4.5

     total cpu time spent up to now is     1421.4 secs

     total energy              =   -1916.14028752 Ry
     Harris-Foulkes estimate   =   -1916.14028791 Ry
     estimated scf accuracy    <       0.00002032 Ry

     total magnetization       =     8.00 Bohr mag/cell
     absolute magnetization    =     8.19 Bohr mag/cell

     iteration # 18     ecut=   100.00 Ry     beta= 0.70
     Davidson diagonalization with overlap
     ethr =  2.29E-09,  avg # of iterations =  3.5

     total cpu time spent up to now is     1504.1 secs

     total energy              =   -1916.14029114 Ry
     Harris-Foulkes estimate   =   -1916.14028910 Ry
     estimated scf accuracy    <       0.00000535 Ry

     total magnetization       =     8.00 Bohr mag/cell
     absolute magnetization    =     8.19 Bohr mag/cell

     iteration # 19     ecut=   100.00 Ry     beta= 0.70
     Davidson diagonalization with overlap
     ethr =  1.19E-09,  avg # of iterations =  4.0

     total cpu time spent up to now is     1597.9 secs

     total energy              =   -1916.14029239 Ry
     Harris-Foulkes estimate   =   -1916.14029211 Ry
     estimated scf accuracy    <       0.00000190 Ry

     total magnetization       =     8.00 Bohr mag/cell
     absolute magnetization    =     8.19 Bohr mag/cell

     iteration # 20     ecut=   100.00 Ry     beta= 0.70
     Davidson diagonalization with overlap
     ethr =  4.25E-10,  avg # of iterations =  4.0

     total cpu time spent up to now is     1698.2 secs

     total energy              =   -1916.14029367 Ry
     Harris-Foulkes estimate   =   -1916.14029306 Ry
     estimated scf accuracy    <       0.00000198 Ry

     total magnetization       =     8.00 Bohr mag/cell
     absolute magnetization    =     8.19 Bohr mag/cell

     iteration # 21     ecut=   100.00 Ry     beta= 0.70
     Davidson diagonalization with overlap
     ethr =  4.25E-10,  avg # of iterations =  3.5

     total cpu time spent up to now is     1790.6 secs

     total energy              =   -1916.14029580 Ry
     Harris-Foulkes estimate   =   -1916.14029411 Ry
     estimated scf accuracy    <       0.00000265 Ry

     total magnetization       =     8.00 Bohr mag/cell
     absolute magnetization    =     8.19 Bohr mag/cell

     iteration # 22     ecut=   100.00 Ry     beta= 0.70
     Davidson diagonalization with overlap
     ethr =  4.25E-10,  avg # of iterations =  4.0
 
     Magnetic moment per site:
     atom:    1    charge:    2.3393    magn:    0.0306    constr:    0.0000
     atom:    2    charge:    2.3333    magn:    0.0327    constr:    0.0000
     atom:    3    charge:    2.3332    magn:    0.0326    constr:    0.0000
     atom:    4    charge:    2.3310    magn:    0.0326    constr:    0.0000
     atom:    5    charge:    2.3330    magn:    0.0328    constr:    0.0000
     atom:    6    charge:    2.3687    magn:    0.0315    constr:    0.0000
     atom:    7    charge:    2.3676    magn:    0.0319    constr:    0.0000
     atom:    8    charge:    2.3375    magn:    0.0294    constr:    0.0000
     atom:    9    charge:    0.8615    magn:    0.0067    constr:    0.0000
     atom:   10    charge:    0.8606    magn:    0.0055    constr:    0.0000
     atom:   11    charge:    0.8648    magn:    0.0032    constr:    0.0000
     atom:   12    charge:    0.8640    magn:    0.0044    constr:    0.0000
     atom:   13    charge:    0.8466    magn:    0.0085    constr:    0.0000
     atom:   14    charge:    0.8407    magn:    0.0046    constr:    0.0000
     atom:   15    charge:    0.8616    magn:    0.0053    constr:    0.0000
     atom:   16    charge:    0.8618    magn:    0.0056    constr:    0.0000
     atom:   17    charge:    0.8524    magn:    0.0052    constr:    0.0000
     atom:   18    charge:    0.8532    magn:    0.0050    constr:    0.0000
     atom:   19    charge:    0.8532    magn:    0.0043    constr:    0.0000
     atom:   20    charge:    0.8520    magn:    0.0052    constr:    0.0000
     atom:   21    charge:    0.8740    magn:    0.0067    constr:    0.0000
     atom:   22    charge:    0.8543    magn:    0.0059    constr:    0.0000
     atom:   23    charge:    0.8544    magn:    0.0060    constr:    0.0000
     atom:   24    charge:    0.8540    magn:    0.0057    constr:    0.0000
     atom:   25    charge:    0.8397    magn:    0.0044    constr:    0.0000
     atom:   26    charge:    0.8393    magn:    0.0045    constr:    0.0000
     atom:   27    charge:    0.8664    magn:    0.0045    constr:    0.0000
     atom:   28    charge:    0.8639    magn:    0.0046    constr:    0.0000
     atom:   29    charge:    0.8366    magn:   -0.0011    constr:    0.0000
     atom:   30    charge:    0.8379    magn:   -0.0007    constr:    0.0000
     atom:   31    charge:    0.8374    magn:   -0.0009    constr:    0.0000
     atom:   32    charge:    0.8375    magn:   -0.0018    constr:    0.0000
     atom:   33    charge:    0.8613    magn:    0.0059    constr:    0.0000
     atom:   34    charge:    0.8485    magn:    0.0098    constr:    0.0000
     atom:   35    charge:    0.8643    magn:    0.0044    constr:    0.0000
     atom:   36    charge:    0.8640    magn:    0.0038    constr:    0.0000
     atom:   37    charge:    0.8397    magn:    0.0046    constr:    0.0000
     atom:   38    charge:    0.8618    magn:    0.0060    constr:    0.0000
     atom:   39    charge:    0.8497    magn:    0.0090    constr:    0.0000
     atom:   40    charge:    0.8619    magn:    0.0064    constr:    0.0000
     atom:   41    charge:    0.8535    magn:    0.0063    constr:    0.0000
     atom:   42    charge:    0.8522    magn:    0.0045    constr:    0.0000
     atom:   43    charge:    0.8542    magn:    0.0049    constr:    0.0000
     atom:   44    charge:    0.8535    magn:    0.0063    constr:    0.0000
     atom:   45    charge:    0.8548    magn:    0.0056    constr:    0.0000
     atom:   46    charge:    0.8538    magn:    0.0047    constr:    0.0000
     atom:   47    charge:    0.8540    magn:    0.0048    constr:    0.0000
     atom:   48    charge:    0.8723    magn:    0.0070    constr:    0.0000
     atom:   49    charge:    0.8608    magn:    0.0058    constr:    0.0000
     atom:   50    charge:    0.8461    magn:    0.0079    constr:    0.0000
     atom:   51    charge:    0.8663    magn:    0.0040    constr:    0.0000
     atom:   52    charge:    0.8642    magn:    0.0035    constr:    0.0000
     atom:   53    charge:    0.8362    magn:   -0.0016    constr:    0.0000
     atom:   54    charge:    0.8377    magn:   -0.0012    constr:    0.0000
     atom:   55    charge:    0.8372    magn:   -0.0013    constr:    0.0000
     atom:   56    charge:    0.8377    magn:   -0.0014    constr:    0.0000
     atom:   57    charge:    0.5015    magn:   -0.0011    constr:    0.0000
     atom:   58    charge:    0.5018    magn:   -0.0010    constr:    0.0000
     atom:   59    charge:    0.5016    magn:   -0.0010    constr:    0.0000
     atom:   60    charge:    0.5050    magn:   -0.0011    constr:    0.0000
     atom:   61    charge:    0.5055    magn:   -0.0005    constr:    0.0000
     atom:   62    charge:    0.5056    magn:   -0.0003    constr:    0.0000
     atom:   63    charge:    0.5064    magn:   -0.0003    constr:    0.0000
     atom:   64    charge:    0.5064    magn:    0.0019    constr:    0.0000
     atom:   65    charge:    0.5001    magn:   -0.0009    constr:    0.0000
     atom:   66    charge:    0.4998    magn:   -0.0010    constr:    0.0000
     atom:   67    charge:    0.4995    magn:   -0.0010    constr:    0.0000
     atom:   68    charge:    0.4999    magn:   -0.0011    constr:    0.0000
     atom:   69    charge:    0.5010    magn:   -0.0011    constr:    0.0000
     atom:   70    charge:    0.5021    magn:   -0.0010    constr:    0.0000
     atom:   71    charge:    0.5002    magn:   -0.0011    constr:    0.0000
     atom:   72    charge:    0.5011    magn:   -0.0010    constr:    0.0000
     atom:   73    charge:    0.5057    magn:   -0.0005    constr:    0.0000
     atom:   74    charge:    0.5070    magn:   -0.0006    constr:    0.0000
     atom:   75    charge:    0.5073    magn:   -0.0004    constr:    0.0000
     atom:   76    charge:    0.5055    magn:   -0.0011    constr:    0.0000
     atom:   77    charge:    0.5002    magn:   -0.0009    constr:    0.0000
     atom:   78    charge:    0.5014    magn:   -0.0010    constr:    0.0000
     atom:   79    charge:    0.5012    magn:   -0.0010    constr:    0.0000
     atom:   80    charge:    0.5076    magn:    0.0017    constr:    0.0000
     atom:   81    charge:    2.5040    magn:    0.0154    constr:    0.0000
     atom:   82    charge:    2.4975    magn:    0.0115    constr:    0.0000
     atom:   83    charge:    2.5010    magn:    0.0112    constr:    0.0000
     atom:   84    charge:    2.4995    magn:    0.0119    constr:    0.0000
     atom:   85    charge:    2.5000    magn:    0.0123    constr:    0.0000
     atom:   86    charge:    2.4992    magn:    0.0132    constr:    0.0000
     atom:   87    charge:    2.5024    magn:    0.0126    constr:    0.0000
     atom:   88    charge:    2.5023    magn:    0.0147    constr:    0.0000
     atom:   89    charge:    7.4669    magn:    1.1343    constr:    0.0000
     atom:   90    charge:    7.4626    magn:    1.1366    constr:    0.0000
     atom:   91    charge:    7.4638    magn:    1.1381    constr:    0.0000
     atom:   92    charge:    7.4649    magn:    1.1335    constr:    0.0000
     atom:   93    charge:    3.3121    magn:    0.0497    constr:    0.0000
     atom:   94    charge:    3.3091    magn:    0.0519    constr:    0.0000
     atom:   95    charge:    3.3140    magn:    0.0499    constr:    0.0000
     atom:   96    charge:    3.3115    magn:    0.0497    constr:    0.0000
     atom:   97    charge:    3.3070    magn:    0.0514    constr:    0.0000
     atom:   98    charge:    3.3107    magn:    0.0513    constr:    0.0000
     atom:   99    charge:    3.3119    magn:    0.0508    constr:    0.0000
     atom:  100    charge:    3.3153    magn:    0.0474    constr:    0.0000
     atom:  101    charge:    3.3175    magn:    0.0483    constr:    0.0000
     atom:  102    charge:    3.3107    magn:    0.0517    constr:    0.0000
     atom:  103    charge:    3.3112    magn:    0.0507    constr:    0.0000
     atom:  104    charge:    3.3167    magn:    0.0486    constr:    0.0000
     atom:  105    charge:    3.3156    magn:    0.0475    constr:    0.0000
     atom:  106    charge:    3.3115    magn:    0.0498    constr:    0.0000
     atom:  107    charge:    3.3125    magn:    0.0487    constr:    0.0000
     atom:  108    charge:    3.3063    magn:    0.0517    constr:    0.0000

     total cpu time spent up to now is     1884.2 secs

     End of self-consistent calculation

 ------ SPIN UP ------------


          k = 0.0000 0.0000 0.0000 ( 91663 PWs)   bands (ev):

   -21.2093 -21.1896 -21.1679 -21.1568 -21.0422 -21.0364 -21.0304 -21.0264
   -18.6192 -18.5179 -18.3055 -18.2772 -18.2427 -18.2157 -18.2005 -18.1969
   -18.1699 -18.1559 -18.1072 -18.0905 -18.0084 -17.9964 -17.9923 -17.9650
   -16.7722 -16.7547 -15.4867 -15.4490 -15.4320 -15.3980 -15.3854 -15.3510
   -14.4810 -14.4589 -14.3011 -14.2677 -14.1493 -14.1343 -14.1164 -14.0777
   -13.5156 -13.4864 -13.0039 -12.9677 -12.8570 -12.8409 -12.7634 -12.7264
   -11.0937 -11.0489 -10.7232 -10.6959 -10.6858 -10.6330 -10.6266 -10.6068
   -10.2564 -10.2030  -9.8903  -9.8779  -9.8319  -9.8239  -9.7979  -9.7534
    -8.9203  -8.8491  -8.3237  -8.2548  -8.1487  -8.1405  -8.0529  -8.0202
    -7.2172  -7.1130  -7.0281  -6.9156  -6.8358  -6.8036  -6.7784  -6.7099
    -6.6846  -6.6670  -6.6108  -6.6011  -6.5491  -6.5302  -6.3938  -6.3731
    -6.3147  -6.2936  -5.9207  -5.8479  -5.7793  -5.7677  -5.7138  -5.7001
    -5.6555  -5.6341  -5.6082  -5.5977  -5.5496  -5.5185  -5.4982  -5.4369
    -5.4231  -5.3906  -5.3782  -5.3498  -5.3184  -5.3048  -5.2655  -5.2258
    -5.1833  -5.1712  -5.1337  -5.1246  -5.0733  -5.0440  -5.0276  -4.9831
    -4.9706  -4.8492  -4.8283  -4.7986  -4.6900  -4.6771  -4.6534  -4.5947
    -4.5580  -4.4453  -4.3005  -4.2840  -4.1687  -4.0977  -4.0618  -3.9315
    -3.9151  -3.8089  -3.6139  -3.5718  -3.5525  -3.4786  -3.4676  -3.4315
    -3.4243  -3.3534  -3.3320  -3.3250  -3.2660  -3.2179  -2.9985  -2.9654
    -2.8904  -2.8546  -2.7628  -2.7531  -2.6984  -2.6157  -2.5416  -2.5285
    -2.4771  -2.4117  -2.3990  -2.3864  -2.3214  -2.2237  -2.2216  -2.1753
    -2.1184  -2.0939  -2.0724  -2.0269  -2.0199  -1.8988  -1.8849  -1.8628
    -1.7551  -1.7329  -1.7293  -1.7108  -1.6177  -1.5891  -1.5308  -1.5055
    -1.4549  -1.4007  -1.3510  -1.3349  -1.2875  -1.2313  -1.2193  -1.1960
    -1.1939  -1.1652  -1.1429  -1.0971  -1.0707  -1.0431  -1.0294  -0.9992
    -0.9867  -0.9629  -0.9329  -0.8856  -0.7857  -0.7663  -0.6545  -0.5883
    -0.5396  -0.4659  -0.3533  -0.2977  -0.2661  -0.1808  -0.1446  -0.0825
     0.2085   0.2643   0.2801   0.3898   0.9143   0.9504   1.0174   1.0592
     1.2053   1.2364   1.2705   1.3011   2.7280   2.7651   2.9185   2.9690
     3.0046   3.0265   3.0651   3.1218   3.4393   3.5084   3.6203   3.8681
     4.0022   4.0416   4.0566   4.1166   4.1671   4.2427   4.3087   4.3195
     4.3480   4.3815   4.5150   4.7299   4.9202   4.9548   5.1284   5.1881
     5.3035   5.3710   5.4998   5.5304   5.5681   5.6355   5.6833   5.7000
     5.7080   5.8676   5.9109   5.9605   5.9907   6.3124   6.4478   6.5271
     6.5813   6.6220

 ------ SPIN DOWN ----------


          k = 0.0000 0.0000 0.0000 ( 91663 PWs)   bands (ev):

   -21.1256 -21.1059 -21.0831 -21.0704 -20.9575 -20.9507 -20.9449 -20.9395
   -18.5782 -18.4775 -18.1995 -18.1703 -18.1336 -18.1045 -18.0923 -18.0900
   -18.0747 -18.0620 -18.0517 -18.0361 -17.9771 -17.9636 -17.9612 -17.9352
   -16.7146 -16.6978 -15.4323 -15.3958 -15.3787 -15.3458 -15.3339 -15.2993
   -14.4455 -14.4238 -14.2586 -14.2258 -14.1078 -14.0935 -14.0738 -14.0349
   -13.4739 -13.4447 -12.9633 -12.9268 -12.8152 -12.7990 -12.7210 -12.6839
   -11.0592 -11.0145 -10.6895 -10.6621 -10.6510 -10.5986 -10.5912 -10.5739
   -10.2213 -10.1689  -9.8625  -9.8500  -9.8032  -9.7955  -9.7728  -9.7281
    -8.8916  -8.8205  -8.2997  -8.2311  -8.1257  -8.1168  -8.0269  -7.9952
    -7.1767  -7.0851  -7.0020  -6.8706  -6.7989  -6.7581  -6.7455  -6.6761
    -6.6480  -6.6389  -6.5846  -6.5541  -6.4984  -6.4892  -6.3469  -6.3221
    -6.2698  -6.2424  -5.8700  -5.7976  -5.7222  -5.6942  -5.6382  -5.6220
    -5.6027  -5.5741  -5.5280  -5.5209  -5.4929  -5.4557  -5.4396  -5.3620
    -5.3341  -5.3195  -5.3064  -5.2840  -5.2375  -5.2305  -5.2026  -5.1529
    -5.1050  -5.0916  -5.0653  -5.0344  -4.9884  -4.9762  -4.9496  -4.9091
    -4.8883  -4.7746  -4.7411  -4.7165  -4.6388  -4.6194  -4.6067  -4.5404
    -4.5004  -4.3676  -4.2285  -4.2102  -4.0901  -4.0257  -3.9893  -3.8800
    -3.8610  -3.7348  -3.5120  -3.5019  -3.4752  -3.4177  -3.4005  -3.3312
    -3.2963  -3.2589  -3.2026  -3.1741  -3.0317  -2.8902  -2.7284  -2.6839
    -2.6249  -2.5837  -2.4929  -2.4475  -2.4411  -2.4290  -2.4119  -2.3209
    -2.2615  -2.2466  -2.2269  -2.2003  -2.1261  -2.0132  -2.0019  -1.9015
    -1.8796  -1.8239  -1.7592  -1.7346  -1.6732  -1.6454  -1.5981  -1.5591
    -1.5228  -1.4429  -1.4189  -1.3394  -1.3077  -1.2909  -1.2747  -1.2657
    -1.1601  -1.1288  -1.0800  -1.0575  -1.0565  -1.0474  -1.0054  -0.8952
    -0.8329  -0.7679  -0.7031  -0.5827  -0.5143  -0.4882  -0.4444  -0.4256
    -0.3625  -0.3405  -0.2372  -0.1922  -0.1822  -0.1123  -0.0909  -0.0527
    -0.0408  -0.0160   0.0031   0.0368   0.0793   0.1443   0.1836   0.2018
     0.3580   0.4170   0.4468   0.5384   1.7582   1.7963   1.8224   1.8785
     1.9774   2.0327   2.0434   2.0711   2.8418   2.8847   3.0162   3.0783
     3.1093   3.1282   3.1709   3.2280   3.5328   3.5623   3.6487   3.8714
     4.0292   4.0787   4.1052   4.1963   4.2180   4.3178   4.3736   4.3818
     4.4001   4.4783   4.5461   4.7361   4.9309   4.9643   5.1670   5.2229
     5.3361   5.3692   5.4929   5.5802   5.6008   5.6775   5.7257   5.7542
     5.7815   5.8714   5.9484   5.9772   5.9861   6.3404   6.4570   6.5191
     6.5763   6.6225

     the spin up/dw Fermi energies are     1.5206    1.2182 ev

!    total energy              =   -1916.14029305 Ry
     Harris-Foulkes estimate   =   -1916.14029627 Ry
     estimated scf accuracy    <       0.00000061 Ry

     The total energy is the sum of the following terms:

     one-electron contribution =   -2378.72790196 Ry
     hartree contribution      =    1369.58893743 Ry
     xc contribution           =    -626.73498023 Ry
     ewald contribution        =    -282.31134805 Ry
     Dispersion Correction     =      -0.56289775 Ry
     smearing contrib. (-TS)   =       2.60789751 Ry

     total magnetization       =     8.00 Bohr mag/cell
     absolute magnetization    =     8.19 Bohr mag/cell

     convergence has been achieved in  22 iterations

     Forces acting on atoms (cartesian axes, Ry/au):

     atom    1 type  1   force =     0.00963543    0.05948668   -0.03563629
     atom    2 type  1   force =    -0.04019621   -0.04328299    0.01450714
     atom    3 type  1   force =     0.03601138   -0.03183710    0.01946205
     atom    4 type  1   force =     0.03512869    0.03763656    0.00556312
     atom    5 type  1   force =    -0.04063563    0.05139685    0.00309985
     atom    6 type  1   force =    -0.02893909    0.21633569    0.27308367
     atom    7 type  1   force =     0.00813460    0.19105049    0.28138223
     atom    8 type  1   force =    -0.01768755    0.05071935   -0.04053544
     atom    9 type  2   force =    -0.00789961   -0.00558008   -0.00870256
     atom   10 type  2   force =    -0.01623840    0.00649403    0.00200628
     atom   11 type  2   force =     0.01679455    0.01933678   -0.01577178
     atom   12 type  2   force =     0.01652480   -0.02759035   -0.02130333
     atom   13 type  2   force =    -0.00408404   -0.02059647   -0.08656396
     atom   14 type  2   force =    -0.01052232    0.01879181    0.01093773
     atom   15 type  2   force =     0.01702210    0.00660062    0.00379926
     atom   16 type  2   force =     0.00416975   -0.00643721   -0.00936624
     atom   17 type  2   force =     0.01517065   -0.00550738   -0.01350950
     atom   18 type  2   force =     0.00222108   -0.01252827   -0.01853173
     atom   19 type  2   force =     0.00119104   -0.01198360   -0.01792920
     atom   20 type  2   force =    -0.01422668   -0.00564260   -0.01304737
     atom   21 type  2   force =    -0.00724652   -0.11734496   -0.10106654
     atom   22 type  2   force =     0.02332246    0.00961354    0.02331659
     atom   23 type  2   force =    -0.02406352    0.00813231    0.02143720
     atom   24 type  2   force =    -0.02394093   -0.00853558    0.02172005
     atom   25 type  2   force =     0.00881271    0.01808889    0.01012357
     atom   26 type  2   force =     0.00732061   -0.01707691    0.01117442
     atom   27 type  2   force =    -0.01441058   -0.02760242   -0.02142995
     atom   28 type  2   force =    -0.01008214    0.02388486   -0.02046203
     atom   29 type  2   force =    -0.00439308   -0.00155644    0.01047461
     atom   30 type  2   force =    -0.01726132    0.00815401    0.01195676
     atom   31 type  2   force =     0.02149590    0.00937716    0.00509712
     atom   32 type  2   force =     0.01078683   -0.00542082    0.00140978
     atom   33 type  2   force =    -0.00371226   -0.00540937   -0.01001696
     atom   34 type  2   force =     0.02695963    0.03128978    0.04228998
     atom   35 type  2   force =     0.01204150    0.02408923   -0.02020987
     atom   36 type  2   force =     0.00319970   -0.02052968   -0.02132299
     atom   37 type  2   force =    -0.01027648   -0.01953959    0.01314460
     atom   38 type  2   force =     0.00549649    0.01083042    0.01120309
     atom   39 type  2   force =    -0.02350585    0.03381779    0.03869140
     atom   40 type  2   force =     0.00814601   -0.00673342   -0.00764079
     atom   41 type  2   force =     0.01248991    0.02009537   -0.00907663
     atom   42 type  2   force =     0.00214053   -0.00953173   -0.01585705
     atom   43 type  2   force =    -0.00056239   -0.01407663   -0.02142527
     atom   44 type  2   force =    -0.01235722    0.02184600   -0.01178981
     atom   45 type  2   force =     0.02240572   -0.00932535    0.02265081
     atom   46 type  2   force =     0.02330466   -0.00152068    0.01140236
     atom   47 type  2   force =    -0.02404071   -0.00364973    0.00972006
     atom   48 type  2   force =     0.01617288   -0.10372718   -0.10627468
     atom   49 type  2   force =    -0.00562224    0.01017110    0.01120335
     atom   50 type  2   force =     0.01282814   -0.01992217   -0.07921997
     atom   51 type  2   force =    -0.00225077   -0.02052823   -0.02161337
     atom   52 type  2   force =    -0.01493178    0.01878750   -0.01637580
     atom   53 type  2   force =    -0.01260613   -0.00449463   -0.00067401
     atom   54 type  2   force =     0.01540821    0.00270402    0.02193794
     atom   55 type  2   force =    -0.01035175    0.00396443    0.01537176
     atom   56 type  2   force =     0.00638828   -0.00213911    0.00660829
     atom   57 type  3   force =     0.01098987   -0.00207986    0.01496169
     atom   58 type  3   force =    -0.01159666    0.00193180    0.01528859
     atom   59 type  3   force =    -0.01152309   -0.00182701    0.01383836
     atom   60 type  3   force =    -0.01331542   -0.00709939    0.00267397
     atom   61 type  3   force =    -0.02484360   -0.00552694   -0.00426623
     atom   62 type  3   force =     0.02843816   -0.00915486   -0.00758625
     atom   63 type  3   force =     0.02483329    0.00585969   -0.00616566
     atom   64 type  3   force =     0.00376837   -0.09822021   -0.08566889
     atom   65 type  3   force =    -0.01250757   -0.00561119   -0.01420114
     atom   66 type  3   force =     0.01191309   -0.00545014   -0.01303950
     atom   67 type  3   force =     0.01110835    0.00556310   -0.01319385
     atom   68 type  3   force =     0.01276116    0.00214750   -0.00794351
     atom   69 type  3   force =     0.01179335   -0.00231157    0.00978977
     atom   70 type  3   force =     0.01120448    0.00220063    0.01511056
     atom   71 type  3   force =    -0.01319828    0.00158262   -0.00763875
     atom   72 type  3   force =    -0.01179242   -0.00203378    0.00820832
     atom   73 type  3   force =    -0.02166338    0.00267335   -0.00325484
     atom   74 type  3   force =    -0.02456422   -0.00482921   -0.00502682
     atom   75 type  3   force =     0.02806128   -0.00843826   -0.00859215
     atom   76 type  3   force =     0.01336202   -0.00739196    0.00210941
     atom   77 type  3   force =    -0.01222406    0.00521347   -0.01363247
     atom   78 type  3   force =    -0.01340675   -0.00662668   -0.01562637
     atom   79 type  3   force =     0.01286708   -0.00632731   -0.01426205
     atom   80 type  3   force =     0.00292694   -0.09449546   -0.08718528
     atom   81 type  4   force =    -0.01281274   -0.01158999   -0.00624827
     atom   82 type  4   force =     0.00489916   -0.00035117   -0.01018147
     atom   83 type  4   force =    -0.00750705   -0.00060915   -0.01053181
     atom   84 type  4   force =    -0.00592180   -0.00231792   -0.00826966
     atom   85 type  4   force =     0.00769734   -0.00366035   -0.00477777
     atom   86 type  4   force =     0.00809154    0.00465935   -0.00610126
     atom   87 type  4   force =    -0.00909375    0.00349154   -0.00775547
     atom   88 type  4   force =     0.00925795   -0.00679096   -0.00760427
     atom   89 type  5   force =     0.00490200    0.01227663   -0.00523389
     atom   90 type  5   force =    -0.00825027   -0.01313707    0.00738854
     atom   91 type  5   force =     0.01021641    0.01955801   -0.00214302
     atom   92 type  5   force =    -0.00270011   -0.02229887    0.00413350
     atom   93 type  6   force =     0.02251587   -0.00231043    0.00251990
     atom   94 type  6   force =     0.02800783   -0.00426656   -0.00174892
     atom   95 type  6   force =    -0.02622599    0.00328517    0.00397730
     atom   96 type  6   force =    -0.02492270   -0.00578742    0.00291125
     atom   97 type  6   force =    -0.01700203    0.01231129    0.01738544
     atom   98 type  6   force =    -0.01946106   -0.00647064    0.01079007
     atom   99 type  6   force =     0.01854517   -0.00734992    0.01065618
     atom  100 type  6   force =     0.01265851   -0.00566024    0.01688675
     atom  101 type  6   force =     0.02533631   -0.01302603   -0.00254746
     atom  102 type  6   force =     0.02831148    0.00195083    0.00406529
     atom  103 type  6   force =    -0.02373182   -0.00746223   -0.00275277
     atom  104 type  6   force =    -0.02904863   -0.01716516   -0.00116797
     atom  105 type  6   force =    -0.01680894   -0.00634902    0.01572180
     atom  106 type  6   force =    -0.01797980   -0.00874307    0.01035482
     atom  107 type  6   force =     0.01511366   -0.00974120    0.00955037
     atom  108 type  6   force =     0.01384239    0.01476170    0.01660396

     Total force =     0.640687     Total SCF correction =     0.001544

     BFGS Geometry Optimization

     number of scf cycles    =   1
     number of bfgs steps    =   0

     energy   new            =   -1916.1402930503 Ry

     new trust radius        =       0.3495901782 bohr
     new conv_thr            =       0.0000010000 Ry


ATOMIC_POSITIONS (crystal)
Br            0.5949533212        0.0187976140        0.6945205512
Br            0.3431106871        0.9786010740        0.1954441910
Br            0.9087060722        0.4725147208        0.6956893935
Br            0.1590416929        0.5262183356        0.1971195285
Br            0.0928624002        0.0184557779        0.6965156581
Br            0.4424144136        0.9960362808        0.8965041869
Br            0.8013489735        0.4932558528        0.4038816048
Br            0.6567635510        0.5267711501        0.1947452206
C             0.2878695690        0.9698142133        0.5215357743
C             0.0376937490        0.0313804057        0.0224113334
C             0.3913298811        0.0125870770        0.5456796738
C             0.1409232818        0.9865781675        0.0450487709
C             0.4516610413        0.9693316944        0.6459125192
C             0.2020849984        0.0291470493        0.1504563481
C             0.2089048552        0.5299829095        0.5265796808
C             0.4587126645        0.4711369951        0.0274215916
C             0.2457662861        0.6130982851        0.6057391926
C             0.4968956147        0.3881476171        0.1076625224
C             0.2495095929        0.8886996321        0.6022795555
C             0.0004547647        0.1119935713        0.1035749948
C             0.4075756264        0.8844245799        0.7223465630
C             0.1609437512        0.1099532207        0.2290129220
C             0.0878638414        0.6093266316        0.7284561238
C             0.3398972938        0.3912723284        0.2305126921
C             0.0473074012        0.5258433476        0.6518334149
C             0.2979782478        0.4739894137        0.1533295390
C             0.1075341256        0.4831036575        0.5490122492
C             0.3573861920        0.5166652565        0.0495841024
C             0.4331339244        0.0992532324        0.4671604952
C             0.1807977911        0.9000645481        0.9662878337
C             0.0682923816        0.3948702326        0.4709385272
C             0.3165007685        0.6039429430        0.9691796106
C             0.7880455255        0.9698214267        0.5214680758
C             0.5395594437        0.0324281519        0.0244861475
C             0.8911245949        0.0127878924        0.5454510896
C             0.6403594089        0.9868765167        0.0450477585
C             0.9514924698        0.9693763531        0.6510480132
C             0.7027630865        0.0288106404        0.1504700156
C             0.7072236127        0.5311329732        0.5283768024
C             0.9588835379        0.4711244789        0.0275104609
C             0.7456570051        0.6141801313        0.6059675078
C             0.9968947133        0.3882742361        0.1078002819
C             0.7494321191        0.8886111908        0.6020994905
C             0.5005350501        0.1131551046        0.1036397654
C             0.9089463350        0.8889889567        0.7287186310
C             0.6609308300        0.1094827435        0.2283992790
C             0.5878538233        0.6088287802        0.7278526323
C             0.8414747414        0.3872500004        0.2239203175
C             0.5466975953        0.5255087805        0.6518890291
C             0.7981265679        0.4738691871        0.1486737718
C             0.6080484988        0.4834025782        0.5490028023
C             0.8571848086        0.5164498672        0.0497945634
C             0.9327759369        0.0991290792        0.4665862852
C             0.6821895654        0.8998342586        0.9668019148
C             0.5669533723        0.3946415172        0.4714677235
C             0.8163195157        0.6040816116        0.9694473602
H             0.2376030631        0.9994871153        0.4438836024
H             0.2582236159        0.5009766282        0.4500694396
H             0.0081663694        0.5003197996        0.9512607452
H             0.3220800616        0.6502060148        0.5927727227
H             0.0739127386        0.3526174587        0.0948082675
H             0.1713502560        0.8547361608        0.5881692700
H             0.4233670467        0.1479796016        0.0895684373
H             0.4534491568        0.8510226975        0.8043486198
H             0.2056964279        0.1428658987        0.3080655697
H             0.0442208823        0.6427137038        0.8059363997
H             0.2968356850        0.3577610694        0.3083714501
H             0.4692045453        0.4933217429        0.6730928694
H             0.7376322147        0.9994773245        0.4436172223
H             0.9870262842        0.0027849877        0.9442772701
H             0.7817743517        0.9987318735        0.1722085656
H             0.5081496955        0.5003110623        0.9509707699
H             0.8217212585        0.6506189624        0.5924673591
H             0.5739238477        0.3526469412        0.0947690937
H             0.6713333652        0.8547664408        0.5881174610
H             0.9228893941        0.1474196520        0.0899946454
H             0.9528399578        0.8553932956        0.8080588592
H             0.7056580430        0.1428229892        0.3079921631
H             0.5442601045        0.6426766391        0.8058734323
H             0.7964201300        0.3535330874        0.3045605183
N             0.3078889691        0.8507632641        0.7045061823
N             0.0609267654        0.1488421614        0.2055276028
N             0.1862144652        0.6502842603        0.7052955586
N             0.4385516661        0.3508300563        0.2076150707
N             0.8087582362        0.8510983314        0.7045819208
N             0.5610656762        0.1490538814        0.2057377542
N             0.6861509264        0.6504575354        0.7054385541
N             0.9391946244        0.3506410475        0.2076493420
Ni            0.2472045231        0.7520047499        0.8360564285
Ni            0.4996298139        0.2474438920        0.3395585473
Ni            0.7474323009        0.7523124251        0.8362156237
Ni            0.9998616187        0.2470567598        0.3393908963
O             0.1237331260        0.3475913728        0.3830027877
O             0.3723915180        0.6507967162        0.8812019218
O             0.3765239698        0.1476458149        0.3773828508
O             0.1240461196        0.8521074522        0.8764109442
O             0.4723658517        0.3566802144        0.4838894378
O             0.2203236150        0.6411415826        0.9804327432
O             0.0296347317        0.1348474286        0.4816268471
O             0.2772374767        0.8625188260        0.9802687527
O             0.6238487236        0.3471385842        0.3827417928
O             0.8724098169        0.6510594323        0.8815013829
O             0.8766232026        0.1471916830        0.3770362183
O             0.6238677059        0.8516266849        0.8762008438
O             0.9723724628        0.3558917219        0.4838037519
O             0.7203858870        0.6410455608        0.9804103257
O             0.5294884900        0.1347463849        0.4815698924
O             0.7772873078        0.8633817567        0.9802541877



     Writing output data file /nfs/hpc/share/gantzlen/NiPyC2_relax_sc211_meta_functionalized_Br_vdw-df2_relax.save/
     NEW-OLD atomic charge density approx. for the potential

     Check: negative core charge=   -0.000141

     total cpu time spent up to now is     1920.2 secs

     Self-consistent Calculation

     iteration #  1     ecut=   100.00 Ry     beta= 0.70
     Davidson diagonalization with overlap
     ethr =  1.00E-06,  avg # of iterations = 13.0

     total cpu time spent up to now is     2229.4 secs

     total energy              =   -1916.33185160 Ry
     Harris-Foulkes estimate   =   -1916.40283376 Ry
     estimated scf accuracy    <       0.08562740 Ry

     total magnetization       =     8.00 Bohr mag/cell
     absolute magnetization    =     8.19 Bohr mag/cell

     iteration #  2     ecut=   100.00 Ry     beta= 0.70
     Davidson diagonalization with overlap
     ethr =  1.91E-05,  avg # of iterations =  9.0

     total cpu time spent up to now is     2322.3 secs

     total energy              =   -1916.39799461 Ry
     Harris-Foulkes estimate   =   -1916.40076542 Ry
     estimated scf accuracy    <       0.04452400 Ry

     total magnetization       =     8.00 Bohr mag/cell
     absolute magnetization    =     8.19 Bohr mag/cell

     iteration #  3     ecut=   100.00 Ry     beta= 0.70
     Davidson diagonalization with overlap
     ethr =  9.94E-06,  avg # of iterations =  2.0

     total cpu time spent up to now is     2392.5 secs

     total energy              =   -1916.40196780 Ry
     Harris-Foulkes estimate   =   -1916.40834527 Ry
     estimated scf accuracy    <       0.08401587 Ry

     total magnetization       =     8.00 Bohr mag/cell
     absolute magnetization    =     8.20 Bohr mag/cell

     iteration #  4     ecut=   100.00 Ry     beta= 0.70
     Davidson diagonalization with overlap
     ethr =  9.94E-06,  avg # of iterations =  2.0

     total cpu time spent up to now is     2462.6 secs

     total energy              =   -1916.40784549 Ry
     Harris-Foulkes estimate   =   -1916.40739580 Ry
     estimated scf accuracy    <       0.00840375 Ry

     total magnetization       =     8.00 Bohr mag/cell
     absolute magnetization    =     8.19 Bohr mag/cell

     iteration #  5     ecut=   100.00 Ry     beta= 0.70
     Davidson diagonalization with overlap
     ethr =  1.88E-06,  avg # of iterations =  5.0

     total cpu time spent up to now is     2537.0 secs

     total energy              =   -1916.40853920 Ry
     Harris-Foulkes estimate   =   -1916.40890435 Ry
     estimated scf accuracy    <       0.01334880 Ry

     total magnetization       =     8.00 Bohr mag/cell
     absolute magnetization    =     8.19 Bohr mag/cell

     iteration #  6     ecut=   100.00 Ry     beta= 0.70
     Davidson diagonalization with overlap
     ethr =  1.88E-06,  avg # of iterations =  2.0

     total cpu time spent up to now is     2606.2 secs

     total energy              =   -1916.40917730 Ry
     Harris-Foulkes estimate   =   -1916.40919856 Ry
     estimated scf accuracy    <       0.00129948 Ry

     total magnetization       =     8.00 Bohr mag/cell
     absolute magnetization    =     8.19 Bohr mag/cell

     iteration #  7     ecut=   100.00 Ry     beta= 0.70
     Davidson diagonalization with overlap
     ethr =  2.90E-07,  avg # of iterations =  3.0

     total cpu time spent up to now is     2679.8 secs

     total energy              =   -1916.40916962 Ry
     Harris-Foulkes estimate   =   -1916.40924330 Ry
     estimated scf accuracy    <       0.00028391 Ry

     total magnetization       =     8.00 Bohr mag/cell
     absolute magnetization    =     8.19 Bohr mag/cell

     iteration #  8     ecut=   100.00 Ry     beta= 0.70
     Davidson diagonalization with overlap
     ethr =  6.34E-08,  avg # of iterations =  3.0

     total cpu time spent up to now is     2754.9 secs

     total energy              =   -1916.40915361 Ry
     Harris-Foulkes estimate   =   -1916.40918809 Ry
     estimated scf accuracy    <       0.00020407 Ry

     total magnetization       =     8.00 Bohr mag/cell
     absolute magnetization    =     8.19 Bohr mag/cell

     iteration #  9     ecut=   100.00 Ry     beta= 0.70
     Davidson diagonalization with overlap
     ethr =  4.56E-08,  avg # of iterations =  2.0

     total cpu time spent up to now is     2827.0 secs

     total energy              =   -1916.40914145 Ry
     Harris-Foulkes estimate   =   -1916.40916777 Ry
     estimated scf accuracy    <       0.00019493 Ry

     total magnetization       =     8.00 Bohr mag/cell
     absolute magnetization    =     8.20 Bohr mag/cell

     iteration # 10     ecut=   100.00 Ry     beta= 0.70
     Davidson diagonalization with overlap
     ethr =  4.35E-08,  avg # of iterations =  2.0

     total cpu time spent up to now is     2899.2 secs

     total energy              =   -1916.40912690 Ry
     Harris-Foulkes estimate   =   -1916.40914913 Ry
     estimated scf accuracy    <       0.00006297 Ry

     total magnetization       =     8.00 Bohr mag/cell
     absolute magnetization    =     8.20 Bohr mag/cell

     iteration # 11     ecut=   100.00 Ry     beta= 0.70
     Davidson diagonalization with overlap
     ethr =  1.41E-08,  avg # of iterations =  4.0

     total cpu time spent up to now is     2978.0 secs

     total energy              =   -1916.40911492 Ry
     Harris-Foulkes estimate   =   -1916.40913212 Ry
     estimated scf accuracy    <       0.00002013 Ry

     total magnetization       =     8.00 Bohr mag/cell
     absolute magnetization    =     8.20 Bohr mag/cell

     iteration # 12     ecut=   100.00 Ry     beta= 0.70
     Davidson diagonalization with overlap
     ethr =  4.49E-09,  avg # of iterations =  4.0

     total cpu time spent up to now is     3060.7 secs

     total energy              =   -1916.40911059 Ry
     Harris-Foulkes estimate   =   -1916.40911686 Ry
     estimated scf accuracy    <       0.00000792 Ry

     total magnetization       =     8.00 Bohr mag/cell
     absolute magnetization    =     8.20 Bohr mag/cell

     iteration # 13     ecut=   100.00 Ry     beta= 0.70
     Davidson diagonalization with overlap
     ethr =  1.77E-09,  avg # of iterations =  3.5

     total cpu time spent up to now is     3141.8 secs

     total energy              =   -1916.40910619 Ry
     Harris-Foulkes estimate   =   -1916.40911177 Ry
     estimated scf accuracy    <       0.00001532 Ry

     total magnetization       =     8.00 Bohr mag/cell
     absolute magnetization    =     8.20 Bohr mag/cell

     iteration # 14     ecut=   100.00 Ry     beta= 0.70
     Davidson diagonalization with overlap
     ethr =  1.77E-09,  avg # of iterations =  3.0

     total cpu time spent up to now is     3216.4 secs

     total energy              =   -1916.40910216 Ry
     Harris-Foulkes estimate   =   -1916.40910706 Ry
     estimated scf accuracy    <       0.00000410 Ry

     total magnetization       =     8.00 Bohr mag/cell
     absolute magnetization    =     8.20 Bohr mag/cell

     iteration # 15     ecut=   100.00 Ry     beta= 0.70
     Davidson diagonalization with overlap
     ethr =  9.15E-10,  avg # of iterations =  4.5

     total cpu time spent up to now is     3309.0 secs

     total energy              =   -1916.40910154 Ry
     Harris-Foulkes estimate   =   -1916.40910287 Ry
     estimated scf accuracy    <       0.00000170 Ry

     total magnetization       =     8.00 Bohr mag/cell
     absolute magnetization    =     8.20 Bohr mag/cell

     iteration # 16     ecut=   100.00 Ry     beta= 0.70
     Davidson diagonalization with overlap
     ethr =  3.79E-10,  avg # of iterations =  4.0

     total cpu time spent up to now is     3398.8 secs

     total energy              =   -1916.40909818 Ry
     Harris-Foulkes estimate   =   -1916.40910188 Ry
     estimated scf accuracy    <       0.00000301 Ry

     total magnetization       =     8.00 Bohr mag/cell
     absolute magnetization    =     8.20 Bohr mag/cell

     iteration # 17     ecut=   100.00 Ry     beta= 0.70
     Davidson diagonalization with overlap
     ethr =  3.79E-10,  avg # of iterations =  4.5
 
     Magnetic moment per site:
     atom:    1    charge:    2.3309    magn:    0.0315    constr:    0.0000
     atom:    2    charge:    2.3319    magn:    0.0324    constr:    0.0000
     atom:    3    charge:    2.3325    magn:    0.0323    constr:    0.0000
     atom:    4    charge:    2.3291    magn:    0.0324    constr:    0.0000
     atom:    5    charge:    2.3298    magn:    0.0325    constr:    0.0000
     atom:    6    charge:    2.2795    magn:    0.0293    constr:    0.0000
     atom:    7    charge:    2.2833    magn:    0.0293    constr:    0.0000
     atom:    8    charge:    2.3293    magn:    0.0308    constr:    0.0000
     atom:    9    charge:    0.8610    magn:    0.0069    constr:    0.0000
     atom:   10    charge:    0.8603    magn:    0.0055    constr:    0.0000
     atom:   11    charge:    0.8719    magn:    0.0029    constr:    0.0000
     atom:   12    charge:    0.8621    magn:    0.0048    constr:    0.0000
     atom:   13    charge:    0.8341    magn:    0.0077    constr:    0.0000
     atom:   14    charge:    0.8370    magn:    0.0043    constr:    0.0000
     atom:   15    charge:    0.8616    magn:    0.0053    constr:    0.0000
     atom:   16    charge:    0.8612    magn:    0.0057    constr:    0.0000
     atom:   17    charge:    0.8545    magn:    0.0048    constr:    0.0000
     atom:   18    charge:    0.8541    magn:    0.0048    constr:    0.0000
     atom:   19    charge:    0.8565    magn:    0.0049    constr:    0.0000
     atom:   20    charge:    0.8543    magn:    0.0048    constr:    0.0000
     atom:   21    charge:    0.8510    magn:    0.0059    constr:    0.0000
     atom:   22    charge:    0.8573    magn:    0.0057    constr:    0.0000
     atom:   23    charge:    0.8575    magn:    0.0057    constr:    0.0000
     atom:   24    charge:    0.8568    magn:    0.0056    constr:    0.0000
     atom:   25    charge:    0.8361    magn:    0.0042    constr:    0.0000
     atom:   26    charge:    0.8358    magn:    0.0043    constr:    0.0000
     atom:   27    charge:    0.8642    magn:    0.0050    constr:    0.0000
     atom:   28    charge:    0.8621    magn:    0.0050    constr:    0.0000
     atom:   29    charge:    0.8357    magn:   -0.0009    constr:    0.0000
     atom:   30    charge:    0.8360    magn:   -0.0008    constr:    0.0000
     atom:   31    charge:    0.8351    magn:   -0.0011    constr:    0.0000
     atom:   32    charge:    0.8352    magn:   -0.0020    constr:    0.0000
     atom:   33    charge:    0.8608    magn:    0.0059    constr:    0.0000
     atom:   34    charge:    0.8526    magn:    0.0056    constr:    0.0000
     atom:   35    charge:    0.8624    magn:    0.0047    constr:    0.0000
     atom:   36    charge:    0.8652    magn:    0.0045    constr:    0.0000
     atom:   37    charge:    0.8360    magn:    0.0044    constr:    0.0000
     atom:   38    charge:    0.8611    magn:    0.0057    constr:    0.0000
     atom:   39    charge:    0.8552    magn:    0.0053    constr:    0.0000
     atom:   40    charge:    0.8615    magn:    0.0065    constr:    0.0000
     atom:   41    charge:    0.8606    magn:    0.0064    constr:    0.0000
     atom:   42    charge:    0.8558    magn:    0.0050    constr:    0.0000
     atom:   43    charge:    0.8545    magn:    0.0048    constr:    0.0000
     atom:   44    charge:    0.8602    magn:    0.0064    constr:    0.0000
     atom:   45    charge:    0.8585    magn:    0.0054    constr:    0.0000
     atom:   46    charge:    0.8562    magn:    0.0046    constr:    0.0000
     atom:   47    charge:    0.8563    magn:    0.0046    constr:    0.0000
     atom:   48    charge:    0.8535    magn:    0.0060    constr:    0.0000
     atom:   49    charge:    0.8603    magn:    0.0055    constr:    0.0000
     atom:   50    charge:    0.8346    magn:    0.0074    constr:    0.0000
     atom:   51    charge:    0.8669    magn:    0.0047    constr:    0.0000
     atom:   52    charge:    0.8710    magn:    0.0032    constr:    0.0000
     atom:   53    charge:    0.8348    magn:   -0.0016    constr:    0.0000
     atom:   54    charge:    0.8341    magn:   -0.0014    constr:    0.0000
     atom:   55    charge:    0.8337    magn:   -0.0016    constr:    0.0000
     atom:   56    charge:    0.8360    magn:   -0.0014    constr:    0.0000
     atom:   57    charge:    0.5056    magn:   -0.0010    constr:    0.0000
     atom:   58    charge:    0.5050    magn:   -0.0010    constr:    0.0000
     atom:   59    charge:    0.5054    magn:   -0.0010    constr:    0.0000
     atom:   60    charge:    0.5093    magn:   -0.0010    constr:    0.0000
     atom:   61    charge:    0.5091    magn:   -0.0006    constr:    0.0000
     atom:   62    charge:    0.5085    magn:   -0.0004    constr:    0.0000
     atom:   63    charge:    0.5126    magn:   -0.0004    constr:    0.0000
     atom:   64    charge:    0.4865    magn:    0.0006    constr:    0.0000
     atom:   65    charge:    0.5112    magn:   -0.0009    constr:    0.0000
     atom:   66    charge:    0.5104    magn:   -0.0009    constr:    0.0000
     atom:   67    charge:    0.5103    magn:   -0.0009    constr:    0.0000
     atom:   68    charge:    0.5026    magn:   -0.0012    constr:    0.0000
     atom:   69    charge:    0.5048    magn:   -0.0010    constr:    0.0000
     atom:   70    charge:    0.5054    magn:   -0.0010    constr:    0.0000
     atom:   71    charge:    0.5028    magn:   -0.0012    constr:    0.0000
     atom:   72    charge:    0.5046    magn:   -0.0010    constr:    0.0000
     atom:   73    charge:    0.5117    magn:   -0.0006    constr:    0.0000
     atom:   74    charge:    0.5096    magn:   -0.0005    constr:    0.0000
     atom:   75    charge:    0.5095    magn:   -0.0004    constr:    0.0000
     atom:   76    charge:    0.5095    magn:   -0.0010    constr:    0.0000
     atom:   77    charge:    0.5111    magn:   -0.0009    constr:    0.0000
     atom:   78    charge:    0.5083    magn:   -0.0009    constr:    0.0000
     atom:   79    charge:    0.5076    magn:   -0.0009    constr:    0.0000
     atom:   80    charge:    0.4838    magn:    0.0005    constr:    0.0000
     atom:   81    charge:    2.5169    magn:    0.0124    constr:    0.0000
     atom:   82    charge:    2.4879    magn:    0.0126    constr:    0.0000
     atom:   83    charge:    2.4904    magn:    0.0124    constr:    0.0000
     atom:   84    charge:    2.4907    magn:    0.0127    constr:    0.0000
     atom:   85    charge:    2.4923    magn:    0.0128    constr:    0.0000
     atom:   86    charge:    2.4918    magn:    0.0134    constr:    0.0000
     atom:   87    charge:    2.4945    magn:    0.0129    constr:    0.0000
     atom:   88    charge:    2.5167    magn:    0.0122    constr:    0.0000
     atom:   89    charge:    7.4632    magn:    1.1405    constr:    0.0000
     atom:   90    charge:    7.4583    magn:    1.1421    constr:    0.0000
     atom:   91    charge:    7.4586    magn:    1.1436    constr:    0.0000
     atom:   92    charge:    7.4612    magn:    1.1424    constr:    0.0000
     atom:   93    charge:    3.3092    magn:    0.0499    constr:    0.0000
     atom:   94    charge:    3.3052    magn:    0.0526    constr:    0.0000
     atom:   95    charge:    3.3095    magn:    0.0492    constr:    0.0000
     atom:   96    charge:    3.3067    magn:    0.0500    constr:    0.0000
     atom:   97    charge:    3.3056    magn:    0.0510    constr:    0.0000
     atom:   98    charge:    3.3034    magn:    0.0533    constr:    0.0000
     atom:   99    charge:    3.3056    magn:    0.0514    constr:    0.0000
     atom:  100    charge:    3.3069    magn:    0.0493    constr:    0.0000
     atom:  101    charge:    3.3056    magn:    0.0520    constr:    0.0000
     atom:  102    charge:    3.3060    magn:    0.0519    constr:    0.0000
     atom:  103    charge:    3.3097    magn:    0.0495    constr:    0.0000
     atom:  104    charge:    3.3027    magn:    0.0524    constr:    0.0000
     atom:  105    charge:    3.3047    magn:    0.0510    constr:    0.0000
     atom:  106    charge:    3.3057    magn:    0.0510    constr:    0.0000
     atom:  107    charge:    3.3092    magn:    0.0480    constr:    0.0000
     atom:  108    charge:    3.3077    magn:    0.0493    constr:    0.0000

     total cpu time spent up to now is     3492.6 secs

     End of self-consistent calculation

 ------ SPIN UP ------------


          k = 0.0000 0.0000 0.0000 ( 91663 PWs)   bands (ev):

   -21.0314 -21.0211 -21.0033 -20.9852 -20.8784 -20.8656 -20.8621 -20.8444
   -18.4925 -18.4595 -18.2105 -18.2009 -18.1691 -18.1435 -18.1371 -18.1343
   -18.1158 -18.0865 -18.0526 -18.0333 -17.9590 -17.9397 -17.8983 -17.8833
   -16.4385 -16.4105 -15.5265 -15.4793 -15.4398 -15.4123 -15.3921 -15.3723
   -14.4277 -14.4015 -14.2274 -14.1965 -14.1233 -14.1109 -14.0672 -14.0355
   -13.4182 -13.3680 -13.0170 -12.9841 -12.9112 -12.8951 -12.8024 -12.7725
   -11.0478 -11.0000 -10.8617 -10.8215 -10.7965 -10.7640 -10.7586 -10.7413
   -10.1744 -10.1349  -9.8803  -9.8728  -9.8265  -9.8180  -9.7766  -9.7268
    -8.8216  -8.7123  -8.4293  -8.3685  -8.2721  -8.2593  -8.1823  -8.1259
    -7.1729  -7.0281  -6.9449  -6.8603  -6.8201  -6.8140  -6.7691  -6.7047
    -6.6948  -6.6823  -6.6057  -6.5888  -6.4992  -6.4623  -6.3925  -6.3255
    -6.1581  -6.0881  -5.8965  -5.8503  -5.8215  -5.7949  -5.7079  -5.7033
    -5.6835  -5.6468  -5.5972  -5.5890  -5.5699  -5.5445  -5.4737  -5.4228
    -5.3932  -5.3837  -5.3662  -5.3300  -5.3033  -5.2850  -5.2340  -5.1935
    -5.1690  -5.1328  -5.1005  -5.0981  -5.0433  -5.0319  -4.9556  -4.9464
    -4.9307  -4.8624  -4.7818  -4.7616  -4.7511  -4.6848  -4.6832  -4.6532
    -4.5232  -4.4235  -4.4031  -4.2952  -4.2070  -4.1957  -4.0426  -3.7982
    -3.7448  -3.7341  -3.5975  -3.5237  -3.5015  -3.4773  -3.4318  -3.3987
    -3.3666  -3.3438  -3.3249  -3.3093  -3.3040  -3.2317  -3.0409  -2.9885
    -2.9433  -2.8808  -2.7934  -2.7623  -2.7328  -2.6579  -2.5747  -2.5640
    -2.4639  -2.4112  -2.4051  -2.3857  -2.3754  -2.2183  -2.2050  -2.1958
    -2.1121  -2.0990  -2.0847  -2.0697  -2.0317  -1.9079  -1.8995  -1.8660
    -1.7821  -1.7677  -1.7600  -1.7247  -1.6174  -1.6146  -1.5510  -1.5246
    -1.4816  -1.3973  -1.3568  -1.3209  -1.2902  -1.2617  -1.2369  -1.2095
    -1.1856  -1.1706  -1.1476  -1.0993  -1.0737  -1.0485  -1.0301  -1.0076
    -0.9836  -0.9762  -0.9609  -0.9363  -0.8015  -0.7853  -0.6550  -0.5789
    -0.5477  -0.4962  -0.3797  -0.3210  -0.2870  -0.2264  -0.2133  -0.1288
     0.1486   0.2326   0.2869   0.3142   0.8738   0.9182   0.9790   1.0263
     1.1834   1.2223   1.2562   1.2867   2.7188   2.7656   2.7842   2.8770
     2.9140   2.9489   3.0027   3.0175   3.5549   3.6005   3.7710   3.8876
     4.0045   4.0365   4.0468   4.1096   4.1687   4.2421   4.3329   4.3484
     4.3593   4.3723   4.5346   4.7721   4.9738   5.0138   5.2078   5.2363
     5.3538   5.3773   5.4934   5.5224   5.5503   5.6110   5.6466   5.6579
     5.6921   5.7697   5.8659   5.9693   6.0068   6.2016   6.3926   6.5492
     6.6066   6.6128

 ------ SPIN DOWN ----------


          k = 0.0000 0.0000 0.0000 ( 91663 PWs)   bands (ev):

   -20.9474 -20.9353 -20.9169 -20.8977 -20.7928 -20.7786 -20.7750 -20.7554
   -18.4605 -18.4284 -18.1040 -18.0930 -18.0629 -18.0421 -18.0281 -18.0270
   -18.0173 -17.9970 -17.9821 -17.9649 -17.9237 -17.9057 -17.8667 -17.8526
   -16.3850 -16.3565 -15.4750 -15.4284 -15.3888 -15.3605 -15.3413 -15.3212
   -14.3904 -14.3645 -14.1880 -14.1575 -14.0823 -14.0699 -14.0241 -13.9924
   -13.3779 -13.3273 -12.9766 -12.9437 -12.8700 -12.8538 -12.7612 -12.7312
   -11.0141 -10.9664 -10.8264 -10.7882 -10.7632 -10.7304 -10.7242 -10.7065
   -10.1435 -10.1049  -9.8539  -9.8464  -9.8009  -9.7928  -9.7520  -9.7020
    -8.7974  -8.6885  -8.4068  -8.3459  -8.2502  -8.2382  -8.1579  -8.1024
    -7.1335  -7.0003  -6.9202  -6.8242  -6.7881  -6.7783  -6.7373  -6.6721
    -6.6616  -6.6489  -6.5666  -6.5534  -6.4440  -6.4133  -6.3450  -6.2670
    -6.1235  -6.0561  -5.8625  -5.8159  -5.7740  -5.7355  -5.6545  -5.6378
    -5.6166  -5.5776  -5.5433  -5.5181  -5.4985  -5.4912  -5.3987  -5.3648
    -5.3218  -5.2963  -5.2758  -5.2703  -5.2343  -5.2169  -5.1751  -5.1244
    -5.0885  -5.0542  -5.0318  -5.0083  -4.9677  -4.9626  -4.8853  -4.8756
    -4.8520  -4.7870  -4.7201  -4.6848  -4.6749  -4.6204  -4.6194  -4.5972
    -4.4453  -4.3525  -4.3267  -4.2156  -4.1274  -4.1072  -3.9571  -3.7123
    -3.7038  -3.6831  -3.5008  -3.4476  -3.4132  -3.4017  -3.3701  -3.3143
    -3.2835  -3.2743  -3.2700  -3.1546  -3.0340  -2.8498  -2.7562  -2.6904
    -2.6716  -2.6026  -2.5382  -2.4843  -2.4556  -2.4102  -2.3987  -2.3278
    -2.2721  -2.2477  -2.2326  -2.2206  -2.1594  -2.0624  -2.0093  -1.9340
    -1.8710  -1.8426  -1.7616  -1.7225  -1.6766  -1.6444  -1.6131  -1.5591
    -1.5143  -1.4405  -1.4162  -1.3628  -1.3153  -1.3033  -1.2718  -1.2372
    -1.1758  -1.1325  -1.0805  -1.0748  -1.0720  -1.0425  -1.0224  -0.9102
    -0.8842  -0.8180  -0.6723  -0.5793  -0.5400  -0.4978  -0.4584  -0.4279
    -0.3593  -0.3459  -0.2604  -0.2047  -0.1817  -0.1612  -0.1439  -0.0734
    -0.0580  -0.0375  -0.0194   0.0165   0.0596   0.1188   0.1654   0.1973
     0.3206   0.3870   0.4159   0.4772   1.7229   1.7623   1.7920   1.8481
     1.9536   2.0204   2.0247   2.0499   2.8352   2.8833   2.8945   2.9853
     3.0153   3.0546   3.1124   3.1270   3.5489   3.6788   3.8508   3.9048
     4.0273   4.0660   4.0991   4.1868   4.2185   4.3022   4.3891   4.4032
[...]
    -1.4641  -1.4184  -1.4040  -1.3798  -1.3401  -1.3031  -1.2646  -1.2292
    -1.2101  -1.1883  -1.1427  -1.0908  -1.0818  -1.0410  -1.0183  -0.9835
    -0.8598  -0.8337  -0.7747  -0.7293  -0.7118  -0.6386  -0.5974  -0.5917
    -0.5176  -0.4670  -0.4101  -0.3717  -0.3627  -0.2521  -0.2402  -0.2122
    -0.1923  -0.1583  -0.1490  -0.1095  -0.1005  -0.0910  -0.0598  -0.0463
    -0.0141   0.0174   0.1077   0.2565   1.1805   1.3053   1.3430   1.3792
     1.7056   1.7440   1.7709   1.7818   2.8886   2.9327   2.9464   2.9970
     3.0517   3.0743   3.1428   3.2077   3.7131   3.8933   3.9295   3.9778
     3.9954   4.0365   4.1103   4.1485   4.1806   4.2442   4.2635   4.3471
     4.7204   4.7925   4.8355   4.8561   4.9433   5.0794   5.2152   5.2859
     5.3744   5.3901   5.4437   5.5168   5.5597   5.5721   5.6292   5.6548
     5.7092   5.8080   5.8780   5.9468   6.1108   6.2210   6.3182   6.6568
     6.6768   6.7798

     the spin up/dw Fermi energies are     1.2978    1.0542 ev

!    total energy              =   -1916.90651611 Ry
     Harris-Foulkes estimate   =   -1916.90651614 Ry
     estimated scf accuracy    <          4.4E-09 Ry

     The total energy is the sum of the following terms:

     one-electron contribution =   -2167.16531161 Ry
     hartree contribution      =    1263.23120570 Ry
     xc contribution           =    -625.92111343 Ry
     ewald contribution        =    -389.27047480 Ry
     Dispersion Correction     =      -0.57005105 Ry
     smearing contrib. (-TS)   =       2.78922908 Ry

     total magnetization       =     8.00 Bohr mag/cell
     absolute magnetization    =     8.23 Bohr mag/cell

     convergence has been achieved in  11 iterations

     Forces acting on atoms (cartesian axes, Ry/au):

     atom    1 type  1   force =    -0.00057486   -0.00027946    0.00025160
     atom    2 type  1   force =     0.00011479    0.00026877   -0.00021992
     atom    3 type  1   force =    -0.00026005    0.00024421    0.00024376
     atom    4 type  1   force =    -0.00031886   -0.00055273    0.00021082
     atom    5 type  1   force =     0.00021510    0.00039963    0.00053841
     atom    6 type  1   force =    -0.00015534    0.00006183   -0.00046721
     atom    7 type  1   force =     0.00043051   -0.00001934    0.00001161
     atom    8 type  1   force =    -0.00021369   -0.00089298    0.00044513
     atom    9 type  2   force =     0.00010409    0.00021806   -0.00013527
     atom   10 type  2   force =     0.00005727    0.00046423    0.00022814
     atom   11 type  2   force =     0.00032369   -0.00021514   -0.00043429
     atom   12 type  2   force =    -0.00020518    0.00012142   -0.00045361
     atom   13 type  2   force =    -0.00006316    0.00043724   -0.00032007
     atom   14 type  2   force =     0.00021708    0.00023520    0.00000176
     atom   15 type  2   force =     0.00032312   -0.00009212    0.00011517
     atom   16 type  2   force =     0.00013997    0.00032730    0.00068909
     atom   17 type  2   force =     0.00004478    0.00040193    0.00002013
     atom   18 type  2   force =    -0.00005180   -0.00001718   -0.00058749
     atom   19 type  2   force =     0.00002560   -0.00057827    0.00085184
     atom   20 type  2   force =    -0.00053482   -0.00050488    0.00005258
     atom   21 type  2   force =     0.00035339   -0.00058700    0.00021926
     atom   22 type  2   force =     0.00034586   -0.00022115    0.00017358
     atom   23 type  2   force =    -0.00007261    0.00009982    0.00030577
     atom   24 type  2   force =    -0.00027060    0.00039732    0.00037254
     atom   25 type  2   force =     0.00010639   -0.00001355   -0.00037535
     atom   26 type  2   force =    -0.00016563    0.00038517    0.00039629
     atom   27 type  2   force =     0.00040598   -0.00030960    0.00031869
     atom   28 type  2   force =    -0.00001218    0.00025836    0.00006804
     atom   29 type  2   force =    -0.00013961    0.00021232   -0.00026045
     atom   30 type  2   force =     0.00022660   -0.00040202   -0.00007652
     atom   31 type  2   force =    -0.00006725   -0.00039726   -0.00002072
     atom   32 type  2   force =     0.00003027    0.00046856    0.00022874
     atom   33 type  2   force =     0.00001180    0.00015576    0.00002695
     atom   34 type  2   force =    -0.00034704   -0.00013037    0.00016152
     atom   35 type  2   force =    -0.00054284    0.00070184    0.00044362
     atom   36 type  2   force =     0.00006801    0.00000811    0.00030717
     atom   37 type  2   force =    -0.00012757    0.00016509   -0.00025674
     atom   38 type  2   force =    -0.00037168   -0.00013377    0.00015479
     atom   39 type  2   force =    -0.00020995   -0.00022799    0.00024702
     atom   40 type  2   force =     0.00025673   -0.00036902   -0.00013371
     atom   41 type  2   force =    -0.00009794   -0.00004885   -0.00011861
     atom   42 type  2   force =     0.00011717   -0.00015801   -0.00016938
     atom   43 type  2   force =     0.00042237   -0.00053761    0.00011391
     atom   44 type  2   force =     0.00008495   -0.00019712   -0.00004937
     atom   45 type  2   force =     0.00008810   -0.00048872    0.00012335
     atom   46 type  2   force =    -0.00013475   -0.00047676   -0.00008789
     atom   47 type  2   force =     0.00018413    0.00006602    0.00084347
     atom   48 type  2   force =    -0.00063146   -0.00059489   -0.00024779
     atom   49 type  2   force =    -0.00028005   -0.00053337   -0.00007706
     atom   50 type  2   force =    -0.00025513   -0.00010064    0.00041116
     atom   51 type  2   force =     0.00020192   -0.00004811    0.00025124
     atom   52 type  2   force =    -0.00014920   -0.00018825   -0.00015622
     atom   53 type  2   force =    -0.00007031   -0.00019775    0.00012189
     atom   54 type  2   force =     0.00004431   -0.00006149   -0.00003923
     atom   55 type  2   force =    -0.00009224    0.00002844   -0.00035354
     atom   56 type  2   force =     0.00009747   -0.00028959   -0.00015800
     atom   57 type  3   force =     0.00094336    0.00019011    0.00047110
     atom   58 type  3   force =     0.00050858   -0.00022371    0.00012521
     atom   59 type  3   force =    -0.00009111   -0.00006874   -0.00004683
     atom   60 type  3   force =    -0.00003487    0.00032562    0.00003341
     atom   61 type  3   force =     0.00038189    0.00052794    0.00004334
     atom   62 type  3   force =     0.00022771    0.00008548    0.00002246
     atom   63 type  3   force =    -0.00011278   -0.00039548   -0.00010513
     atom   64 type  3   force =    -0.00070774   -0.00019630   -0.00036237
     atom   65 type  3   force =     0.00052547    0.00038214    0.00042767
     atom   66 type  3   force =     0.00004578    0.00028877   -0.00000627
     atom   67 type  3   force =    -0.00014422   -0.00011559    0.00047582
     atom   68 type  3   force =     0.00008843   -0.00002614   -0.00008768
     atom   69 type  3   force =     0.00059654    0.00009785    0.00093504
     atom   70 type  3   force =    -0.00063327   -0.00023447   -0.00027622
     atom   71 type  3   force =     0.00026148   -0.00027826    0.00016476
     atom   72 type  3   force =    -0.00014130    0.00002332    0.00015515
     atom   73 type  3   force =    -0.00022684    0.00006159   -0.00003267
     atom   74 type  3   force =     0.00050360   -0.00047181   -0.00034806
     atom   75 type  3   force =     0.00018227    0.00035113    0.00004701
     atom   76 type  3   force =    -0.00031632    0.00045244    0.00000922
     atom   77 type  3   force =     0.00015527    0.00036840   -0.00076955
     atom   78 type  3   force =    -0.00011128    0.00010336   -0.00024802
     atom   79 type  3   force =     0.00015527   -0.00015376   -0.00065042
     atom   80 type  3   force =     0.00012930   -0.00038437    0.00047928
     atom   81 type  4   force =     0.00006997    0.00000163    0.00011459
     atom   82 type  4   force =     0.00036640   -0.00010504    0.00004871
     atom   83 type  4   force =     0.00003274   -0.00013549    0.00024518
     atom   84 type  4   force =    -0.00008625    0.00055040   -0.00033054
     atom   85 type  4   force =    -0.00046667    0.00019789   -0.00038857
     atom   86 type  4   force =     0.00007565    0.00030575   -0.00020980
     atom   87 type  4   force =     0.00015441    0.00034739   -0.00015983
     atom   88 type  4   force =    -0.00002955   -0.00003848   -0.00028448
     atom   89 type  5   force =    -0.00072719    0.00021607   -0.00088178
     atom   90 type  5   force =    -0.00083119    0.00009511    0.00031126
     atom   91 type  5   force =     0.00031462   -0.00048756   -0.00033981
     atom   92 type  5   force =    -0.00012503    0.00041185   -0.00043793
     atom   93 type  6   force =     0.00012348    0.00052877    0.00001643
     atom   94 type  6   force =     0.00025168   -0.00011224   -0.00003989
     atom   95 type  6   force =     0.00018621    0.00038172   -0.00084956
     atom   96 type  6   force =     0.00035848   -0.00010222   -0.00012545
     atom   97 type  6   force =     0.00003498   -0.00028313   -0.00008531
     atom   98 type  6   force =    -0.00006567    0.00031024   -0.00000324
     atom   99 type  6   force =     0.00000848    0.00038736   -0.00030728
     atom  100 type  6   force =     0.00011616    0.00057013   -0.00039808
     atom  101 type  6   force =     0.00020699    0.00003775    0.00005160
     atom  102 type  6   force =    -0.00005491    0.00041778    0.00042056
     atom  103 type  6   force =    -0.00010596   -0.00033468   -0.00044073
     atom  104 type  6   force =    -0.00031448    0.00067665    0.00052872
     atom  105 type  6   force =    -0.00029756   -0.00030854   -0.00027195
     atom  106 type  6   force =     0.00037343   -0.00058919   -0.00000478
     atom  107 type  6   force =    -0.00031142    0.00036804    0.00026391
     atom  108 type  6   force =    -0.00006869   -0.00027908   -0.00064877

     Total force =     0.005890     Total SCF correction =     0.000173

     bfgs converged in  95 scf cycles and  94 bfgs steps
     (criteria: energy <  1.0E-04 Ry, force <  1.0E-03 Ry/Bohr)

     End of BFGS Geometry Optimization

     Final energy   =   -1916.9065161114 Ry
Begin final coordinates

ATOMIC_POSITIONS (crystal)
Br            0.5963135629       -0.0361785866        0.5892075595
Br            0.3157037792        0.9324735323        0.2331587642
Br            0.9420638893        0.4221016092        0.7418320324
Br            0.2162924158        0.6040088280        0.2481954945
Br            0.0304178475        0.1018823861        0.7462898353
Br            0.4288690045        1.0234262335        0.8977450679
Br            0.8158114038        0.5053804817        0.4212538279
Br            0.6541814387        0.4929297218        0.1030445501
C             0.2655794221        1.0126770616        0.5563028788
C             0.0248163881       -0.0002848970        0.0450571910
C             0.3757715164        0.0297940412        0.5461745489
C             0.1281538722        0.9583540533        0.0627513946
C             0.4455899881        0.9513868859        0.5968836464
C             0.1926290904        0.0041581823        0.1625612746
C             0.2216243033        0.4997426157        0.5488153545
C             0.4116963849        0.4376255708       -0.0105874514
C             0.2487709290        0.5951951078        0.6104330608
C             0.4503801434        0.3572562927        0.0718767126
C             0.2294530986        0.9225325296        0.6221823640
C            -0.0043005620        0.0930359234        0.1086224340
C             0.4048671128        0.8622525096        0.6623790836
C             0.1600229362        0.0990973802        0.2229942395
C             0.0885327222        0.5955022115        0.7250069552
C             0.3421358604        0.4147945341        0.2403801727
C             0.0584444724        0.4979044649        0.6673957524
C             0.3046644922        0.5008283426        0.1650313112
C             0.1211729431        0.4536346146        0.5682208984
C             0.3403438398        0.5131735028        0.0371279874
C             0.4162674673        0.1258552651        0.4807939987
C             0.1681898401        0.8794315134        0.9702056679
C             0.0818977308        0.3716320159        0.4768285438
C             0.3045033498        0.6017221424        0.9534952705
C             0.8434258200        0.9234401139        0.4796032006
C             0.5246829157        0.0451905529        0.0394885394
C             0.9110763858        0.0026892140        0.5303996748
C             0.6281407603        1.0016871784        0.0526091911
C             0.9441060432        0.9953125781        0.6616638336
C             0.6931834676        0.0389862626        0.1562740962
C             0.7190064276        0.5353831019        0.5543291339
C             0.9857712327        0.5130151983        0.0625699177
C             0.7563001376        0.6103336094        0.6451357411
C             1.0174494529        0.4201488026        0.1286263094
C             0.8050284517        0.8444098950        0.5621846204
C             0.4886142537        0.1178645424        0.1318694646
C             0.9054116568        0.9118509654        0.7380572950
C             0.6544560660        0.1156463685        0.2422008653
C             0.5891108842        0.6168740421        0.7431963004
C             0.8398209024        0.3728210174        0.1680766022
C             0.5495005506        0.5371748502        0.6600068809
C             0.8036569399        0.4662472386        0.1050693042
C             0.6142287399        0.4951682490        0.5622669256
C             0.8769467976        0.5388912523        0.0528936796
C             0.9456715978        0.0914376417        0.4480630215
C             0.6705107841        0.9192338478        0.9657076169
C             0.5711943127        0.4117432942        0.4752969850
C             0.8404690916        0.6369145861        0.9850691183
H             0.2086271774        1.0685268935        0.5166376969
H             0.2781981727        0.4631673680        0.4866730413
H             0.0452399242        0.5644659195        1.0224867012
H             0.3240000910        0.6341169829        0.5944171562
H             0.1001193884        0.3985705527        0.1415929030
H             0.1459546516        0.9069791132        0.6352632741
H             0.4088741065        0.1495093693        0.1270469831
H             0.4567311165        0.8043840095        0.7088645313
H             0.2083347918        0.1383753656        0.2960349700
H             0.0409825994        0.6338214069        0.7971167512
H             0.3131222512        0.3984454246        0.3349186272
H             0.4690208805        0.5090442808        0.6706138721
H             0.8176535927        0.9248634488        0.3789821956
H             0.9671633501       -0.0386677566        0.9831916166
H             0.7730748583        1.0090959606        0.1700592003
H             0.4401827392        0.4432404272        0.8916864878
H             0.8371653107        0.6390183021        0.6449508420
H             0.5093258855        0.3015838964        0.0396502926
H             0.7498156739        0.7849029945        0.5269111476
H             0.9181445239        0.1285719063        0.0934892006
H             0.9311299143        0.8998447254        0.8361780028
H             0.7017728894        0.1462207923        0.3221644254
H             0.5419332358        0.6518940321        0.8180115974
H             0.7851326531        0.3177874880        0.2120712189
N             0.2984401141        0.8510573108        0.6774896842
N             0.0637980604        0.1431023330        0.1922972196
N             0.1813471894        0.6435343650        0.6929100735
N             0.4185141993        0.3484137638        0.1965422669
N             0.8316518199        0.8424614707        0.6908301670
N             0.5537473193        0.1542235771        0.2277299373
N             0.6906822615        0.6530989245        0.7329098371
N             0.9456571538        0.3529277083        0.1828785745
Ni            0.2456039586        0.7527652834        0.8131927131
Ni            0.4962139580        0.2657355281        0.3404658534
Ni            0.7479459797        0.7725530729        0.8361897805
Ni            0.9982410877        0.2468894041        0.3153029733
O             0.1394121262        0.3338775852        0.3859812796
O             0.3654348416        0.6420520951        0.8670233828
O             0.3589936383        0.1780684162        0.3971887290
O             0.1098992559        0.8407801266        0.8769624463
O             0.4716388004        0.3856606847        0.4770324285
O             0.2104805433        0.6405716326        0.9633264410
O             0.0402687163        0.1289481666        0.4598607441
O             0.2675306001        0.8507771844        0.9716539623
O             0.6286808710        0.3592320010        0.3942711546
O             0.8968735066        0.6839528937        0.9003267023
O             0.8822226065        0.1343624317        0.3628329133
O             0.6113526967        0.8598303916        0.8910719247
O             0.9831654756        0.3402436182        0.4764937221
O             0.7461983743        0.6756546027        1.0036784560
O             0.5127308620        0.1591777032        0.4996999886
O             0.7717988498        0.9011893476        0.9633841698
End final coordinates



     Writing output data file /nfs/hpc/share/gantzlen/NiPyC2_relax_sc211_meta_functionalized_Br_vdw-df2_relax.save/
 
     init_run     :     48.52s CPU     50.05s WALL (       1 calls)
     electrons    : 101364.58s CPU 107983.49s WALL (      95 calls)
     update_pot   :   1140.17s CPU   1200.89s WALL (      94 calls)
     forces       :   2138.32s CPU   2208.35s WALL (      95 calls)

     Called by init_run:
     wfcinit      :     33.21s CPU     33.98s WALL (       1 calls)
     potinit      :     10.74s CPU     11.36s WALL (       1 calls)
     hinit0       :      3.75s CPU      3.88s WALL (       1 calls)

     Called by electrons:
     c_bands      :  89638.40s CPU  95305.57s WALL (    1205 calls)
     sum_band     :   4618.09s CPU   4896.41s WALL (    1205 calls)
     v_of_rho     :   6232.66s CPU   6774.23s WALL (    1288 calls)
     mix_rho      :   1267.56s CPU   1387.49s WALL (    1205 calls)
     vdW_kernel   :      2.97s CPU      3.04s WALL (       1 calls)

     Called by c_bands:
     init_us_2    :     69.63s CPU     70.67s WALL (    2411 calls)
     regterg      :  88879.80s CPU  90604.68s WALL (    1205 calls)

     Called by sum_band:

     Called by *egterg:
     h_psi        :  34542.93s CPU  35762.22s WALL (    4933 calls)
     g_psi        :     22.77s CPU     23.12s WALL (    3727 calls)
     rdiaghg      :   2530.68s CPU   2555.97s WALL (    4826 calls)

     Called by h_psi:
     h_psi:calbec :   9142.93s CPU   9181.71s WALL (    4933 calls)
     vloc_psi     :  16338.29s CPU  17493.56s WALL (    4933 calls)
     add_vuspsi   :   8970.73s CPU   8994.59s WALL (    4933 calls)

     General routines
     calbec       :  10323.81s CPU  10369.01s WALL (    5313 calls)
     fft          :   4612.99s CPU   5067.09s WALL (  108900 calls)
     ffts         :    895.92s CPU    971.60s WALL (   21084 calls)
     fftw         :  17335.44s CPU  18675.80s WALL (  954375 calls)
 
     Parallel routines
     fft_scatt_xy :   3526.29s CPU   3609.39s WALL ( 1084359 calls)
     fft_scatt_yz :   4150.86s CPU   5637.05s WALL ( 1084359 calls)
 
     PWSCF        :   1d 5h 5m CPU   1d 6h58m WALL

 
   This run was terminated on:  18:43: 0  30Jul2020            

=------------------------------------------------------------------------------=
   JOB DONE.
=------------------------------------------------------------------------------=
QE finished Thu Jul 30 18:43:00 PDT 2020
