/apps/openmpi/3.1_intel-19/bin/mpiexec
/apps/qe/6.5/bin/pw.x
starting QE Wed Jul 29 11:44:54 PDT 2020

     Program PWSCF v.6.5 starts on 29Jul2020 at 11:44:56 

     This program is part of the open-source Quantum ESPRESSO suite
     for quantum simulation of materials; please cite
         "P. Giannozzi et al., J. Phys.:Condens. Matter 21 395502 (2009);
         "P. Giannozzi et al., J. Phys.:Condens. Matter 29 465901 (2017);
          URL http://www.quantum-espresso.org", 
     in publications or presentations arising from this work. More details at
     http://www.quantum-espresso.org/quote

     Parallel version (MPI & OpenMP), running on      16 processor cores
     Number of MPI processes:                16
     Threads/MPI process:                     1

     MPI processes distributed on     1 nodes
     K-points division:     npool     =       2
     R & G space division:  proc/nbgrp/npool/nimage =       8
     Reading input from ./QE_input_scripts/pw.NiPyC2_relax_sc211_meta_functionalized_C-N_vdw-df2_relax.in
Warning: card &CELL ignored
Warning: card    CELL_DYNAMICS = 'BFGS' ignored
Warning: card    CELL_DOFREE = 'XYZ' ignored
Warning: card / ignored

     Current dimensions of program PWSCF are:
     Max number of different atomic species (ntypx) = 10
     Max number of k-points (npk) =  40000
     Max angular momentum in pseudopotentials (lmaxx) =  3

     IMPORTANT: XC functional enforced from input :
     Exchange-correlation= VDW-DF2
                           (   1   4  13   0   2   0   0)
     Any further DFT definition will be discarded
     Please, verify this is what you really want


     -------------------------------------------------
     Parameters for Dispersion (Grimme-D2) Correction:
     -------------------------------------------------
       atom      VdW radius       C_6     

        C          2.744         60.710
        H          1.892          4.857
        N          2.640         42.670
        Ni         2.952        374.666
        O          2.536         24.284

     gamma-point specific algorithms are used

     Subspace diagonalization in iterative solution of the eigenvalue problem:
     a serial algorithm will be used

     Found symmetry operation: I + ( -0.5000  0.0000  0.0000)
     This is a supercell, fractional translations are disabled
 
     Parallelization info
     --------------------
     sticks:   dense  smooth     PW     G-vecs:    dense   smooth      PW
     Min        2228    2228    556               183376   183376   22914
     Max        2230    2230    558               183380   183380   22917
     Sum       17829   17829   4453              1467017  1467017  183325
 


     bravais-lattice index     =            0
     lattice parameter (alat)  =      23.6322  a.u.
     unit-cell volume          =   10858.6228 (a.u.)^3
     number of atoms/cell      =          116
     number of atomic types    =            5
     number of electrons       =       464.00 (up: 236.00, down: 228.00)
     number of Kohn-Sham states=          283
     kinetic-energy cutoff     =     100.0000  Ry
     charge density cutoff     =     400.0000  Ry
     convergence threshold     =      1.0E-06
     mixing beta               =       0.7000
     number of iterations used =            8  local-TF  mixing
     Exchange-correlation= VDW-DF2
                           (   1   4  13   0   2   0   0)
     nstep                     =          200


     celldm(1)=  23.632159  celldm(2)=   0.000000  celldm(3)=   0.000000
     celldm(4)=   0.000000  celldm(5)=   0.000000  celldm(6)=   0.000000

     crystal axes: (cart. coord. in units of alat)
               a(1) = (   1.000000   0.000000   0.000000 )  
               a(2) = (   0.000000   1.001423   0.000000 )  
               a(3) = (  -0.018199   0.000000   0.821574 )  

     reciprocal axes: (cart. coord. in units 2 pi/alat)
               b(1) = (  1.000000  0.000000  0.022152 )  
               b(2) = (  0.000000  0.998579  0.000000 )  
               b(3) = (  0.000000  0.000000  1.217175 )  


     PseudoPot. # 1 for C  read from file:
     ./pseudo/C.pbesol-nc.UPF
     MD5 check sum: ce26087537ded160c8d400e183a8bf42
     Pseudo is Norm-conserving, Zval =  4.0
     Generated using "atomic" code by A. Dal Corso v.6.5
     Using radial grid of 1073 points,  1 beta functions with: 
                l(1) =   1

     PseudoPot. # 2 for H  read from file:
     ./pseudo/H.pbesol-n-nc.UPF
     MD5 check sum: 7995ef24074557c85b430109caaacc09
     Pseudo is Norm-conserving, Zval =  1.0
     Generated using "atomic" code by A. Dal Corso v.6.5
     Using radial grid of  929 points,  0 beta functions with: 

     PseudoPot. # 3 for N  read from file:
     ./pseudo/N.pbesol-nc.UPF
     MD5 check sum: e18cc5e4b8a5600c1a19b30c2cab1ca0
     Pseudo is Norm-conserving, Zval =  5.0
     Generated using "atomic" code by A. Dal Corso v.6.5
     Using radial grid of 1085 points,  1 beta functions with: 
                l(1) =   1

     PseudoPot. # 4 for Ni read from file:
     ./pseudo/Ni.pbesol-n-nc.UPF
     MD5 check sum: 623411631e0c2eb7c0b2b9815547d2d9
     Pseudo is Norm-conserving + core correction, Zval = 10.0
     Generated using "atomic" code by A. Dal Corso v.6.5
     Using radial grid of 1195 points,  2 beta functions with: 
                l(1) =   1
                l(2) =   2

     PseudoPot. # 5 for O  read from file:
     ./pseudo/O.pbesol-nc.UPF
     MD5 check sum: 73d10e7e91dbfcbe8a7e362101007f84
     Pseudo is Norm-conserving, Zval =  6.0
     Generated using "atomic" code by A. Dal Corso v.6.5
     Using radial grid of 1095 points,  1 beta functions with: 
                l(1) =   1

     atomic species   valence    mass     pseudopotential
        C              4.00    12.01070     C ( 1.00)
        H              1.00     1.00794     H ( 1.00)
        N              5.00    14.00670     N ( 1.00)
        Ni            10.00    58.69340     Ni( 1.00)
        O              6.00    15.99940     O ( 1.00)

     Starting magnetic structure 
     atomic species   magnetization
        C            0.000
        H            0.000
        N            0.000
        Ni           0.250
        O            0.000

     No symmetry found



   Cartesian axes

     site n.     atom                  positions (alat units)
         1           C   tau(   1) = (   0.2787122   0.9714307   0.4288486  )
         2           C   tau(   2) = (   0.0379730   0.0311503   0.0183277  )
         3           C   tau(   3) = (   0.3806882   0.0117868   0.4489838  )
         4           C   tau(   4) = (   0.1394042   0.9891499   0.0379124  )
         5           C   tau(   5) = (   0.4400787   0.9715829   0.5343281  )
         6           C   tau(   6) = (   0.1997920   0.0283934   0.1231482  )
         7           C   tau(   7) = (   0.1986011   0.5304580   0.4324635  )
         8           C   tau(   8) = (   0.4580372   0.4720800   0.0229252  )
         9           C   tau(   9) = (   0.2341003   0.6142040   0.4982314  )
        10           C   tau(  10) = (   0.4948422   0.3892302   0.0892369  )
        11           C   tau(  11) = (   0.2384981   0.8904717   0.4955761  )
        12           C   tau(  12) = (  -0.0008282   0.1123917   0.0856467  )
        13           C   tau(  13) = (   0.3947360   0.8906489   0.5977380  )
        14           C   tau(  14) = (   0.1557890   0.1097029   0.1871645  )
        15           C   tau(  15) = (   0.0756247   0.6098498   0.5975737  )
        16           C   tau(  16) = (   0.3367152   0.3921904   0.1884642  )
        17           C   tau(  17) = (   0.0350715   0.5258264   0.5351012  )
        18           C   tau(  18) = (   0.2948780   0.4753867   0.1254988  )
        19           C   tau(  19) = (   0.0981522   0.4849593   0.4519611  )
        20           C   tau(  20) = (   0.3569104   0.5163900   0.0416029  )
        21           C   tau(  21) = (   0.4248178   0.0994604   0.3833638  )
        22           C   tau(  22) = (   0.1639424   0.9010006   0.7933713  )
        23           C   tau(  23) = (   0.0588120   0.3950355   0.3866953  )
        24           C   tau(  24) = (   0.2984059   0.6050320   0.7961934  )
        25           C   tau(  25) = (   0.7787122   0.9714307   0.4288486  )
        26           C   tau(  26) = (   0.5379730   0.0311503   0.0183277  )
        27           C   tau(  27) = (   0.8806882   0.0117868   0.4489838  )
        28           C   tau(  28) = (   0.6394042   0.9891499   0.0379124  )
        29           C   tau(  29) = (   0.9400787   0.9715829   0.5343281  )
        30           C   tau(  30) = (   0.6997920   0.0283934   0.1231482  )
        31           C   tau(  31) = (   0.6986021   0.5304580   0.4324635  )
        32           C   tau(  32) = (   0.9580382   0.4720800   0.0229252  )
        33           C   tau(  33) = (   0.7341003   0.6142040   0.4982314  )
        34           C   tau(  34) = (   0.9948422   0.3892302   0.0892369  )
        35           C   tau(  35) = (   0.7384981   0.8904717   0.4955761  )
        36           C   tau(  36) = (   0.4991718   0.1123917   0.0856467  )
        37           C   tau(  37) = (   0.8947360   0.8906489   0.5977380  )
        38           C   tau(  38) = (   0.6557880   0.1097029   0.1871645  )
        39           C   tau(  39) = (   0.5756247   0.6098498   0.5975737  )
        40           C   tau(  40) = (   0.8367152   0.3921904   0.1884642  )
        41           C   tau(  41) = (   0.5350715   0.5258264   0.5351012  )
        42           C   tau(  42) = (   0.7948780   0.4753867   0.1254988  )
        43           C   tau(  43) = (   0.5981522   0.4849593   0.4519611  )
        44           C   tau(  44) = (   0.8569104   0.5163900   0.0416029  )
        45           C   tau(  45) = (   0.9248178   0.0994604   0.3833638  )
        46           C   tau(  46) = (   0.6639424   0.9010006   0.7933713  )
        47           C   tau(  47) = (   0.5588110   0.3950355   0.3866953  )
        48           C   tau(  48) = (   0.7984059   0.6050320   0.7961934  )
        49           C   tau(  49) = (   0.5464825   0.0063120   0.5609265  )
        50           C   tau(  50) = (   0.3058921   0.9922874   0.1490114  )
        51           C   tau(  51) = (   0.9297415   0.4857745   0.5601115  )
        52           C   tau(  52) = (   0.5094807   0.5076495   0.7592274  )
        53           C   tau(  53) = (   0.0464825   0.0063120   0.5609265  )
        54           C   tau(  54) = (   0.8058921   0.9922884   0.1490122  )
        55           C   tau(  55) = (   0.4297415   0.4857745   0.5601115  )
        56           C   tau(  56) = (   0.0094817   0.5076495   0.7592283  )
        57           H   tau(  57) = (   0.2290596   1.0009978   0.3640502  )
        58           H   tau(  58) = (   0.4693669   0.0026958   0.7751545  )
        59           H   tau(  59) = (   0.2505234   0.5016080   0.3691185  )
        60           H   tau(  60) = (   0.3118554   0.6514319   0.4868937  )
        61           H   tau(  61) = (   0.0732386   0.3533532   0.0780726  )
        62           H   tau(  62) = (   0.1594426   0.8563401   0.4835457  )
        63           H   tau(  63) = (   0.4206861   0.1479423   0.0738480  )
        64           H   tau(  64) = (   0.4386511   0.8563902   0.6644572  )
        65           H   tau(  65) = (   0.2006191   0.1433067   0.2536997  )
        66           H   tau(  66) = (   0.0290492   0.6438591   0.6626884  )
        67           H   tau(  67) = (   0.2907535   0.3580349   0.2539083  )
        68           H   tau(  68) = (   0.2157623   0.5059201   0.1439924  )
        69           H   tau(  69) = (   0.7290596   1.0009978   0.3640502  )
        70           H   tau(  70) = (   0.9693669   0.0026958   0.7751545  )
        71           H   tau(  71) = (   0.7505234   0.5016080   0.3691185  )
        72           H   tau(  72) = (   0.8118554   0.6514319   0.4868937  )
        73           H   tau(  73) = (   0.5732386   0.3533532   0.0780726  )
        74           H   tau(  74) = (   0.6594426   0.8563401   0.4835457  )
        75           H   tau(  75) = (   0.9206861   0.1479423   0.0738480  )
        76           H   tau(  76) = (   0.9386511   0.8563902   0.6644572  )
        77           H   tau(  77) = (   0.7006201   0.1433067   0.2536997  )
        78           H   tau(  78) = (   0.5290492   0.6438591   0.6626884  )
        79           H   tau(  79) = (   0.7907535   0.3580349   0.2539083  )
        80           H   tau(  80) = (   0.7157623   0.5059201   0.1439924  )
        81           N   tau(  81) = (   0.2956096   0.8524646   0.5790685  )
        82           N   tau(  82) = (   0.0569790   0.1490689   0.1692870  )
        83           N   tau(  83) = (   0.1736962   0.6512356   0.5798983  )
        84           N   tau(  84) = (   0.4350238   0.3514275   0.1709211  )
        85           N   tau(  85) = (   0.7956096   0.8524646   0.5790685  )
        86           N   tau(  86) = (   0.5569790   0.1490689   0.1692870  )
        87           N   tau(  87) = (   0.6736972   0.6512356   0.5798983  )
        88           N   tau(  88) = (   0.9350238   0.3514275   0.1709211  )
        89           N   tau(  89) = (   0.6317623   0.0352902   0.5822406  )
        90           N   tau(  90) = (   0.3909349   0.9622056   0.1697413  )
        91           N   tau(  91) = (   0.8452806   0.4536858   0.5801957  )
        92           N   tau(  92) = (   0.5652007   0.5360970   0.6910154  )
        93           N   tau(  93) = (   0.1317623   0.0352902   0.5822406  )
        94           N   tau(  94) = (   0.8909349   0.9622076   0.1697413  )
        95           N   tau(  95) = (   0.3452806   0.4536858   0.5801957  )
        96           N   tau(  96) = (   0.0652017   0.5360980   0.6910162  )
        97           Ni  tau(  97) = (   0.2317814   0.7525556   0.6871039  )
        98           Ni  tau(  98) = (   0.4937992   0.2483520   0.2786599  )
        99           Ni  tau(  99) = (   0.7317814   0.7525556   0.6871039  )
       100           Ni  tau( 100) = (   0.9937992   0.2483520   0.2786599  )
       101           O   tau( 101) = (   0.1158100   0.3481839   0.3145586  )
       102           O   tau( 102) = (   0.3551690   0.6519036   0.7240468  )
       103           O   tau( 103) = (   0.3707656   0.1477170   0.3098797  )
       104           O   tau( 104) = (   0.1091506   0.8535652   0.7199135  )
       105           O   tau( 105) = (   0.4642788   0.3566669   0.3968154  )
       106           O   tau( 106) = (   0.2033039   0.6423280   0.8050417  )
       107           O   tau( 107) = (   0.0200847   0.1353504   0.3952413  )
       108           O   tau( 108) = (   0.2588616   0.8639860   0.8046490  )
       109           O   tau( 109) = (   0.6158110   0.3481839   0.3145586  )
       110           O   tau( 110) = (   0.8551690   0.6519036   0.7240468  )
       111           O   tau( 111) = (   0.8707656   0.1477170   0.3098797  )
       112           O   tau( 112) = (   0.6091506   0.8535652   0.7199135  )
       113           O   tau( 113) = (   0.9642788   0.3566669   0.3968154  )
       114           O   tau( 114) = (   0.7033039   0.6423280   0.8050417  )
       115           O   tau( 115) = (   0.5200847   0.1353504   0.3952413  )
       116           O   tau( 116) = (   0.7588616   0.8639860   0.8046490  )

     number of k points=     1  Marzari-Vanderbilt smearing, width (Ry)=  0.2000
                       cart. coord. in units 2pi/alat
        k(    1) = (   0.0000000   0.0000000   0.0000000), wk =   1.0000000

     Dense  grid:   733509 G-vectors     FFT dimensions: ( 160, 160, 125)

     Estimated max dynamical RAM per process >     652.47 MB

     Estimated total dynamical RAM >      10.19 GB
     Generating pointlists ...
     new r_m :   0.0358 (alat units)  0.8461 (a.u.) for type    1
     new r_m :   0.0358 (alat units)  0.8461 (a.u.) for type    2
     new r_m :   0.0382 (alat units)  0.9023 (a.u.) for type    3
     new r_m :   0.0654 (alat units)  1.5454 (a.u.) for type    4
     new r_m :   0.0423 (alat units)  0.9991 (a.u.) for type    5

     Check: negative core charge=   -0.000145

     Initial potential from superposition of free atoms

     starting charge  463.99639, renormalised to  464.00000


     %%%%%%%%%%%%%%%%%%%%%%%%%%%%%%%%%%%%%%%%%%%%%%%%%%%%%%%%%%%%%%%%%%%%%%%%
     %                                                                      %
     % You are using vdW-DF, which was implemented by the Thonhauser group. %
     % Please cite the following two papers that made this development      %
     % possible and the two reviews that describe the various versions:     %
     %                                                                      %
     %   T. Thonhauser et al., PRL 115, 136402 (2015).                      %
     %   T. Thonhauser et al., PRB 76, 125112 (2007).                       %
     %   K. Berland et al., Rep. Prog. Phys. 78, 066501 (2015).             %
     %   D.C. Langreth et al., J. Phys.: Condens. Matter 21, 084203 (2009). %
     %                                                                      %
     %                                                                      %
     % If you are calculating the stress with vdW-DF, please also cite:     %
     %                                                                      %
     %   R. Sabatini et al., J. Phys.: Condens. Matter 24, 424209 (2012).   %
     %                                                                      %
     %%%%%%%%%%%%%%%%%%%%%%%%%%%%%%%%%%%%%%%%%%%%%%%%%%%%%%%%%%%%%%%%%%%%%%%%


     Starting wfcs are  412 randomized atomic wfcs

     total cpu time spent up to now is      108.7 secs

     Self-consistent Calculation

     iteration #  1     ecut=   100.00 Ry     beta= 0.70
     Davidson diagonalization with overlap
     ethr =  1.00E-02,  avg # of iterations =  6.0

     total cpu time spent up to now is      352.8 secs

     total energy              =   -1880.18604988 Ry
     Harris-Foulkes estimate   =   -1891.64355787 Ry
     estimated scf accuracy    <      29.03086509 Ry

     total magnetization       =     8.00 Bohr mag/cell
     absolute magnetization    =     9.10 Bohr mag/cell

     iteration #  2     ecut=   100.00 Ry     beta= 0.70
     Davidson diagonalization with overlap
     ethr =  6.26E-03,  avg # of iterations =  2.0

     total cpu time spent up to now is      515.3 secs

     total energy              =   -1885.46753505 Ry
     Harris-Foulkes estimate   =   -1890.39928198 Ry
     estimated scf accuracy    <      21.77763128 Ry

     total magnetization       =     8.00 Bohr mag/cell
     absolute magnetization    =     8.20 Bohr mag/cell

     iteration #  3     ecut=   100.00 Ry     beta= 0.70
     Davidson diagonalization with overlap
     ethr =  4.69E-03,  avg # of iterations =  1.5

     total cpu time spent up to now is      661.9 secs

     total energy              =   -1884.87302270 Ry
     Harris-Foulkes estimate   =   -1886.36648327 Ry
     estimated scf accuracy    <       5.41498332 Ry

     total magnetization       =     8.00 Bohr mag/cell
     absolute magnetization    =     8.20 Bohr mag/cell

     iteration #  4     ecut=   100.00 Ry     beta= 0.70
     Davidson diagonalization with overlap
     ethr =  1.17E-03,  avg # of iterations =  5.5

     total cpu time spent up to now is      825.8 secs

     total energy              =   -1885.00286059 Ry
     Harris-Foulkes estimate   =   -1886.38455761 Ry
     estimated scf accuracy    <      12.74161666 Ry

     total magnetization       =     8.00 Bohr mag/cell
     absolute magnetization    =     8.25 Bohr mag/cell

     iteration #  5     ecut=   100.00 Ry     beta= 0.70
     Davidson diagonalization with overlap
     ethr =  1.17E-03,  avg # of iterations =  2.0

     total cpu time spent up to now is      973.3 secs

     total energy              =   -1885.52776473 Ry
     Harris-Foulkes estimate   =   -1885.60284681 Ry
     estimated scf accuracy    <       0.25299790 Ry

     total magnetization       =     8.00 Bohr mag/cell
     absolute magnetization    =     8.26 Bohr mag/cell

     iteration #  6     ecut=   100.00 Ry     beta= 0.70
     Davidson diagonalization with overlap
     ethr =  5.45E-05,  avg # of iterations =  6.5

     total cpu time spent up to now is     1180.0 secs

     total energy              =   -1885.55027046 Ry
     Harris-Foulkes estimate   =   -1885.58685203 Ry
     estimated scf accuracy    <       0.79534784 Ry

     total magnetization       =     8.00 Bohr mag/cell
     absolute magnetization    =     8.27 Bohr mag/cell

     iteration #  7     ecut=   100.00 Ry     beta= 0.70
     Davidson diagonalization with overlap
     ethr =  5.45E-05,  avg # of iterations =  1.0

     total cpu time spent up to now is     1326.2 secs

     total energy              =   -1885.49376701 Ry
     Harris-Foulkes estimate   =   -1885.57001691 Ry
     estimated scf accuracy    <       0.58978693 Ry

     total magnetization       =     8.00 Bohr mag/cell
     absolute magnetization    =     8.27 Bohr mag/cell

     iteration #  8     ecut=   100.00 Ry     beta= 0.70
     Davidson diagonalization with overlap
     ethr =  5.45E-05,  avg # of iterations =  1.5

     total cpu time spent up to now is     1472.0 secs

     total energy              =   -1885.51533537 Ry
     Harris-Foulkes estimate   =   -1885.52449502 Ry
     estimated scf accuracy    <       0.03863020 Ry

     total magnetization       =     8.00 Bohr mag/cell
     absolute magnetization    =     8.28 Bohr mag/cell

     iteration #  9     ecut=   100.00 Ry     beta= 0.70
     Davidson diagonalization with overlap
     ethr =  8.33E-06,  avg # of iterations =  5.5

     total cpu time spent up to now is     1647.9 secs

     total energy              =   -1885.49861023 Ry
     Harris-Foulkes estimate   =   -1885.52268543 Ry
     estimated scf accuracy    <       0.14583855 Ry

     total magnetization       =     8.00 Bohr mag/cell
     absolute magnetization    =     8.28 Bohr mag/cell

     iteration # 10     ecut=   100.00 Ry     beta= 0.70
     Davidson diagonalization with overlap
     ethr =  8.33E-06,  avg # of iterations =  3.5

     total cpu time spent up to now is     1803.3 secs

     total energy              =   -1885.51071659 Ry
     Harris-Foulkes estimate   =   -1885.51323426 Ry
     estimated scf accuracy    <       0.04404654 Ry

     total magnetization       =     8.00 Bohr mag/cell
     absolute magnetization    =     8.27 Bohr mag/cell

     iteration # 11     ecut=   100.00 Ry     beta= 0.70
     Davidson diagonalization with overlap
     ethr =  8.33E-06,  avg # of iterations =  1.0

     total cpu time spent up to now is     1947.5 secs

     total energy              =   -1885.50807975 Ry
     Harris-Foulkes estimate   =   -1885.51265946 Ry
     estimated scf accuracy    <       0.03998278 Ry

     total magnetization       =     8.00 Bohr mag/cell
     absolute magnetization    =     8.26 Bohr mag/cell

     iteration # 12     ecut=   100.00 Ry     beta= 0.70
     Davidson diagonalization with overlap
     ethr =  8.33E-06,  avg # of iterations =  2.0

     total cpu time spent up to now is     2094.3 secs

     total energy              =   -1885.50983031 Ry
     Harris-Foulkes estimate   =   -1885.51009940 Ry
     estimated scf accuracy    <       0.00231283 Ry

     total magnetization       =     8.00 Bohr mag/cell
     absolute magnetization    =     8.26 Bohr mag/cell

     iteration # 13     ecut=   100.00 Ry     beta= 0.70
     Davidson diagonalization with overlap
     ethr =  4.98E-07,  avg # of iterations =  8.0

     total cpu time spent up to now is     2272.6 secs

     total energy              =   -1885.51004160 Ry
     Harris-Foulkes estimate   =   -1885.50998640 Ry
     estimated scf accuracy    <       0.00102708 Ry

     total magnetization       =     8.00 Bohr mag/cell
     absolute magnetization    =     8.25 Bohr mag/cell

     iteration # 14     ecut=   100.00 Ry     beta= 0.70
     Davidson diagonalization with overlap
     ethr =  2.21E-07,  avg # of iterations =  4.0

     total cpu time spent up to now is     2425.4 secs

     total energy              =   -1885.51010329 Ry
     Harris-Foulkes estimate   =   -1885.51009993 Ry
     estimated scf accuracy    <       0.00058627 Ry

     total magnetization       =     8.00 Bohr mag/cell
     absolute magnetization    =     8.25 Bohr mag/cell

     iteration # 15     ecut=   100.00 Ry     beta= 0.70
     Davidson diagonalization with overlap
     ethr =  1.26E-07,  avg # of iterations =  4.5

     total cpu time spent up to now is     2579.0 secs

     total energy              =   -1885.51008861 Ry
     Harris-Foulkes estimate   =   -1885.51018564 Ry
     estimated scf accuracy    <       0.00153984 Ry

     total magnetization       =     8.00 Bohr mag/cell
     absolute magnetization    =     8.25 Bohr mag/cell

     iteration # 16     ecut=   100.00 Ry     beta= 0.70
     Davidson diagonalization with overlap
     ethr =  1.26E-07,  avg # of iterations =  4.0

     total cpu time spent up to now is     2729.6 secs

     total energy              =   -1885.51013498 Ry
     Harris-Foulkes estimate   =   -1885.51015159 Ry
     estimated scf accuracy    <       0.00031810 Ry

     total magnetization       =     8.00 Bohr mag/cell
     absolute magnetization    =     8.25 Bohr mag/cell

     iteration # 17     ecut=   100.00 Ry     beta= 0.70
     Davidson diagonalization with overlap
     ethr =  6.86E-08,  avg # of iterations =  3.5

     total cpu time spent up to now is     2880.3 secs

     total energy              =   -1885.51014548 Ry
     Harris-Foulkes estimate   =   -1885.51017550 Ry
     estimated scf accuracy    <       0.00057069 Ry

     total magnetization       =     8.00 Bohr mag/cell
     absolute magnetization    =     8.25 Bohr mag/cell

     iteration # 18     ecut=   100.00 Ry     beta= 0.70
     Davidson diagonalization with overlap
     ethr =  6.86E-08,  avg # of iterations =  2.0

     total cpu time spent up to now is     3029.3 secs

     total energy              =   -1885.51017390 Ry
     Harris-Foulkes estimate   =   -1885.51017472 Ry
     estimated scf accuracy    <       0.00011732 Ry

     total magnetization       =     8.00 Bohr mag/cell
     absolute magnetization    =     8.25 Bohr mag/cell

     iteration # 19     ecut=   100.00 Ry     beta= 0.70
     Davidson diagonalization with overlap
     ethr =  2.53E-08,  avg # of iterations =  4.0

     total cpu time spent up to now is     3181.0 secs

     total energy              =   -1885.51018187 Ry
     Harris-Foulkes estimate   =   -1885.51017864 Ry
     estimated scf accuracy    <       0.00006480 Ry

     total magnetization       =     8.00 Bohr mag/cell
     absolute magnetization    =     8.25 Bohr mag/cell

     iteration # 20     ecut=   100.00 Ry     beta= 0.70
     Davidson diagonalization with overlap
     ethr =  1.40E-08,  avg # of iterations =  4.5

     total cpu time spent up to now is     3332.7 secs

     total energy              =   -1885.51018647 Ry
     Harris-Foulkes estimate   =   -1885.51018703 Ry
     estimated scf accuracy    <       0.00002972 Ry

     total magnetization       =     8.00 Bohr mag/cell
     absolute magnetization    =     8.25 Bohr mag/cell

     iteration # 21     ecut=   100.00 Ry     beta= 0.70
     Davidson diagonalization with overlap
     ethr =  6.41E-09,  avg # of iterations =  3.0

     total cpu time spent up to now is     3484.1 secs

     total energy              =   -1885.51018651 Ry
     Harris-Foulkes estimate   =   -1885.51018968 Ry
     estimated scf accuracy    <       0.00003979 Ry

     total magnetization       =     8.00 Bohr mag/cell
     absolute magnetization    =     8.25 Bohr mag/cell

     iteration # 22     ecut=   100.00 Ry     beta= 0.70
     Davidson diagonalization with overlap
     ethr =  6.41E-09,  avg # of iterations =  4.0

     total cpu time spent up to now is     3643.6 secs

     total energy              =   -1885.51018491 Ry
     Harris-Foulkes estimate   =   -1885.51019055 Ry
     estimated scf accuracy    <       0.00002394 Ry

     total magnetization       =     8.00 Bohr mag/cell
     absolute magnetization    =     8.25 Bohr mag/cell

     iteration # 23     ecut=   100.00 Ry     beta= 0.70
     Davidson diagonalization with overlap
     ethr =  5.16E-09,  avg # of iterations =  3.5

     total cpu time spent up to now is     3788.7 secs

     total energy              =   -1885.51018592 Ry
     Harris-Foulkes estimate   =   -1885.51018739 Ry
     estimated scf accuracy    <       0.00000537 Ry

     total magnetization       =     8.00 Bohr mag/cell
     absolute magnetization    =     8.25 Bohr mag/cell

     iteration # 24     ecut=   100.00 Ry     beta= 0.70
     Davidson diagonalization with overlap
     ethr =  1.16E-09,  avg # of iterations =  5.0

     total cpu time spent up to now is     3992.9 secs

     total energy              =   -1885.51018618 Ry
     Harris-Foulkes estimate   =   -1885.51018719 Ry
     estimated scf accuracy    <       0.00000130 Ry

     total magnetization       =     8.00 Bohr mag/cell
     absolute magnetization    =     8.25 Bohr mag/cell

     iteration # 25     ecut=   100.00 Ry     beta= 0.70
     Davidson diagonalization with overlap
     ethr =  2.80E-10,  avg # of iterations =  4.5

     total cpu time spent up to now is     4195.4 secs

     total energy              =   -1885.51018637 Ry
     Harris-Foulkes estimate   =   -1885.51018661 Ry
     estimated scf accuracy    <       0.00000188 Ry

     total magnetization       =     8.00 Bohr mag/cell
     absolute magnetization    =     8.25 Bohr mag/cell

     iteration # 26     ecut=   100.00 Ry     beta= 0.70
     Davidson diagonalization with overlap
     ethr =  2.80E-10,  avg # of iterations =  4.0

     total cpu time spent up to now is     4373.8 secs

     total energy              =   -1885.51018583 Ry
     Harris-Foulkes estimate   =   -1885.51018667 Ry
     estimated scf accuracy    <       0.00000170 Ry

     total magnetization       =     8.00 Bohr mag/cell
     absolute magnetization    =     8.25 Bohr mag/cell

     iteration # 27     ecut=   100.00 Ry     beta= 0.70
     Davidson diagonalization with overlap
     ethr =  2.80E-10,  avg # of iterations =  5.0
 
     Magnetic moment per site:
     atom:    1    charge:    0.8587    magn:    0.0071    constr:    0.0000
     atom:    2    charge:    0.8591    magn:    0.0070    constr:    0.0000
     atom:    3    charge:    0.8638    magn:    0.0054    constr:    0.0000
     atom:    4    charge:    0.8635    magn:    0.0055    constr:    0.0000
     atom:    5    charge:    0.8604    magn:    0.0044    constr:    0.0000
     atom:    6    charge:    0.8618    magn:    0.0044    constr:    0.0000
     atom:    7    charge:    0.8607    magn:    0.0087    constr:    0.0000
     atom:    8    charge:    0.8599    magn:    0.0033    constr:    0.0000
     atom:    9    charge:    0.8482    magn:    0.0024    constr:    0.0000
     atom:   10    charge:    0.8516    magn:    0.0061    constr:    0.0000
     atom:   11    charge:    0.8497    magn:    0.0058    constr:    0.0000
     atom:   12    charge:    0.8497    magn:    0.0059    constr:    0.0000
     atom:   13    charge:    0.8541    magn:    0.0059    constr:    0.0000
     atom:   14    charge:    0.8533    magn:    0.0060    constr:    0.0000
     atom:   15    charge:    0.8667    magn:    0.0008    constr:    0.0000
     atom:   16    charge:    0.8534    magn:    0.0051    constr:    0.0000
     atom:   17    charge:    0.8661    magn:    0.0105    constr:    0.0000
     atom:   18    charge:    0.8607    magn:    0.0053    constr:    0.0000
     atom:   19    charge:    0.8669    magn:    0.0032    constr:    0.0000
     atom:   20    charge:    0.8630    magn:    0.0052    constr:    0.0000
     atom:   21    charge:    0.8356    magn:   -0.0025    constr:    0.0000
     atom:   22    charge:    0.8363    magn:   -0.0023    constr:    0.0000
     atom:   23    charge:    0.8364    magn:   -0.0020    constr:    0.0000
     atom:   24    charge:    0.8369    magn:   -0.0021    constr:    0.0000
     atom:   25    charge:    0.8587    magn:    0.0071    constr:    0.0000
     atom:   26    charge:    0.8591    magn:    0.0070    constr:    0.0000
     atom:   27    charge:    0.8638    magn:    0.0054    constr:    0.0000
     atom:   28    charge:    0.8635    magn:    0.0055    constr:    0.0000
     atom:   29    charge:    0.8604    magn:    0.0044    constr:    0.0000
     atom:   30    charge:    0.8618    magn:    0.0044    constr:    0.0000
     atom:   31    charge:    0.8607    magn:    0.0087    constr:    0.0000
     atom:   32    charge:    0.8599    magn:    0.0033    constr:    0.0000
     atom:   33    charge:    0.8482    magn:    0.0024    constr:    0.0000
     atom:   34    charge:    0.8516    magn:    0.0061    constr:    0.0000
     atom:   35    charge:    0.8497    magn:    0.0058    constr:    0.0000
     atom:   36    charge:    0.8497    magn:    0.0059    constr:    0.0000
     atom:   37    charge:    0.8541    magn:    0.0059    constr:    0.0000
     atom:   38    charge:    0.8533    magn:    0.0060    constr:    0.0000
     atom:   39    charge:    0.8667    magn:    0.0008    constr:    0.0000
     atom:   40    charge:    0.8534    magn:    0.0051    constr:    0.0000
     atom:   41    charge:    0.8661    magn:    0.0105    constr:    0.0000
     atom:   42    charge:    0.8607    magn:    0.0053    constr:    0.0000
     atom:   43    charge:    0.8669    magn:    0.0032    constr:    0.0000
     atom:   44    charge:    0.8630    magn:    0.0052    constr:    0.0000
     atom:   45    charge:    0.8356    magn:   -0.0025    constr:    0.0000
     atom:   46    charge:    0.8363    magn:   -0.0023    constr:    0.0000
     atom:   47    charge:    0.8364    magn:   -0.0020    constr:    0.0000
     atom:   48    charge:    0.8369    magn:   -0.0021    constr:    0.0000
     atom:   49    charge:    0.8987    magn:    0.0045    constr:    0.0000
     atom:   50    charge:    0.9008    magn:    0.0045    constr:    0.0000
     atom:   51    charge:    0.9044    magn:    0.0037    constr:    0.0000
     atom:   52    charge:    0.8821    magn:    0.0054    constr:    0.0000
     atom:   53    charge:    0.8987    magn:    0.0045    constr:    0.0000
     atom:   54    charge:    0.9008    magn:    0.0045    constr:    0.0000
     atom:   55    charge:    0.9044    magn:    0.0037    constr:    0.0000
     atom:   56    charge:    0.8821    magn:    0.0054    constr:    0.0000
     atom:   57    charge:    0.5031    magn:   -0.0013    constr:    0.0000
     atom:   58    charge:    0.5026    magn:   -0.0013    constr:    0.0000
     atom:   59    charge:    0.5004    magn:   -0.0014    constr:    0.0000
     atom:   60    charge:    0.5052    magn:   -0.0008    constr:    0.0000
     atom:   61    charge:    0.5023    magn:   -0.0010    constr:    0.0000
     atom:   62    charge:    0.5072    magn:   -0.0007    constr:    0.0000
     atom:   63    charge:    0.5075    magn:   -0.0008    constr:    0.0000
     atom:   64    charge:    0.5003    magn:   -0.0009    constr:    0.0000
     atom:   65    charge:    0.4995    magn:   -0.0009    constr:    0.0000
     atom:   66    charge:    0.4918    magn:    0.0030    constr:    0.0000
     atom:   67    charge:    0.5014    magn:   -0.0010    constr:    0.0000
     atom:   68    charge:    0.5012    magn:   -0.0013    constr:    0.0000
     atom:   69    charge:    0.5031    magn:   -0.0013    constr:    0.0000
     atom:   70    charge:    0.5026    magn:   -0.0013    constr:    0.0000
     atom:   71    charge:    0.5004    magn:   -0.0014    constr:    0.0000
     atom:   72    charge:    0.5052    magn:   -0.0008    constr:    0.0000
     atom:   73    charge:    0.5023    magn:   -0.0010    constr:    0.0000
     atom:   74    charge:    0.5072    magn:   -0.0007    constr:    0.0000
     atom:   75    charge:    0.5075    magn:   -0.0008    constr:    0.0000
     atom:   76    charge:    0.5003    magn:   -0.0009    constr:    0.0000
     atom:   77    charge:    0.4995    magn:   -0.0009    constr:    0.0000
     atom:   78    charge:    0.4918    magn:    0.0030    constr:    0.0000
     atom:   79    charge:    0.5014    magn:   -0.0010    constr:    0.0000
     atom:   80    charge:    0.5012    magn:   -0.0013    constr:    0.0000
     atom:   81    charge:    1.8240    magn:    0.0094    constr:    0.0000
     atom:   82    charge:    1.8233    magn:    0.0092    constr:    0.0000
     atom:   83    charge:    1.8337    magn:    0.0183    constr:    0.0000
     atom:   84    charge:    1.8226    magn:    0.0085    constr:    0.0000
     atom:   85    charge:    1.8240    magn:    0.0094    constr:    0.0000
     atom:   86    charge:    1.8233    magn:    0.0092    constr:    0.0000
     atom:   87    charge:    1.8337    magn:    0.0183    constr:    0.0000
     atom:   88    charge:    1.8226    magn:    0.0085    constr:    0.0000
     atom:   89    charge:    1.8050    magn:    0.0308    constr:    0.0000
     atom:   90    charge:    1.8037    magn:    0.0308    constr:    0.0000
     atom:   91    charge:    1.8038    magn:    0.0286    constr:    0.0000
     atom:   92    charge:    1.8775    magn:    0.0122    constr:    0.0000
     atom:   93    charge:    1.8050    magn:    0.0308    constr:    0.0000
     atom:   94    charge:    1.8037    magn:    0.0308    constr:    0.0000
     atom:   95    charge:    1.8038    magn:    0.0286    constr:    0.0000
     atom:   96    charge:    1.8775    magn:    0.0122    constr:    0.0000
     atom:   97    charge:    7.4578    magn:    1.1191    constr:    0.0000
     atom:   98    charge:    7.4554    magn:    1.1263    constr:    0.0000
     atom:   99    charge:    7.4578    magn:    1.1192    constr:    0.0000
     atom:  100    charge:    7.4554    magn:    1.1264    constr:    0.0000
     atom:  101    charge:    3.3084    magn:    0.0531    constr:    0.0000
     atom:  102    charge:    3.3112    magn:    0.0518    constr:    0.0000
     atom:  103    charge:    3.3085    magn:    0.0585    constr:    0.0000
     atom:  104    charge:    3.3065    magn:    0.0575    constr:    0.0000
     atom:  105    charge:    3.3056    magn:    0.0550    constr:    0.0000
     atom:  106    charge:    3.3104    magn:    0.0553    constr:    0.0000
     atom:  107    charge:    3.3063    magn:    0.0583    constr:    0.0000
     atom:  108    charge:    3.3043    magn:    0.0570    constr:    0.0000
     atom:  109    charge:    3.3084    magn:    0.0531    constr:    0.0000
     atom:  110    charge:    3.3112    magn:    0.0518    constr:    0.0000
     atom:  111    charge:    3.3085    magn:    0.0585    constr:    0.0000
     atom:  112    charge:    3.3065    magn:    0.0575    constr:    0.0000
     atom:  113    charge:    3.3056    magn:    0.0550    constr:    0.0000
     atom:  114    charge:    3.3104    magn:    0.0553    constr:    0.0000
     atom:  115    charge:    3.3063    magn:    0.0583    constr:    0.0000
     atom:  116    charge:    3.3043    magn:    0.0570    constr:    0.0000

     total cpu time spent up to now is     4578.9 secs

     End of self-consistent calculation

 ------ SPIN UP ------------


          k = 0.0000 0.0000 0.0000 ( 91663 PWs)   bands (ev):

   -21.8720 -21.8610 -21.8562 -21.8548 -21.7415 -21.7370 -21.7229 -21.7228
   -20.6258 -20.6023 -18.9536 -18.9358 -18.9215 -18.9197 -18.8967 -18.8952
   -18.8827 -18.8769 -18.8138 -18.7979 -18.7240 -18.7042 -18.6716 -18.6537
   -18.6336 -18.6219 -16.8744 -16.8567 -16.8540 -16.8333 -16.8127 -16.7871
   -15.8228 -15.8163 -15.5595 -15.5533 -15.2914 -15.2872 -15.2811 -15.2546
   -15.0036 -15.0011 -14.2090 -14.1850 -14.1195 -14.0620 -14.0302 -14.0153
   -12.3582 -12.3501 -12.0170 -12.0116 -11.6415 -11.6321 -11.5335 -11.5261
   -11.5167 -11.5019 -11.2623 -11.2153 -11.0850 -11.0581 -11.0421 -11.0283
   -10.2710 -10.2387  -9.3175  -9.2547  -9.1663  -9.1078  -9.0797  -9.0595
    -9.0076  -8.9753  -8.3171  -8.3029  -8.1230  -8.1005  -8.0283  -7.9811
    -7.9555  -7.9432  -7.7491  -7.7149  -7.5365  -7.4911  -7.4384  -7.4261
    -7.3552  -7.3427  -7.3280  -7.3182  -7.2259  -7.1646  -7.0117  -6.9454
    -6.8976  -6.7313  -6.7194  -6.6719  -6.3910  -6.3691  -6.3547  -6.3187
    -6.2607  -6.2422  -6.2068  -6.1347  -6.1334  -6.0743  -6.0444  -6.0350
    -6.0200  -5.9842  -5.9513  -5.9042  -5.8760  -5.8743  -5.8409  -5.7735
    -5.7234  -5.6886  -5.6762  -5.6243  -5.5750  -5.5071  -5.4784  -5.4704
    -5.4192  -5.4063  -5.2470  -5.1225  -5.0774  -4.9988  -4.9853  -4.9385
    -4.8787  -4.7553  -4.6541  -4.6115  -4.4204  -4.3579  -4.3494  -4.3188
    -4.2629  -4.2435  -4.2394  -4.2384  -4.1787  -4.1188  -4.1094  -4.0695
    -3.8058  -3.7350  -3.7154  -3.6754  -3.6248  -3.6161  -3.5788  -3.4990
    -3.4129  -3.3375  -3.2895  -3.2513  -3.1859  -3.1206  -3.1147  -3.1110
    -3.0814  -3.0376  -3.0245  -2.9923  -2.9129  -2.8981  -2.8796  -2.8605
    -2.8577  -2.7941  -2.7818  -2.7789  -2.7243  -2.7007  -2.6746  -2.6193
    -2.5838  -2.5128  -2.4931  -2.4753  -2.4548  -2.4060  -2.3552  -2.3434
    -2.2385  -2.2052  -2.1836  -2.1100  -2.0665  -2.0609  -2.0039  -1.9851
    -1.9825  -1.9009  -1.8878  -1.8730  -1.8109  -1.8070  -1.7817  -1.7651
    -1.7584  -1.7323  -1.6989  -1.6374  -1.6333  -1.5631  -1.5391  -1.5207
    -1.4988  -1.4688  -1.4579  -1.3913  -1.3241  -1.2777  -1.2643  -1.2633
    -0.6525  -0.5089   0.0680   0.1291   0.1639   0.1841   0.2505   0.4324
     0.4587   0.4699   0.4925   0.5575   1.7242   1.9339   2.1611   2.2016
     2.2959   2.3765   2.4901   2.4920   2.8608   2.9422   3.0046   3.1608
     3.2217   3.2538   3.3214   3.3243   3.5387   4.0170   4.1631   4.3428
     4.3685   4.4204   4.7408   4.7747   4.8311   4.8371   4.9414   4.9653
     4.9900   5.0819   5.1529   5.1599   5.2236   5.2297   5.3764   5.3894
     5.4673   5.5149   5.5665   5.6344   5.6563   5.7410   5.8042   5.8211
     5.9504   6.0135   6.0249

 ------ SPIN DOWN ----------


          k = 0.0000 0.0000 0.0000 ( 91663 PWs)   bands (ev):

   -21.7786 -21.7667 -21.7611 -21.7597 -21.6461 -21.6416 -21.6256 -21.6256
   -20.5923 -20.5684 -18.8510 -18.8163 -18.8030 -18.7988 -18.7853 -18.7688
   -18.7622 -18.7595 -18.7493 -18.7410 -18.6909 -18.6644 -18.6384 -18.6202
   -18.5999 -18.5829 -16.7980 -16.7763 -16.7712 -16.7477 -16.7274 -16.7009
   -15.7812 -15.7730 -15.5219 -15.5162 -15.2527 -15.2481 -15.2425 -15.2159
   -14.9723 -14.9701 -14.1751 -14.1506 -14.0797 -14.0220 -13.9887 -13.9737
   -12.3172 -12.3091 -11.9869 -11.9816 -11.6112 -11.6018 -11.5012 -11.4935
   -11.4840 -11.4688 -11.2352 -11.1876 -11.0559 -11.0291 -11.0131 -10.9992
   -10.2449 -10.2119  -9.2986  -9.2347  -9.1433  -9.0863  -9.0601  -9.0389
    -8.9796  -8.9471  -8.2828  -8.2697  -8.0852  -8.0653  -7.9944  -7.9468
    -7.9211  -7.9082  -7.7187  -7.6828  -7.4939  -7.4549  -7.4069  -7.3987
    -7.3282  -7.3183  -7.3022  -7.2912  -7.1916  -7.1244  -6.9680  -6.8975
    -6.8465  -6.6898  -6.6748  -6.6133  -6.3030  -6.2925  -6.2843  -6.2299
    -6.1897  -6.1452  -6.1198  -6.0526  -6.0296  -5.9734  -5.9510  -5.9451
    -5.9210  -5.8952  -5.8479  -5.8136  -5.8019  -5.7927  -5.7235  -5.6880
    -5.6404  -5.6303  -5.5990  -5.5605  -5.5031  -5.4299  -5.4134  -5.3958
    -5.3912  -5.3239  -5.1770  -5.0356  -5.0190  -4.9105  -4.8888  -4.8428
    -4.8397  -4.6764  -4.5976  -4.5173  -4.3847  -4.3222  -4.2766  -4.2664
    -4.2310  -4.1717  -4.1575  -4.1268  -4.0739  -3.9288  -3.8040  -3.7323
    -3.6620  -3.5931  -3.4935  -3.4540  -3.3579  -3.3408  -3.2372  -3.2145
    -3.1777  -3.0823  -3.0620  -3.0264  -3.0022  -2.9999  -2.9977  -2.9679
    -2.8629  -2.8206  -2.8032  -2.7809  -2.7697  -2.7296  -2.7005  -2.6943
    -2.6268  -2.5817  -2.5305  -2.4244  -2.4140  -2.4046  -2.3814  -2.3101
    -2.2531  -2.2024  -2.1961  -2.1176  -2.0671  -2.0097  -1.9746  -1.9698
    -1.9362  -1.9157  -1.9101  -1.8564  -1.7979  -1.7703  -1.7581  -1.7154
    -1.6592  -1.6165  -1.5403  -1.5273  -1.4788  -1.4382  -1.3932  -1.3870
    -1.3641  -1.3588  -1.3251  -1.2231  -1.1263  -1.0042  -0.9495  -0.8494
    -0.8437  -0.8319  -0.8162  -0.8148  -0.7643  -0.7053  -0.6851  -0.6587
    -0.5029  -0.3794   0.2695   0.6899   0.9522   1.0074   1.0213   1.0793
     1.2087   1.2430   1.2512   1.2645   1.8360   2.0431   2.2639   2.3204
     2.4011   2.4828   2.6058   2.6084   2.9442   3.0175   3.0922   3.2401
     3.3250   3.3644   3.4307   3.4336   3.5310   3.9969   4.1554   4.4072
     4.4121   4.4438   4.7712   4.8228   4.8477   4.8734   4.9738   5.0092
     5.0551   5.1340   5.2049   5.2059   5.2538   5.2727   5.4247   5.4285
     5.5176   5.5765   5.6380   5.6839   5.7161   5.7750   5.8466   5.8676
     5.9983   6.0740   6.0875

     the spin up/dw Fermi energies are     0.6962    0.3980 ev

!    total energy              =   -1885.51018912 Ry
     Harris-Foulkes estimate   =   -1885.51018625 Ry
     estimated scf accuracy    <       0.00000038 Ry

     The total energy is the sum of the following terms:

     one-electron contribution =   -2520.69994950 Ry
     hartree contribution      =    1437.17381410 Ry
     xc contribution           =    -581.09248772 Ry
     ewald contribution        =    -223.46195829 Ry
     Dispersion Correction     =      -0.55997670 Ry
     smearing contrib. (-TS)   =       3.13036898 Ry

     total magnetization       =     8.00 Bohr mag/cell
     absolute magnetization    =     8.25 Bohr mag/cell

     convergence has been achieved in  27 iterations

     Forces acting on atoms (cartesian axes, Ry/au):

     atom    1 type  1   force =     0.00022876    0.00714056   -0.01787056
     atom    2 type  1   force =    -0.00048089   -0.00694963   -0.01729886
     atom    3 type  1   force =    -0.01066933    0.01779922   -0.02741989
     atom    4 type  1   force =    -0.00986944   -0.01768038   -0.02715749
     atom    5 type  1   force =     0.05629079    0.00994690    0.01970339
     atom    6 type  1   force =     0.05482601   -0.01063352    0.01818623
     atom    7 type  1   force =     0.00540938   -0.00699868   -0.01635035
     atom    8 type  1   force =     0.05435512    0.00425676   -0.04520120
     atom    9 type  1   force =    -0.00993027    0.02553278    0.01750443
     atom   10 type  1   force =     0.01981495   -0.01940644    0.01203589
     atom   11 type  1   force =    -0.01612107   -0.01210891   -0.00572086
     atom   12 type  1   force =    -0.01520386    0.01239788   -0.00540306
     atom   13 type  1   force =    -0.00179371   -0.02446680    0.02705096
     atom   14 type  1   force =    -0.00042716    0.02426180    0.02795492
     atom   15 type  1   force =    -0.01423600    0.02166486    0.07524760
     atom   16 type  1   force =    -0.02732772   -0.00134960    0.01451447
     atom   17 type  1   force =    -0.12677227   -0.06232030   -0.15507111
     atom   18 type  1   force =    -0.00197186   -0.00484427    0.00090486
     atom   19 type  1   force =    -0.00038216   -0.01310027   -0.01557116
     atom   20 type  1   force =    -0.03348092    0.02694738   -0.00823346
     atom   21 type  1   force =    -0.00648044   -0.00775025    0.00465261
     atom   22 type  1   force =    -0.00455716    0.00936656    0.00633586
     atom   23 type  1   force =     0.00468358    0.00255647    0.00810437
     atom   24 type  1   force =     0.00068441   -0.00591289    0.00642657
     atom   25 type  1   force =     0.00022880    0.00714050   -0.01787096
     atom   26 type  1   force =    -0.00048087   -0.00694857   -0.01729762
     atom   27 type  1   force =    -0.01066936    0.01779867   -0.02742014
     atom   28 type  1   force =    -0.00986658   -0.01768049   -0.02715698
     atom   29 type  1   force =     0.05629089    0.00994710    0.01970327
     atom   30 type  1   force =     0.05481757   -0.01062856    0.01818773
     atom   31 type  1   force =     0.00538042   -0.00700658   -0.01634364
     atom   32 type  1   force =     0.05433451    0.00426349   -0.04519457
     atom   33 type  1   force =    -0.00991515    0.02553495    0.01750068
     atom   34 type  1   force =     0.01982041   -0.01940962    0.01203830
     atom   35 type  1   force =    -0.01612107   -0.01210882   -0.00572098
     atom   36 type  1   force =    -0.01520648    0.01239668   -0.00540635
     atom   37 type  1   force =    -0.00179385   -0.02446703    0.02705091
     atom   38 type  1   force =    -0.00039637    0.02426026    0.02796656
     atom   39 type  1   force =    -0.01422423    0.02167188    0.07524918
     atom   40 type  1   force =    -0.02732700   -0.00134992    0.01451495
     atom   41 type  1   force =    -0.12676921   -0.06231807   -0.15507647
     atom   42 type  1   force =    -0.00197034   -0.00484385    0.00090374
     atom   43 type  1   force =    -0.00037511   -0.01309780   -0.01557405
     atom   44 type  1   force =    -0.03346953    0.02694440   -0.00823544
     atom   45 type  1   force =    -0.00648000   -0.00774910    0.00465270
     atom   46 type  1   force =    -0.00455719    0.00936766    0.00633680
     atom   47 type  1   force =     0.00471636    0.00255735    0.00809443
     atom   48 type  1   force =     0.00068599   -0.00591408    0.00642794
     atom   49 type  1   force =    -0.08328597   -0.00945830   -0.02233245
     atom   50 type  1   force =    -0.08110548    0.01240053   -0.02163222
     atom   51 type  1   force =     0.05345695    0.01108122   -0.05420195
     atom   52 type  1   force =    -0.05555243   -0.03986138    0.09045062
     atom   53 type  1   force =    -0.08328618   -0.00945832   -0.02233238
     atom   54 type  1   force =    -0.08112836    0.01240628   -0.02164129
     atom   55 type  1   force =     0.05345355    0.01108123   -0.05420349
     atom   56 type  1   force =    -0.05554028   -0.03985346    0.09043220
     atom   57 type  2   force =     0.01202990   -0.00533077    0.01557517
     atom   58 type  2   force =     0.01256281    0.00506865    0.01528420
     atom   59 type  2   force =    -0.01220174    0.00262691    0.01260960
     atom   60 type  2   force =    -0.01917628   -0.00377188    0.00133494
     atom   61 type  2   force =    -0.01224398    0.00659482    0.00015373
     atom   62 type  2   force =     0.02299168    0.00227163   -0.00256360
     atom   63 type  2   force =     0.02138611   -0.00466448   -0.00139667
     atom   64 type  2   force =    -0.01061935    0.00773130   -0.01451350
     atom   65 type  2   force =    -0.01129175   -0.00759826   -0.01530564
     atom   66 type  2   force =    -0.05706008    0.14754906   -0.08776410
     atom   67 type  2   force =     0.01222598    0.00681813   -0.01492122
     atom   68 type  2   force =     0.01410741   -0.00190835   -0.00804106
     atom   69 type  2   force =     0.01202969   -0.00533090    0.01557519
     atom   70 type  2   force =     0.01256276    0.00506850    0.01528417
     atom   71 type  2   force =    -0.01219437    0.00262488    0.01260390
     atom   72 type  2   force =    -0.01917539   -0.00377158    0.00133455
     atom   73 type  2   force =    -0.01224447    0.00659578    0.00015290
     atom   74 type  2   force =     0.02299139    0.00227160   -0.00256384
     atom   75 type  2   force =     0.02138629   -0.00466441   -0.00139679
     atom   76 type  2   force =    -0.01061928    0.00773125   -0.01451338
     atom   77 type  2   force =    -0.01130413   -0.00760244   -0.01531602
     atom   78 type  2   force =    -0.05705694    0.14755001   -0.08776573
     atom   79 type  2   force =     0.01222616    0.00681824   -0.01492142
     atom   80 type  2   force =     0.01410740   -0.00190827   -0.00804109
     atom   81 type  3   force =     0.01653116   -0.00156350   -0.00644765
     atom   82 type  3   force =     0.01468574    0.00033009   -0.00923291
     atom   83 type  3   force =     0.08732190    0.03717098   -0.04396505
     atom   84 type  3   force =     0.00357208    0.00321741   -0.01629028
     atom   85 type  3   force =     0.01653059   -0.00156399   -0.00644640
     atom   86 type  3   force =     0.01467526    0.00033370   -0.00923359
     atom   87 type  3   force =     0.08729547    0.03716312   -0.04395467
     atom   88 type  3   force =     0.00357060    0.00321734   -0.01629014
     atom   89 type  3   force =     0.02833540    0.02038900    0.01926312
     atom   90 type  3   force =     0.02942498   -0.01950668    0.01832803
     atom   91 type  3   force =    -0.02132700   -0.01342309    0.01905001
     atom   92 type  3   force =     0.10483810   -0.13444127    0.17607647
     atom   93 type  3   force =     0.02833546    0.02038846    0.01926300
     atom   94 type  3   force =     0.02944919   -0.01951640    0.01833339
     atom   95 type  3   force =    -0.02132686   -0.01342228    0.01904972
     atom   96 type  3   force =     0.10482593   -0.13444884    0.17608649
     atom   97 type  4   force =     0.00713114    0.02077954   -0.00547879
     atom   98 type  4   force =    -0.00645078   -0.02113258    0.00940002
     atom   99 type  4   force =     0.00711064    0.02079585   -0.00547594
     atom  100 type  4   force =    -0.00644527   -0.02112294    0.00942615
     atom  101 type  5   force =     0.02223386    0.00838846   -0.00492808
     atom  102 type  5   force =     0.03429980   -0.00025308    0.00114391
     atom  103 type  5   force =    -0.01976596    0.00158982    0.00260681
     atom  104 type  5   force =    -0.02283130   -0.00444619    0.00045643
     atom  105 type  5   force =    -0.01412313    0.00835764    0.01034205
     atom  106 type  5   force =    -0.00832535   -0.00306494    0.02294461
     atom  107 type  5   force =     0.00976116   -0.00911481    0.00773602
     atom  108 type  5   force =     0.01187876    0.00880748    0.00892228
     atom  109 type  5   force =     0.02221175    0.00839342   -0.00491611
     atom  110 type  5   force =     0.03430114   -0.00025221    0.00114325
     atom  111 type  5   force =    -0.01976446    0.00158968    0.00260956
     atom  112 type  5   force =    -0.02283314   -0.00444649    0.00045575
     atom  113 type  5   force =    -0.01411434    0.00836154    0.01034359
     atom  114 type  5   force =    -0.00832717   -0.00306451    0.02294307
     atom  115 type  5   force =     0.00976240   -0.00911401    0.00773559
     atom  116 type  5   force =     0.01187932    0.00880744    0.00892280

     Total force =     0.673794     Total SCF correction =     0.001499

     BFGS Geometry Optimization

     number of scf cycles    =   1
     number of bfgs steps    =   0

     energy   new            =   -1885.5101891202 Ry

     new trust radius        =       0.2450947100 bohr
     new conv_thr            =       0.0000010000 Ry


ATOMIC_POSITIONS (crystal)
C             0.2882049290        0.9703517249        0.5210635761
C             0.0383424360        0.0308123427        0.0214170215
C             0.3901568227        0.0125221074        0.5450797372
C             0.1398009163        0.9869969142        0.0447472520
C             0.4543154262        0.9706223068        0.6513858239
C             0.2048570217        0.0279036799        0.1508296825
C             0.2083945729        0.5294082702        0.5255418743
C             0.4608026791        0.4715888696        0.0255759099
C             0.2447332065        0.6144098894        0.6073365664
C             0.4976687560        0.3878569795        0.1092369089
C             0.2487884709        0.8886943372        0.6029083470
C             0.0004205808        0.1127558732        0.1039687151
C             0.4079264551        0.8883491536        0.7289452610
C             0.1599431285        0.1105721840        0.2292518194
C             0.0883301347        0.6098984504        0.7312276313
C             0.3397472267        0.3915759726        0.2301415684
C             0.0414152463        0.5224456512        0.6433250553
C             0.2975754084        0.4745063049        0.1528006049
C             0.1081332330        0.4837164470        0.5493140069
C             0.3564075297        0.5167946637        0.0502139354
C             0.4330401399        0.0989915124        0.4668606328
C             0.1813301016        0.9001157847        0.9659983287
C             0.0675837833        0.3945820237        0.4710934162
C             0.3160779851        0.6039221505        0.9694380006
C             0.7882049304        0.9703517222        0.5210635553
C             0.5383424376        0.0308123878        0.0214170853
C             0.8901568210        0.0125220840        0.5450797246
C             0.6398010376        0.9869969094        0.0447472783
C             0.9543154304        0.9706223154        0.6513858177
C             0.7048566658        0.0279038893        0.1508297601
C             0.7083943536        0.5294079363        0.5255422203
C             0.9608028133        0.4715891540        0.0255762514
C             0.7447338427        0.6144099810        0.6073363731
C             0.9976689893        0.3878568449        0.1092370334
C             0.7487884706        0.8886943408        0.6029083407
C             0.5004204666        0.1127558228        0.1039685455
C             0.9079264491        0.8883491437        0.7289452584
C             0.6599434423        0.1105721191        0.2292524191
C             0.5883306339        0.6098987468        0.7312277123
C             0.8397472575        0.3915759590        0.2301415931
C             0.5414153707        0.5224457454        0.6433247795
C             0.7975754719        0.4745063228        0.1528005473
C             0.6081335287        0.4837165513        0.5493138579
C             0.8564080098        0.5167945375        0.0502138331
C             0.9330401586        0.0989915612        0.4668606373
C             0.6813301012        0.9001158311        0.9659983774
C             0.5675841614        0.3945820609        0.4710929038
C             0.8160780532        0.6039220999        0.9694380714
C             0.5553628026        0.0059033387        0.6815957662
C             0.3057407266        0.9914009855        0.1802588315
C             0.9443602357        0.4855522379        0.6789623260
C             0.5240330714        0.5052436545        0.9287716631
C             0.0553627936        0.0059033379        0.6815957698
C             0.8057397498        0.9914022285        0.1802593643
C             0.4443600904        0.4855522382        0.6789622469
C             0.0240345683        0.5052439889        0.9287717143
H             0.2376476475        0.9993497478        0.4439152001
H             0.4870839250        0.0029061763        0.9442862132
H             0.2581955003        0.5010060003        0.4499314582
H             0.3218308029        0.6503466188        0.5927037561
H             0.0744500372        0.3531296647        0.0950359178
H             0.1711244951        0.8552189880        0.5884279616
H             0.4232256489        0.1475349020        0.0898140646
H             0.4529070353        0.8554996865        0.8080134815
H             0.2057468402        0.1427819350        0.3080086825
H             0.0412322237        0.6491786967        0.8020877062
H             0.2968813587        0.3578141005        0.3082824819
H             0.2195414207        0.5051203625        0.1748498448
H             0.7376476386        0.9993497422        0.4439152010
H             0.9870839226        0.0029061698        0.9442862119
H             0.7581958067        0.5010059144        0.4499311645
H             0.8218308402        0.6503466316        0.5927037360
H             0.5744500160        0.3531297054        0.0950358749
H             0.6711244823        0.8552189865        0.5884279491
H             0.9232256562        0.1475349050        0.0898140584
H             0.9529070388        0.8554996848        0.8080134880
H             0.7057473065        0.1427817582        0.3080081475
H             0.5412323552        0.6491787367        0.8020876223
H             0.7968813660        0.3578141052        0.3082824718
H             0.7195414203        0.5051203660        0.1748498433
N             0.3091304760        0.8511869340        0.7044959136
N             0.0613417756        0.1488709481        0.2055764585
N             0.1901958344        0.6518806625        0.7035735781
N             0.4389458833        0.3510639518        0.2072019684
N             0.8091304527        0.8511869136        0.7044959778
N             0.5613413318        0.1488711004        0.2055764234
N             0.6901957255        0.6518803306        0.7035741128
N             0.9389458210        0.3510639491        0.2072019757
N             0.6458770749        0.0361015389        0.7096811477
N             0.3959573043        0.9600137437        0.2075489858
N             0.8572483999        0.4524738065        0.7071811718
N             0.5851092940        0.5296541738        0.8501558267
N             0.1458770777        0.0361015159        0.7096811417
N             0.8959583338        0.9600153331        0.2075492619
N             0.3572484059        0.4524738406        0.7071811567
N             0.0851097884        0.5296548540        0.8501573425
Ni            0.2472986203        0.7523640409        0.8360438148
Ni            0.4997078448        0.2471060414        0.3396621484
Ni            0.7472977555        0.7523647302        0.8360439617
Ni            0.9997081027        0.2471064486        0.3396634943
O             0.1237142114        0.3480434550        0.3826191793
O             0.3726604757        0.6509663063        0.8813509174
O             0.3767960427        0.1475741781        0.3773122639
O             0.1241323164        0.8521641259        0.8762845083
O             0.4724810711        0.3565131526        0.4835266679
O             0.2208062183        0.6412854908        0.9810587633
O             0.0292602970        0.1347728529        0.4814764442
O             0.2771970155        0.8631301609        0.9798585426
O             0.6237142871        0.3480436648        0.3826197954
O             0.8726605319        0.6509663427        0.8813508830
O             0.8767961088        0.1475741720        0.3773124056
O             0.6241322377        0.8521641132        0.8762844737
O             0.9724814442        0.3565133174        0.4835267470
O             0.7208061400        0.6412855089        0.9810586840
O             0.5292603492        0.1347728868        0.4814764219
O             0.7771970399        0.8631301589        0.9798585694



     Writing output data file /nfs/hpc/share/gantzlen/NiPyC2_relax_sc211_meta_functionalized_C-N_vdw-df2_relax.save/
     NEW-OLD atomic charge density approx. for the potential

     Check: negative core charge=   -0.000145

     total cpu time spent up to now is     4651.5 secs

     Self-consistent Calculation

     iteration #  1     ecut=   100.00 Ry     beta= 0.70
     Davidson diagonalization with overlap
     ethr =  1.00E-06,  avg # of iterations = 12.5

     total cpu time spent up to now is     5380.1 secs

     total energy              =   -1885.59495912 Ry
     Harris-Foulkes estimate   =   -1885.77808571 Ry
     estimated scf accuracy    <       0.55682138 Ry

     total magnetization       =     8.00 Bohr mag/cell
     absolute magnetization    =     8.23 Bohr mag/cell

     iteration #  2     ecut=   100.00 Ry     beta= 0.70
     Davidson diagonalization with overlap
     ethr =  1.20E-04,  avg # of iterations =  6.0

     total cpu time spent up to now is     5551.6 secs

     total energy              =   -1885.60848019 Ry
     Harris-Foulkes estimate   =   -1885.73496805 Ry
     estimated scf accuracy    <       0.71873740 Ry

     total magnetization       =     8.00 Bohr mag/cell
     absolute magnetization    =     8.25 Bohr mag/cell

     iteration #  3     ecut=   100.00 Ry     beta= 0.70
     Davidson diagonalization with overlap
     ethr =  1.20E-04,  avg # of iterations =  1.0

     total cpu time spent up to now is     5695.1 secs

     total energy              =   -1885.65954271 Ry
     Harris-Foulkes estimate   =   -1885.71556864 Ry
     estimated scf accuracy    <       0.44961097 Ry

     total magnetization       =     8.00 Bohr mag/cell
     absolute magnetization    =     8.23 Bohr mag/cell

     iteration #  4     ecut=   100.00 Ry     beta= 0.70
     Davidson diagonalization with overlap
     ethr =  9.69E-05,  avg # of iterations =  1.0

     total cpu time spent up to now is     5839.0 secs

     total energy              =   -1885.68635284 Ry
     Harris-Foulkes estimate   =   -1885.68945610 Ry
     estimated scf accuracy    <       0.01369173 Ry

     total magnetization       =     8.00 Bohr mag/cell
     absolute magnetization    =     8.24 Bohr mag/cell

     iteration #  5     ecut=   100.00 Ry     beta= 0.70
     Davidson diagonalization with overlap
     ethr =  2.95E-06,  avg # of iterations = 15.5

     total cpu time spent up to now is     6032.0 secs

     total energy              =   -1885.68721183 Ry
     Harris-Foulkes estimate   =   -1885.68877120 Ry
     estimated scf accuracy    <       0.02017235 Ry

     total magnetization       =     8.00 Bohr mag/cell
     absolute magnetization    =     8.24 Bohr mag/cell

     iteration #  6     ecut=   100.00 Ry     beta= 0.70
     Davidson diagonalization with overlap
     ethr =  2.95E-06,  avg # of iterations =  1.0

     total cpu time spent up to now is     6173.5 secs

     total energy              =   -1885.68778465 Ry
     Harris-Foulkes estimate   =   -1885.68820306 Ry
     estimated scf accuracy    <       0.00265343 Ry

     total magnetization       =     8.00 Bohr mag/cell
     absolute magnetization    =     8.24 Bohr mag/cell

     iteration #  7     ecut=   100.00 Ry     beta= 0.70
     Davidson diagonalization with overlap
     ethr =  5.72E-07,  avg # of iterations =  2.5

     total cpu time spent up to now is     6318.7 secs

     total energy              =   -1885.68788228 Ry
     Harris-Foulkes estimate   =   -1885.68799750 Ry
     estimated scf accuracy    <       0.00102296 Ry

     total magnetization       =     8.00 Bohr mag/cell
     absolute magnetization    =     8.24 Bohr mag/cell

     iteration #  8     ecut=   100.00 Ry     beta= 0.70
     Davidson diagonalization with overlap
     ethr =  2.20E-07,  avg # of iterations =  3.0

     total cpu time spent up to now is     6464.4 secs

     total energy              =   -1885.68787115 Ry
     Harris-Foulkes estimate   =   -1885.68792378 Ry
     estimated scf accuracy    <       0.00037624 Ry

     total magnetization       =     8.00 Bohr mag/cell
     absolute magnetization    =     8.24 Bohr mag/cell

     iteration #  9     ecut=   100.00 Ry     beta= 0.70
     Davidson diagonalization with overlap
     ethr =  8.11E-08,  avg # of iterations =  3.0

     total cpu time spent up to now is     6610.6 secs

     total energy              =   -1885.68784074 Ry
     Harris-Foulkes estimate   =   -1885.68793106 Ry
     estimated scf accuracy    <       0.00111421 Ry

     total magnetization       =     8.00 Bohr mag/cell
     absolute magnetization    =     8.24 Bohr mag/cell

     iteration # 10     ecut=   100.00 Ry     beta= 0.70
     Davidson diagonalization with overlap
     ethr =  8.11E-08,  avg # of iterations =  2.5

     total cpu time spent up to now is     6754.9 secs

     total energy              =   -1885.68788045 Ry
     Harris-Foulkes estimate   =   -1885.68788842 Ry
     estimated scf accuracy    <       0.00006917 Ry

     total magnetization       =     8.00 Bohr mag/cell
     absolute magnetization    =     8.24 Bohr mag/cell

     iteration # 11     ecut=   100.00 Ry     beta= 0.70
     Davidson diagonalization with overlap
     ethr =  1.49E-08,  avg # of iterations =  3.0

     total cpu time spent up to now is     6903.2 secs

     total energy              =   -1885.68788813 Ry
     Harris-Foulkes estimate   =   -1885.68788716 Ry
     estimated scf accuracy    <       0.00001377 Ry

     total magnetization       =     8.00 Bohr mag/cell
     absolute magnetization    =     8.24 Bohr mag/cell

     iteration # 12     ecut=   100.00 Ry     beta= 0.70
     Davidson diagonalization with overlap
     ethr =  2.97E-09,  avg # of iterations =  4.0

     total cpu time spent up to now is     7082.3 secs

     total energy              =   -1885.68788966 Ry
     Harris-Foulkes estimate   =   -1885.68789077 Ry
     estimated scf accuracy    <       0.00001254 Ry

     total magnetization       =     8.00 Bohr mag/cell
     absolute magnetization    =     8.24 Bohr mag/cell

     iteration # 13     ecut=   100.00 Ry     beta= 0.70
     Davidson diagonalization with overlap
     ethr =  2.70E-09,  avg # of iterations =  3.5

     total cpu time spent up to now is     7226.8 secs

     total energy              =   -1885.68789048 Ry
     Harris-Foulkes estimate   =   -1885.68789182 Ry
     estimated scf accuracy    <       0.00002186 Ry

     total magnetization       =     8.00 Bohr mag/cell
     absolute magnetization    =     8.24 Bohr mag/cell

     iteration # 14     ecut=   100.00 Ry     beta= 0.70
     Davidson diagonalization with overlap
     ethr =  2.70E-09,  avg # of iterations =  3.0

     total cpu time spent up to now is     7380.8 secs

     total energy              =   -1885.68789238 Ry
     Harris-Foulkes estimate   =   -1885.68789177 Ry
     estimated scf accuracy    <       0.00000251 Ry

     total magnetization       =     8.00 Bohr mag/cell
     absolute magnetization    =     8.24 Bohr mag/cell

     iteration # 15     ecut=   100.00 Ry     beta= 0.70
     Davidson diagonalization with overlap
     ethr =  5.42E-10,  avg # of iterations =  4.5
 
     Magnetic moment per site:
     atom:    1    charge:    0.8597    magn:    0.0061    constr:    0.0000
     atom:    2    charge:    0.8601    magn:    0.0062    constr:    0.0000
     atom:    3    charge:    0.8590    magn:    0.0059    constr:    0.0000
     atom:    4    charge:    0.8589    magn:    0.0060    constr:    0.0000
     atom:    5    charge:    0.8631    magn:    0.0043    constr:    0.0000
     atom:    6    charge:    0.8645    magn:    0.0044    constr:    0.0000
     atom:    7    charge:    0.8583    magn:    0.0100    constr:    0.0000
     atom:    8    charge:    0.8667    magn:    0.0042    constr:    0.0000
     atom:    9    charge:    0.8586    magn:    0.0013    constr:    0.0000
     atom:   10    charge:    0.8521    magn:    0.0059    constr:    0.0000
     atom:   11    charge:    0.8485    magn:    0.0061    constr:    0.0000
     atom:   12    charge:    0.8489    magn:    0.0062    constr:    0.0000
     atom:   13    charge:    0.8538    magn:    0.0062    constr:    0.0000
     atom:   14    charge:    0.8528    magn:    0.0063    constr:    0.0000
     atom:   15    charge:    0.8211    magn:    0.0010    constr:    0.0000
     atom:   16    charge:    0.8527    magn:    0.0057    constr:    0.0000
     atom:   17    charge:    0.8443    magn:    0.0093    constr:    0.0000
     atom:   18    charge:    0.8622    magn:    0.0045    constr:    0.0000
     atom:   19    charge:    0.8734    magn:    0.0030    constr:    0.0000
     atom:   20    charge:    0.8555    magn:    0.0061    constr:    0.0000
     atom:   21    charge:    0.8352    magn:   -0.0022    constr:    0.0000
     atom:   22    charge:    0.8348    magn:   -0.0022    constr:    0.0000
     atom:   23    charge:    0.8353    magn:   -0.0019    constr:    0.0000
     atom:   24    charge:    0.8359    magn:   -0.0023    constr:    0.0000
     atom:   25    charge:    0.8597    magn:    0.0061    constr:    0.0000
     atom:   26    charge:    0.8601    magn:    0.0062    constr:    0.0000
     atom:   27    charge:    0.8590    magn:    0.0059    constr:    0.0000
     atom:   28    charge:    0.8589    magn:    0.0060    constr:    0.0000
     atom:   29    charge:    0.8631    magn:    0.0043    constr:    0.0000
     atom:   30    charge:    0.8645    magn:    0.0044    constr:    0.0000
     atom:   31    charge:    0.8583    magn:    0.0100    constr:    0.0000
     atom:   32    charge:    0.8667    magn:    0.0042    constr:    0.0000
     atom:   33    charge:    0.8586    magn:    0.0013    constr:    0.0000
     atom:   34    charge:    0.8521    magn:    0.0059    constr:    0.0000
     atom:   35    charge:    0.8485    magn:    0.0061    constr:    0.0000
     atom:   36    charge:    0.8489    magn:    0.0062    constr:    0.0000
     atom:   37    charge:    0.8538    magn:    0.0062    constr:    0.0000
     atom:   38    charge:    0.8528    magn:    0.0063    constr:    0.0000
     atom:   39    charge:    0.8211    magn:    0.0010    constr:    0.0000
     atom:   40    charge:    0.8527    magn:    0.0057    constr:    0.0000
     atom:   41    charge:    0.8443    magn:    0.0093    constr:    0.0000
     atom:   42    charge:    0.8622    magn:    0.0045    constr:    0.0000
     atom:   43    charge:    0.8734    magn:    0.0030    constr:    0.0000
     atom:   44    charge:    0.8555    magn:    0.0061    constr:    0.0000
     atom:   45    charge:    0.8352    magn:   -0.0022    constr:    0.0000
     atom:   46    charge:    0.8348    magn:   -0.0022    constr:    0.0000
     atom:   47    charge:    0.8353    magn:   -0.0019    constr:    0.0000
     atom:   48    charge:    0.8359    magn:   -0.0023    constr:    0.0000
     atom:   49    charge:    0.8882    magn:    0.0037    constr:    0.0000
     atom:   50    charge:    0.8899    magn:    0.0036    constr:    0.0000
     atom:   51    charge:    0.9008    magn:    0.0027    constr:    0.0000
     atom:   52    charge:    0.9155    magn:    0.0030    constr:    0.0000
     atom:   53    charge:    0.8882    magn:    0.0037    constr:    0.0000
     atom:   54    charge:    0.8899    magn:    0.0036    constr:    0.0000
     atom:   55    charge:    0.9008    magn:    0.0027    constr:    0.0000
     atom:   56    charge:    0.9155    magn:    0.0030    constr:    0.0000
     atom:   57    charge:    0.5088    magn:   -0.0011    constr:    0.0000
     atom:   58    charge:    0.5082    magn:   -0.0011    constr:    0.0000
     atom:   59    charge:    0.5057    magn:   -0.0014    constr:    0.0000
     atom:   60    charge:    0.5071    magn:   -0.0005    constr:    0.0000
     atom:   61    charge:    0.5115    magn:   -0.0008    constr:    0.0000
     atom:   62    charge:    0.5131    magn:   -0.0008    constr:    0.0000
     atom:   63    charge:    0.5131    magn:   -0.0008    constr:    0.0000
     atom:   64    charge:    0.5106    magn:   -0.0008    constr:    0.0000
     atom:   65    charge:    0.5102    magn:   -0.0008    constr:    0.0000
     atom:   66    charge:    0.5140    magn:    0.0013    constr:    0.0000
     atom:   67    charge:    0.5096    magn:   -0.0010    constr:    0.0000
     atom:   68    charge:    0.5025    magn:   -0.0012    constr:    0.0000
     atom:   69    charge:    0.5088    magn:   -0.0011    constr:    0.0000
     atom:   70    charge:    0.5082    magn:   -0.0011    constr:    0.0000
     atom:   71    charge:    0.5057    magn:   -0.0014    constr:    0.0000
     atom:   72    charge:    0.5071    magn:   -0.0005    constr:    0.0000
     atom:   73    charge:    0.5115    magn:   -0.0008    constr:    0.0000
     atom:   74    charge:    0.5131    magn:   -0.0008    constr:    0.0000
     atom:   75    charge:    0.5131    magn:   -0.0008    constr:    0.0000
     atom:   76    charge:    0.5106    magn:   -0.0008    constr:    0.0000
     atom:   77    charge:    0.5102    magn:   -0.0008    constr:    0.0000
     atom:   78    charge:    0.5140    magn:    0.0013    constr:    0.0000
     atom:   79    charge:    0.5096    magn:   -0.0010    constr:    0.0000
     atom:   80    charge:    0.5025    magn:   -0.0012    constr:    0.0000
     atom:   81    charge:    1.8240    magn:    0.0082    constr:    0.0000
     atom:   82    charge:    1.8230    magn:    0.0082    constr:    0.0000
     atom:   83    charge:    1.8154    magn:    0.0155    constr:    0.0000
     atom:   84    charge:    1.8189    magn:    0.0084    constr:    0.0000
     atom:   85    charge:    1.8240    magn:    0.0082    constr:    0.0000
     atom:   86    charge:    1.8230    magn:    0.0082    constr:    0.0000
     atom:   87    charge:    1.8154    magn:    0.0155    constr:    0.0000
     atom:   88    charge:    1.8189    magn:    0.0084    constr:    0.0000
     atom:   89    charge:    1.7640    magn:    0.0354    constr:    0.0000
     atom:   90    charge:    1.7633    magn:    0.0353    constr:    0.0000
     atom:   91    charge:    1.7724    magn:    0.0342    constr:    0.0000
     atom:   92    charge:    1.7662    magn:    0.0142    constr:    0.0000
     atom:   93    charge:    1.7640    magn:    0.0354    constr:    0.0000
     atom:   94    charge:    1.7632    magn:    0.0353    constr:    0.0000
     atom:   95    charge:    1.7724    magn:    0.0342    constr:    0.0000
     atom:   96    charge:    1.7662    magn:    0.0142    constr:    0.0000
     atom:   97    charge:    7.4578    magn:    1.1071    constr:    0.0000
     atom:   98    charge:    7.4535    magn:    1.1291    constr:    0.0000
     atom:   99    charge:    7.4578    magn:    1.1071    constr:    0.0000
     atom:  100    charge:    7.4535    magn:    1.1291    constr:    0.0000
     atom:  101    charge:    3.3037    magn:    0.0530    constr:    0.0000
     atom:  102    charge:    3.3034    magn:    0.0534    constr:    0.0000
     atom:  103    charge:    3.3068    magn:    0.0558    constr:    0.0000
     atom:  104    charge:    3.3024    magn:    0.0563    constr:    0.0000
     atom:  105    charge:    3.3020    magn:    0.0536    constr:    0.0000
     atom:  106    charge:    3.3051    magn:    0.0567    constr:    0.0000
     atom:  107    charge:    3.3034    magn:    0.0552    constr:    0.0000
     atom:  108    charge:    3.3008    magn:    0.0544    constr:    0.0000
     atom:  109    charge:    3.3037    magn:    0.0530    constr:    0.0000
     atom:  110    charge:    3.3034    magn:    0.0534    constr:    0.0000
     atom:  111    charge:    3.3068    magn:    0.0558    constr:    0.0000
     atom:  112    charge:    3.3024    magn:    0.0563    constr:    0.0000
     atom:  113    charge:    3.3020    magn:    0.0536    constr:    0.0000
     atom:  114    charge:    3.3051    magn:    0.0567    constr:    0.0000
     atom:  115    charge:    3.3034    magn:    0.0552    constr:    0.0000
     atom:  116    charge:    3.3008    magn:    0.0544    constr:    0.0000

     total cpu time spent up to now is     7580.2 secs

     End of self-consistent calculation

 ------ SPIN UP ------------


          k = 0.0000 0.0000 0.0000 ( 91663 PWs)   bands (ev):

   -21.7022 -21.6992 -21.6745 -21.6692 -21.5765 -21.5759 -21.5501 -21.5463
   -19.5603 -19.5317 -18.8362 -18.8341 -18.8292 -18.8244 -18.8235 -18.8163
   -18.8094 -18.7998 -18.7417 -18.7255 -18.7130 -18.6961 -18.6440 -18.6306
   -18.4286 -18.4034 -16.6864 -16.6654 -16.5894 -16.5680 -16.5413 -16.5107
   -15.6587 -15.6492 -15.4847 -15.4826 -15.2432 -15.2325 -15.2180 -15.1965
   -14.5642 -14.5522 -14.2414 -14.2156 -14.1947 -14.1830 -14.1105 -14.0950
   -12.2544 -12.2432 -11.9543 -11.9430 -11.8200 -11.8020 -11.7807 -11.7719
   -11.7269 -11.7242 -11.2806 -11.2299 -11.2145 -11.1850 -11.1764 -11.1579
    -9.8627  -9.8090  -9.2479  -9.2060  -9.2011  -9.1598  -9.1240  -9.1142
    -8.9697  -8.8970  -8.4411  -8.4378  -8.3520  -8.2851  -8.2607  -8.2192
    -7.8148  -7.8064  -7.7183  -7.5038  -7.4569  -7.4181  -7.4043  -7.3822
[...]

     The total energy is the sum of the following terms:

     one-electron contribution =   -2428.37754550 Ry
     hartree contribution      =    1390.69493872 Ry
     xc contribution           =    -580.78404575 Ry
     ewald contribution        =    -270.12106823 Ry
     Dispersion Correction     =      -0.55817953 Ry
     smearing contrib. (-TS)   =       3.13189583 Ry

     total magnetization       =     8.00 Bohr mag/cell
     absolute magnetization    =     8.25 Bohr mag/cell

     convergence has been achieved in  11 iterations

     Forces acting on atoms (cartesian axes, Ry/au):

     atom    1 type  1   force =    -0.00024119    0.00059709    0.00017630
     atom    2 type  1   force =    -0.00046612   -0.00001485   -0.00005803
     atom    3 type  1   force =     0.00020344    0.00029499    0.00014801
     atom    4 type  1   force =     0.00032520    0.00003715   -0.00029502
     atom    5 type  1   force =    -0.00003584    0.00000936   -0.00005055
     atom    6 type  1   force =     0.00004833    0.00016164   -0.00022181
     atom    7 type  1   force =     0.00043189   -0.00027209    0.00000993
     atom    8 type  1   force =    -0.00006857    0.00026729    0.00001419
     atom    9 type  1   force =    -0.00021345   -0.00045469    0.00000633
     atom   10 type  1   force =    -0.00019526   -0.00005381   -0.00022517
     atom   11 type  1   force =     0.00023654   -0.00004468    0.00000926
     atom   12 type  1   force =     0.00091784   -0.00039790    0.00002991
     atom   13 type  1   force =    -0.00005137   -0.00009711    0.00001871
     atom   14 type  1   force =    -0.00047964    0.00018664   -0.00007562
     atom   15 type  1   force =     0.00012981   -0.00002572   -0.00011331
     atom   16 type  1   force =    -0.00010560    0.00023296   -0.00015430
     atom   17 type  1   force =    -0.00006092    0.00009115   -0.00023047
     atom   18 type  1   force =    -0.00018877    0.00001058   -0.00014043
     atom   19 type  1   force =     0.00016367    0.00000806    0.00014979
     atom   20 type  1   force =     0.00011653   -0.00006932    0.00011082
     atom   21 type  1   force =     0.00003708   -0.00030417   -0.00035812
     atom   22 type  1   force =     0.00033708   -0.00046904   -0.00052033
     atom   23 type  1   force =     0.00062974   -0.00031266   -0.00010811
     atom   24 type  1   force =    -0.00026642   -0.00039200    0.00023693
     atom   25 type  1   force =    -0.00008721   -0.00003819    0.00098632
     atom   26 type  1   force =     0.00001829   -0.00031221   -0.00014668
     atom   27 type  1   force =     0.00011015    0.00049525   -0.00014041
     atom   28 type  1   force =     0.00017152    0.00004850   -0.00042785
     atom   29 type  1   force =     0.00002355   -0.00012103    0.00013828
     atom   30 type  1   force =     0.00003175    0.00013393   -0.00033192
     atom   31 type  1   force =     0.00028288   -0.00023051    0.00012561
     atom   32 type  1   force =     0.00003362    0.00021062   -0.00004920
     atom   33 type  1   force =    -0.00001218   -0.00035999   -0.00007530
     atom   34 type  1   force =    -0.00016961   -0.00008264   -0.00016925
     atom   35 type  1   force =     0.00088470    0.00056500   -0.00022680
     atom   36 type  1   force =     0.00014190    0.00004533    0.00007410
     atom   37 type  1   force =     0.00002032    0.00014099   -0.00018241
     atom   38 type  1   force =    -0.00052307    0.00021493    0.00005733
     atom   39 type  1   force =     0.00016107    0.00005039   -0.00010548
     atom   40 type  1   force =    -0.00023347    0.00029295   -0.00014317
     atom   41 type  1   force =     0.00004403    0.00017662   -0.00019968
     atom   42 type  1   force =    -0.00004405    0.00004970   -0.00020918
     atom   43 type  1   force =     0.00026087    0.00002686    0.00009427
     atom   44 type  1   force =     0.00010850   -0.00018898    0.00022426
     atom   45 type  1   force =    -0.00001584   -0.00029539   -0.00038463
     atom   46 type  1   force =     0.00044524   -0.00042017   -0.00033894
     atom   47 type  1   force =     0.00057008   -0.00034818   -0.00004941
     atom   48 type  1   force =    -0.00028383   -0.00027741    0.00018310
     atom   49 type  1   force =     0.00022524    0.00006895    0.00006264
     atom   50 type  1   force =    -0.00014528   -0.00027711   -0.00022429
     atom   51 type  1   force =    -0.00006716    0.00028407    0.00007099
     atom   52 type  1   force =    -0.00037216    0.00018126    0.00011123
     atom   53 type  1   force =    -0.00009754   -0.00007048   -0.00004242
     atom   54 type  1   force =     0.00023487   -0.00041241   -0.00002441
     atom   55 type  1   force =    -0.00066979    0.00006380    0.00030810
     atom   56 type  1   force =    -0.00057907    0.00009261    0.00030635
     atom   57 type  2   force =     0.00000976    0.00014865    0.00046648
     atom   58 type  2   force =    -0.00050025    0.00006958   -0.00002977
     atom   59 type  2   force =     0.00025135   -0.00012486    0.00014256
     atom   60 type  2   force =    -0.00000659   -0.00008658   -0.00006973
     atom   61 type  2   force =    -0.00001654   -0.00071929    0.00009405
     atom   62 type  2   force =     0.00006830   -0.00000784    0.00003237
     atom   63 type  2   force =    -0.00010125    0.00010188    0.00067808
     atom   64 type  2   force =    -0.00009919   -0.00027476    0.00009876
     atom   65 type  2   force =    -0.00010747    0.00000652   -0.00013566
     atom   66 type  2   force =     0.00059725    0.00000934    0.00001762
     atom   67 type  2   force =    -0.00035175    0.00007133   -0.00021908
     atom   68 type  2   force =     0.00051146   -0.00016893    0.00011478
     atom   69 type  2   force =    -0.00013728    0.00029267    0.00021563
     atom   70 type  2   force =    -0.00047735    0.00005864   -0.00005989
     atom   71 type  2   force =     0.00035221   -0.00022465   -0.00002524
     atom   72 type  2   force =    -0.00014321   -0.00019243   -0.00007718
     atom   73 type  2   force =     0.00002748   -0.00078003    0.00013314
     atom   74 type  2   force =    -0.00030688   -0.00021915    0.00001580
     atom   75 type  2   force =    -0.00031103    0.00021819    0.00068384
     atom   76 type  2   force =    -0.00007870   -0.00031704    0.00016385
     atom   77 type  2   force =    -0.00008290    0.00006329   -0.00009458
     atom   78 type  2   force =     0.00066086   -0.00009257    0.00002492
     atom   79 type  2   force =    -0.00028719    0.00009237   -0.00027567
     atom   80 type  2   force =     0.00045850   -0.00018975    0.00014068
     atom   81 type  3   force =    -0.00002474    0.00009299   -0.00012244
     atom   82 type  3   force =    -0.00099763    0.00040609    0.00021934
     atom   83 type  3   force =     0.00048087   -0.00033553   -0.00032147
     atom   84 type  3   force =    -0.00055812    0.00067928   -0.00013044
     atom   85 type  3   force =    -0.00020390   -0.00001906   -0.00012667
     atom   86 type  3   force =    -0.00065501    0.00027207    0.00023666
     atom   87 type  3   force =     0.00041285   -0.00025278   -0.00016238
     atom   88 type  3   force =    -0.00058071    0.00060077   -0.00005019
     atom   89 type  3   force =    -0.00021684    0.00053791   -0.00034465
     atom   90 type  3   force =     0.00038457   -0.00003838    0.00080650
     atom   91 type  3   force =     0.00044478   -0.00024676   -0.00005699
     atom   92 type  3   force =     0.00005347    0.00010051    0.00001436
     atom   93 type  3   force =    -0.00005549    0.00060427   -0.00028261
     atom   94 type  3   force =    -0.00000099    0.00012002    0.00064021
     atom   95 type  3   force =     0.00087577   -0.00008677   -0.00027007
     atom   96 type  3   force =     0.00026548    0.00019514   -0.00012292
     atom   97 type  4   force =     0.00020067    0.00022045    0.00064552
     atom   98 type  4   force =    -0.00091608   -0.00028401    0.00022264
     atom   99 type  4   force =    -0.00055391    0.00061944    0.00072317
     atom  100 type  4   force =    -0.00069048    0.00041254   -0.00081309
     atom  101 type  5   force =    -0.00026370    0.00010857   -0.00036205
     atom  102 type  5   force =     0.00001609   -0.00005429    0.00019529
     atom  103 type  5   force =    -0.00024350    0.00009629   -0.00021439
     atom  104 type  5   force =    -0.00015539    0.00028483    0.00016783
     atom  105 type  5   force =     0.00081951    0.00015932   -0.00026329
     atom  106 type  5   force =    -0.00035555   -0.00025539    0.00008921
     atom  107 type  5   force =     0.00041447   -0.00044163   -0.00022982
     atom  108 type  5   force =     0.00022893    0.00029770    0.00042312
     atom  109 type  5   force =    -0.00034560    0.00011959   -0.00037878
     atom  110 type  5   force =     0.00000967   -0.00017503    0.00032549
     atom  111 type  5   force =    -0.00025671    0.00007693   -0.00015500
     atom  112 type  5   force =    -0.00013073    0.00011304    0.00000283
     atom  113 type  5   force =     0.00068489    0.00009743   -0.00022663
     atom  114 type  5   force =    -0.00025709   -0.00030368    0.00012723
     atom  115 type  5   force =     0.00036999   -0.00044370   -0.00025664
     atom  116 type  5   force =     0.00019827    0.00029135    0.00038526

     Total force =     0.005787     Total SCF correction =     0.000166

     bfgs converged in  59 scf cycles and  58 bfgs steps
     (criteria: energy <  1.0E-04 Ry, force <  1.0E-03 Ry/Bohr)

     End of BFGS Geometry Optimization

     Final energy   =   -1886.0140044505 Ry
Begin final coordinates

ATOMIC_POSITIONS (crystal)
C             0.2905953417        0.9692390912        0.5216206659
C             0.0389460328        0.0273199365        0.0224736936
C             0.3904862874        0.0146199325        0.5484434355
C             0.1392917251        0.9831246248        0.0485446633
C             0.4532372453        0.9737440824        0.6538582998
C             0.2016500863        0.0224084236        0.1552770858
C             0.2055445593        0.5320375089        0.5215001871
C             0.4652002467        0.4768367391        0.0364486129
C             0.2410420063        0.6158486491        0.6045346714
C             0.4988439075        0.3866752693        0.1086078536
C             0.2549974495        0.8841786196        0.5976991721
C             0.0027868508        0.1113563436        0.0995744716
C             0.4108074825        0.8883222262        0.7278002358
C             0.1588227125        0.1068579002        0.2302374342
C             0.0842348705        0.6032393165        0.7345451672
C             0.3353987489        0.3824727409        0.2165809864
C             0.0424579436        0.5171563550        0.6427482070
C             0.2971911306        0.4715444003        0.1477600156
C             0.1067629716        0.4835483669        0.5410914340
C             0.3625120696        0.5213417934        0.0578079914
C             0.4304988782        0.1026295063        0.4692344354
C             0.1809933622        0.8982835302        0.9663785409
C             0.0689754969        0.3950268649        0.4590107180
C             0.3249094948        0.6143516684        0.9831898567
C             0.7905850550        0.9692498803        0.5215902724
C             0.5389246245        0.0273250108        0.0224660895
C             0.8904834073        0.0146105128        0.5484507019
C             0.6392813263        0.9831235886        0.0485405877
C             0.9532389123        0.9737455413        0.6538543536
C             0.7016376967        0.0224020777        0.1552742310
C             0.7055494529        0.5320362303        0.5214864891
C             0.9652008220        0.4768530644        0.0364645099
C             0.7410407177        0.6158426762        0.6045250712
C             0.9988501408        0.3866872727        0.1086148306
C             0.7549845228        0.8841694523        0.5977024541
C             0.5028026415        0.1113528073        0.0995622221
C             0.9108119975        0.8883123261        0.7278005182
C             0.6588149098        0.1068567233        0.2302205107
C             0.5842267746        0.6032329830        0.7345294902
C             0.8354075745        0.3824727746        0.2165860711
C             0.5424567316        0.5171479499        0.6427260861
C             0.7971871290        0.4715421035        0.1477598191
C             0.6067644989        0.4835456807        0.5410714197
C             0.8625073477        0.5213497787        0.0578021837
C             0.9305000636        0.1026199065        0.4692394196
C             0.6809837098        0.8982886904        0.9663553429
C             0.5689832973        0.3950285367        0.4589842102
C             0.8249018044        0.6143482839        0.9831829586
C             0.5527989324        0.0167310916        0.6924802014
C             0.3010568359        0.9787595547        0.1936578672
C             0.9449701720        0.4720595829        0.6758915597
C             0.5319404693        0.5196335417        0.9436063469
C             0.0528082259        0.0167393415        0.6924784631
C             0.8010458769        0.9787487251        0.1936418246
C             0.4449835409        0.4720483152        0.6758713790
C             0.0319533903        0.5196422338        0.9436268359
H             0.2394263485        0.9991183922        0.4452043825
H             0.4882828272       -0.0024121143        0.9454636864
H             0.2567520449        0.5049162139        0.4457846747
H             0.3166618734        0.6539453446        0.5878428655
H             0.0768495343        0.3521419476        0.0964724102
H             0.1787440708        0.8470006391        0.5794955954
H             0.4265787502        0.1484920641        0.0814824683
H             0.4544885277        0.8560772262        0.8097296091
H             0.2023062846        0.1392996930        0.3121941708
H             0.0258827374        0.6674008899        0.7445433194
H             0.2894196174        0.3433758276        0.2892402946
H             0.2184461222        0.5015564144        0.1660161156
H             0.7394179087        0.9991179770        0.4451962169
H             0.9882942642       -0.0024285768        0.9454874119
H             0.7567619603        0.5049316309        0.4457874809
H             0.8166668820        0.6539545497        0.5878467277
H             0.5768398779        0.3521355660        0.0964484337
H             0.6787552925        0.8470003951        0.5794929193
H             0.9265760150        0.1484860417        0.0814812202
H             0.9544979115        0.8560703401        0.8097212523
H             0.7022978001        0.1392803727        0.3121823859
H             0.5258769732        0.6674076221        0.7445206720
H             0.7894237543        0.3433798415        0.2892516855
H             0.7184470189        0.5015602846        0.1660133971
N             0.3141899942        0.8464014243        0.6994795201
N             0.0620378011        0.1483907373        0.2018029366
N             0.1876208643        0.6493344313        0.7054489237
N             0.4349778402        0.3430915282        0.1972209298
N             0.8141977174        0.8463998948        0.6994731921
N             0.5620248781        0.1483958454        0.2017972291
N             0.6876181366        0.6493209011        0.7054295441
N             0.9349866578        0.3430985041        0.1972243842
N             0.6351657633        0.0482765338        0.7323677668
N             0.3828632940        0.9456648558        0.2333485705
N             0.8654090958        0.4427764620        0.7221969107
N             0.5895696994        0.5544624497        0.8671244385
N             0.1351705015        0.0482732349        0.7323789692
N             0.8828593337        0.9456575773        0.2333499834
N             0.3654165605        0.4427669131        0.7221968731
N             0.0895659464        0.5544689959        0.8671369028
Ni            0.2481103985        0.7521531041        0.8356398580
Ni            0.4974841803        0.2465934348        0.3322662350
Ni            0.7481600173        0.7521118320        0.8356428583
Ni            0.9974740735        0.2465711226        0.3322876449
O             0.1276606902        0.3477243072        0.3755965164
O             0.3787150496        0.6550702521        0.8896248407
O             0.3704730601        0.1534133504        0.3861985979
O             0.1211718337        0.8445036994        0.8853866582
O             0.4723485244        0.3601508970        0.4682754187
O             0.2341337544        0.6578623007        1.0045401253
O             0.0283248645        0.1339090845        0.4764880838
O             0.2801698747        0.8725478265        0.9703249555
O             0.6276724226        0.3477344648        0.3755658877
O             0.8787090762        0.6550899698        0.8896152342
O             0.8704783006        0.1534014780        0.3861879362
O             0.6211669822        0.8445258600        0.8853738045
O             0.9723420268        0.3601614298        0.4682848576
O             0.7341189797        0.6578544711        1.0045200791
O             0.5283281769        0.1339131694        0.4764823953
O             0.7801647295        0.8725469459        0.9703243857
End final coordinates



     Writing output data file /nfs/hpc/share/gantzlen/NiPyC2_relax_sc211_meta_functionalized_C-N_vdw-df2_relax.save/
 
     init_run     :    102.44s CPU    106.96s WALL (       1 calls)
     electrons    : 116668.29s CPU 132894.67s WALL (      59 calls)
     update_pot   :   1183.43s CPU   1259.72s WALL (      58 calls)
     forces       :   2366.81s CPU   2526.40s WALL (      59 calls)

     Called by init_run:
     wfcinit      :     75.04s CPU     78.31s WALL (       1 calls)
     potinit      :     20.57s CPU     21.74s WALL (       1 calls)
     hinit0       :      5.36s CPU      5.42s WALL (       1 calls)

     Called by electrons:
     c_bands      : 103088.22s CPU 117470.74s WALL (     778 calls)
     sum_band     :   5225.55s CPU   5911.68s WALL (     778 calls)
     v_of_rho     :   7420.90s CPU   8335.76s WALL (     819 calls)
     mix_rho      :   1394.42s CPU   1634.40s WALL (     778 calls)
     vdW_kernel   :      7.04s CPU      7.15s WALL (       1 calls)

     Called by c_bands:
     init_us_2    :     73.50s CPU     76.81s WALL (    1557 calls)
     regterg      : 101909.61s CPU 110622.14s WALL (     778 calls)

     Called by sum_band:

     Called by *egterg:
     h_psi        :  39399.03s CPU  43349.19s WALL (    3456 calls)
     g_psi        :     25.52s CPU     26.32s WALL (    2677 calls)
     rdiaghg      :   3287.58s CPU   3326.61s WALL (    3379 calls)

     Called by h_psi:
     h_psi:calbec :  10239.10s CPU  11322.54s WALL (    3456 calls)
     vloc_psi     :  19081.12s CPU  21914.57s WALL (    3456 calls)
     add_vuspsi   :   9995.39s CPU  10024.88s WALL (    3456 calls)

     General routines
     calbec       :  11577.41s CPU  12739.60s WALL (    3692 calls)
     fft          :   5321.96s CPU   6187.70s WALL (   69161 calls)
     ffts         :   1005.96s CPU   1174.67s WALL (   13473 calls)
     fftw         :  21066.76s CPU  24394.39s WALL (  633142 calls)
 
     Parallel routines
     fft_scatt_xy :   3797.48s CPU   3978.25s WALL (  715776 calls)
     fft_scatt_yz :   6343.97s CPU   9799.26s WALL (  715776 calls)
 
     PWSCF        :   1d 9h25m CPU   1d14h 0m WALL

 
   This run was terminated on:   1:45:35  31Jul2020            

=------------------------------------------------------------------------------=
   JOB DONE.
=------------------------------------------------------------------------------=
QE finished Fri Jul 31 01:45:36 PDT 2020
