/apps/openmpi/3.1_intel-19/bin/mpiexec
/apps/qe/6.5/bin/pw.x
starting QE Wed Jul 29 11:44:54 PDT 2020

     Program PWSCF v.6.5 starts on 29Jul2020 at 11:44:55 

     This program is part of the open-source Quantum ESPRESSO suite
     for quantum simulation of materials; please cite
         "P. Giannozzi et al., J. Phys.:Condens. Matter 21 395502 (2009);
         "P. Giannozzi et al., J. Phys.:Condens. Matter 29 465901 (2017);
          URL http://www.quantum-espresso.org", 
     in publications or presentations arising from this work. More details at
     http://www.quantum-espresso.org/quote

     Parallel version (MPI & OpenMP), running on      16 processor cores
     Number of MPI processes:                16
     Threads/MPI process:                     1

     MPI processes distributed on     1 nodes
     K-points division:     npool     =       2
     R & G space division:  proc/nbgrp/npool/nimage =       8
     Reading input from ./QE_input_scripts/pw.NiPyC2_relax_sc211_meta_functionalized_C-C_vdw-df2_relax.in
Warning: card &CELL ignored
Warning: card    CELL_DYNAMICS = 'BFGS' ignored
Warning: card    CELL_DOFREE = 'XYZ' ignored
Warning: card / ignored

     Current dimensions of program PWSCF are:
     Max number of different atomic species (ntypx) = 10
     Max number of k-points (npk) =  40000
     Max angular momentum in pseudopotentials (lmaxx) =  3

     IMPORTANT: XC functional enforced from input :
     Exchange-correlation= VDW-DF2
                           (   1   4  13   0   2   0   0)
     Any further DFT definition will be discarded
     Please, verify this is what you really want


     -------------------------------------------------
     Parameters for Dispersion (Grimme-D2) Correction:
     -------------------------------------------------
       atom      VdW radius       C_6     

        C          2.744         60.710
        H          1.892          4.857
        N          2.640         42.670
        Ni         2.952        374.666
        O          2.536         24.284

     gamma-point specific algorithms are used

     Subspace diagonalization in iterative solution of the eigenvalue problem:
     a serial algorithm will be used

 
     Parallelization info
     --------------------
     sticks:   dense  smooth     PW     G-vecs:    dense   smooth      PW
     Min        2228    2228    556               183376   183376   22914
     Max        2230    2230    558               183380   183380   22917
     Sum       17829   17829   4453              1467017  1467017  183325
 


     bravais-lattice index     =            0
     lattice parameter (alat)  =      23.6322  a.u.
     unit-cell volume          =   10858.6228 (a.u.)^3
     number of atoms/cell      =          124
     number of atomic types    =            5
     number of electrons       =       464.00 (up: 236.00, down: 228.00)
     number of Kohn-Sham states=          283
     kinetic-energy cutoff     =     100.0000  Ry
     charge density cutoff     =     400.0000  Ry
     convergence threshold     =      1.0E-06
     mixing beta               =       0.7000
     number of iterations used =            8  local-TF  mixing
     Exchange-correlation= VDW-DF2
                           (   1   4  13   0   2   0   0)
     nstep                     =          200


     celldm(1)=  23.632159  celldm(2)=   0.000000  celldm(3)=   0.000000
     celldm(4)=   0.000000  celldm(5)=   0.000000  celldm(6)=   0.000000

     crystal axes: (cart. coord. in units of alat)
               a(1) = (   1.000000   0.000000   0.000000 )  
               a(2) = (   0.000000   1.001423   0.000000 )  
               a(3) = (  -0.018199   0.000000   0.821574 )  

     reciprocal axes: (cart. coord. in units 2 pi/alat)
               b(1) = (  1.000000  0.000000  0.022152 )  
               b(2) = (  0.000000  0.998579  0.000000 )  
               b(3) = (  0.000000  0.000000  1.217175 )  


     PseudoPot. # 1 for C  read from file:
     ./pseudo/C.pbesol-nc.UPF
     MD5 check sum: ce26087537ded160c8d400e183a8bf42
     Pseudo is Norm-conserving, Zval =  4.0
     Generated using "atomic" code by A. Dal Corso v.6.5
     Using radial grid of 1073 points,  1 beta functions with: 
                l(1) =   1

     PseudoPot. # 2 for H  read from file:
     ./pseudo/H.pbesol-n-nc.UPF
     MD5 check sum: 7995ef24074557c85b430109caaacc09
     Pseudo is Norm-conserving, Zval =  1.0
     Generated using "atomic" code by A. Dal Corso v.6.5
     Using radial grid of  929 points,  0 beta functions with: 

     PseudoPot. # 3 for N  read from file:
     ./pseudo/N.pbesol-nc.UPF
     MD5 check sum: e18cc5e4b8a5600c1a19b30c2cab1ca0
     Pseudo is Norm-conserving, Zval =  5.0
     Generated using "atomic" code by A. Dal Corso v.6.5
     Using radial grid of 1085 points,  1 beta functions with: 
                l(1) =   1

     PseudoPot. # 4 for Ni read from file:
     ./pseudo/Ni.pbesol-n-nc.UPF
     MD5 check sum: 623411631e0c2eb7c0b2b9815547d2d9
     Pseudo is Norm-conserving + core correction, Zval = 10.0
     Generated using "atomic" code by A. Dal Corso v.6.5
     Using radial grid of 1195 points,  2 beta functions with: 
                l(1) =   1
                l(2) =   2

     PseudoPot. # 5 for O  read from file:
     ./pseudo/O.pbesol-nc.UPF
     MD5 check sum: 73d10e7e91dbfcbe8a7e362101007f84
     Pseudo is Norm-conserving, Zval =  6.0
     Generated using "atomic" code by A. Dal Corso v.6.5
     Using radial grid of 1095 points,  1 beta functions with: 
                l(1) =   1

     atomic species   valence    mass     pseudopotential
        C              4.00    12.01070     C ( 1.00)
        H              1.00     1.00794     H ( 1.00)
        N              5.00    14.00670     N ( 1.00)
        Ni            10.00    58.69340     Ni( 1.00)
        O              6.00    15.99940     O ( 1.00)

     Starting magnetic structure 
     atomic species   magnetization
        C            0.000
        H            0.000
        N            0.000
        Ni           0.250
        O            0.000

     No symmetry found



   Cartesian axes

     site n.     atom                  positions (alat units)
         1           C   tau(   1) = (   0.2787122   0.9714307   0.4288486  )
         2           C   tau(   2) = (   0.0379730   0.0311503   0.0183277  )
         3           C   tau(   3) = (   0.3806882   0.0117868   0.4489838  )
         4           C   tau(   4) = (   0.1394042   0.9891499   0.0379124  )
         5           C   tau(   5) = (   0.4400787   0.9715829   0.5343281  )
         6           C   tau(   6) = (   0.1997920   0.0283934   0.1231482  )
         7           C   tau(   7) = (   0.1986011   0.5304580   0.4324635  )
         8           C   tau(   8) = (   0.4580372   0.4720800   0.0229252  )
         9           C   tau(   9) = (   0.2341003   0.6142040   0.4982314  )
        10           C   tau(  10) = (   0.4948422   0.3892302   0.0892369  )
        11           C   tau(  11) = (   0.2384981   0.8904717   0.4955761  )
        12           C   tau(  12) = (  -0.0008282   0.1123917   0.0856467  )
        13           C   tau(  13) = (   0.3947360   0.8906489   0.5977380  )
        14           C   tau(  14) = (   0.1557890   0.1097029   0.1871645  )
        15           C   tau(  15) = (   0.0756247   0.6098498   0.5975737  )
        16           C   tau(  16) = (   0.3367152   0.3921904   0.1884642  )
        17           C   tau(  17) = (   0.0350715   0.5258264   0.5351012  )
        18           C   tau(  18) = (   0.2948780   0.4753867   0.1254988  )
        19           C   tau(  19) = (   0.0981522   0.4849593   0.4519611  )
        20           C   tau(  20) = (   0.3569104   0.5163900   0.0416029  )
        21           C   tau(  21) = (   0.4248178   0.0994604   0.3833638  )
        22           C   tau(  22) = (   0.1639424   0.9010006   0.7933713  )
        23           C   tau(  23) = (   0.0588120   0.3950355   0.3866953  )
        24           C   tau(  24) = (   0.2984059   0.6050320   0.7961934  )
        25           C   tau(  25) = (   0.7787122   0.9714307   0.4288486  )
        26           C   tau(  26) = (   0.5379730   0.0311503   0.0183277  )
        27           C   tau(  27) = (   0.8806882   0.0117868   0.4489838  )
        28           C   tau(  28) = (   0.6394042   0.9891499   0.0379124  )
        29           C   tau(  29) = (   0.9400787   0.9715829   0.5343281  )
        30           C   tau(  30) = (   0.6997920   0.0283934   0.1231482  )
        31           C   tau(  31) = (   0.6986021   0.5304580   0.4324635  )
        32           C   tau(  32) = (   0.9580382   0.4720800   0.0229252  )
        33           C   tau(  33) = (   0.7341003   0.6142040   0.4982314  )
        34           C   tau(  34) = (   0.9948422   0.3892302   0.0892369  )
        35           C   tau(  35) = (   0.7384981   0.8904717   0.4955761  )
        36           C   tau(  36) = (   0.4991718   0.1123917   0.0856467  )
        37           C   tau(  37) = (   0.8947360   0.8906489   0.5977380  )
        38           C   tau(  38) = (   0.6557880   0.1097029   0.1871645  )
        39           C   tau(  39) = (   0.5756247   0.6098498   0.5975737  )
        40           C   tau(  40) = (   0.8367152   0.3921904   0.1884642  )
        41           C   tau(  41) = (   0.5350715   0.5258264   0.5351012  )
        42           C   tau(  42) = (   0.7948780   0.4753867   0.1254988  )
        43           C   tau(  43) = (   0.5981522   0.4849593   0.4519611  )
        44           C   tau(  44) = (   0.8569104   0.5163900   0.0416029  )
        45           C   tau(  45) = (   0.9248178   0.0994604   0.3833638  )
        46           C   tau(  46) = (   0.6639424   0.9010006   0.7933713  )
        47           C   tau(  47) = (   0.5588110   0.3950355   0.3866953  )
        48           C   tau(  48) = (   0.7984059   0.6050320   0.7961934  )
        49           C   tau(  49) = (   0.2160256   0.0048259   0.3459017  )
        50           C   tau(  50) = (   0.1621804   0.0349527   0.2744083  )
        51           C   tau(  51) = (   0.3002275   0.9933799   0.1470996  )
        52           C   tau(  52) = (   0.3868427   0.9618151   0.1675847  )
        53           C   tau(  53) = (   0.2639708   0.4967290   0.3512674  )
        54           C   tau(  54) = (   0.3201892   0.4675225   0.2812331  )
        55           C   tau(  55) = (   0.1949049   0.5132815   0.1490656  )
        56           C   tau(  56) = (   0.1086822   0.5461002   0.1692336  )
        57           C   tau(  57) = (   0.7160256   0.0048259   0.3459017  )
        58           C   tau(  58) = (   0.6621804   0.0349527   0.2744083  )
        59           C   tau(  59) = (   0.8002275   0.9933809   0.1471004  )
        60           C   tau(  60) = (   0.8868427   0.9618161   0.1675855  )
        61           C   tau(  61) = (   0.4354044   0.4869872   0.5582663  )
        62           C   tau(  62) = (   0.3494187   0.4533634   0.5781172  )
        63           C   tau(  63) = (   0.0053209   0.5066842   0.7635522  )
        64           C   tau(  64) = (   0.0615347   0.5366057   0.6938170  )
        65           H   tau(  65) = (   0.4693669   0.0026958   0.7751545  )
        66           H   tau(  66) = (   0.0198054   1.0002267   0.5533467  )
        67           H   tau(  67) = (   0.3118554   0.6514319   0.4868937  )
        68           H   tau(  68) = (   0.0732386   0.3533532   0.0780726  )
        69           H   tau(  69) = (   0.1594426   0.8563401   0.4835457  )
        70           H   tau(  70) = (   0.4206861   0.1479423   0.0738480  )
        71           H   tau(  71) = (   0.4386511   0.8563902   0.6644572  )
        72           H   tau(  72) = (   0.2006191   0.1433067   0.2536997  )
        73           H   tau(  73) = (   0.0290492   0.6438591   0.6626884  )
        74           H   tau(  74) = (   0.2907535   0.3580349   0.2539083  )
        75           H   tau(  75) = (   0.9693669   0.0026958   0.7751545  )
        76           H   tau(  76) = (   0.5198044   1.0002267   0.5533467  )
        77           H   tau(  77) = (   0.7505234   0.5016080   0.3691185  )
        78           H   tau(  78) = (   0.4913416   0.5011092   0.7809458  )
        79           H   tau(  79) = (   0.8118554   0.6514319   0.4868937  )
        80           H   tau(  80) = (   0.5732386   0.3533532   0.0780726  )
        81           H   tau(  81) = (   0.6594426   0.8563401   0.4835457  )
        82           H   tau(  82) = (   0.9206861   0.1479423   0.0738480  )
        83           H   tau(  83) = (   0.9386511   0.8563902   0.6644572  )
        84           H   tau(  84) = (   0.7006201   0.1433067   0.2536997  )
        85           H   tau(  85) = (   0.5290492   0.6438591   0.6626884  )
        86           H   tau(  86) = (   0.7907535   0.3580349   0.2539083  )
        87           H   tau(  87) = (   0.9564147   0.4939330   0.5533319  )
        88           H   tau(  88) = (   0.7157623   0.5059201   0.1439924  )
        89           H   tau(  89) = (   0.1165763   0.0625459   0.2114354  )
        90           H   tau(  90) = (   0.4623840   0.9329691   0.1839595  )
        91           H   tau(  91) = (   0.3679288   0.4406653   0.2195386  )
        92           H   tau(  92) = (   0.0335230   0.5760648   0.1853554  )
        93           H   tau(  93) = (   0.6165763   0.0625459   0.2114354  )
        94           H   tau(  94) = (   0.9623839   0.9329711   0.1839603  )
        95           H   tau(  95) = (   0.2744914   0.4226848   0.5939735  )
        96           H   tau(  96) = (   0.1092567   0.5640667   0.6323747  )
        97           N   tau(  97) = (   0.2956096   0.8524646   0.5790685  )
        98           N   tau(  98) = (   0.0569790   0.1490689   0.1692870  )
        99           N   tau(  99) = (   0.1736962   0.6512356   0.5798983  )
       100           N   tau( 100) = (   0.4350238   0.3514275   0.1709211  )
       101           N   tau( 101) = (   0.7956096   0.8524646   0.5790685  )
       102           N   tau( 102) = (   0.5569790   0.1490689   0.1692870  )
       103           N   tau( 103) = (   0.6736972   0.6512356   0.5798983  )
       104           N   tau( 104) = (   0.9350238   0.3514275   0.1709211  )
       105           Ni  tau( 105) = (   0.2317814   0.7525556   0.6871039  )
       106           Ni  tau( 106) = (   0.4937992   0.2483520   0.2786599  )
       107           Ni  tau( 107) = (   0.7317814   0.7525556   0.6871039  )
       108           Ni  tau( 108) = (   0.9937992   0.2483520   0.2786599  )
       109           O   tau( 109) = (   0.1158100   0.3481839   0.3145586  )
       110           O   tau( 110) = (   0.3551690   0.6519036   0.7240468  )
       111           O   tau( 111) = (   0.3707656   0.1477170   0.3098797  )
       112           O   tau( 112) = (   0.1091506   0.8535652   0.7199135  )
       113           O   tau( 113) = (   0.4642788   0.3566669   0.3968154  )
       114           O   tau( 114) = (   0.2033039   0.6423280   0.8050417  )
       115           O   tau( 115) = (   0.0200847   0.1353504   0.3952413  )
       116           O   tau( 116) = (   0.2588616   0.8639860   0.8046490  )
       117           O   tau( 117) = (   0.6158110   0.3481839   0.3145586  )
       118           O   tau( 118) = (   0.8551690   0.6519036   0.7240468  )
       119           O   tau( 119) = (   0.8707656   0.1477170   0.3098797  )
       120           O   tau( 120) = (   0.6091506   0.8535652   0.7199135  )
       121           O   tau( 121) = (   0.9642788   0.3566669   0.3968154  )
       122           O   tau( 122) = (   0.7033039   0.6423280   0.8050417  )
       123           O   tau( 123) = (   0.5200847   0.1353504   0.3952413  )
       124           O   tau( 124) = (   0.7588616   0.8639860   0.8046490  )

     number of k points=     1  Marzari-Vanderbilt smearing, width (Ry)=  0.2000
                       cart. coord. in units 2pi/alat
        k(    1) = (   0.0000000   0.0000000   0.0000000), wk =   1.0000000

     Dense  grid:   733509 G-vectors     FFT dimensions: ( 160, 160, 125)

     Estimated max dynamical RAM per process >     652.47 MB

     Estimated total dynamical RAM >      10.19 GB
     Generating pointlists ...
     new r_m :   0.0270 (alat units)  0.6385 (a.u.) for type    1
     new r_m :   0.0270 (alat units)  0.6385 (a.u.) for type    2
     new r_m :   0.0445 (alat units)  1.0514 (a.u.) for type    3
     new r_m :   0.0654 (alat units)  1.5454 (a.u.) for type    4
     new r_m :   0.0423 (alat units)  0.9991 (a.u.) for type    5

     Check: negative core charge=   -0.000145

     Initial potential from superposition of free atoms

     starting charge  463.99604, renormalised to  464.00000


     %%%%%%%%%%%%%%%%%%%%%%%%%%%%%%%%%%%%%%%%%%%%%%%%%%%%%%%%%%%%%%%%%%%%%%%%
     %                                                                      %
     % You are using vdW-DF, which was implemented by the Thonhauser group. %
     % Please cite the following two papers that made this development      %
     % possible and the two reviews that describe the various versions:     %
     %                                                                      %
     %   T. Thonhauser et al., PRL 115, 136402 (2015).                      %
     %   T. Thonhauser et al., PRB 76, 125112 (2007).                       %
     %   K. Berland et al., Rep. Prog. Phys. 78, 066501 (2015).             %
     %   D.C. Langreth et al., J. Phys.: Condens. Matter 21, 084203 (2009). %
     %                                                                      %
     %                                                                      %
     % If you are calculating the stress with vdW-DF, please also cite:     %
     %                                                                      %
     %   R. Sabatini et al., J. Phys.: Condens. Matter 24, 424209 (2012).   %
     %                                                                      %
     %%%%%%%%%%%%%%%%%%%%%%%%%%%%%%%%%%%%%%%%%%%%%%%%%%%%%%%%%%%%%%%%%%%%%%%%


     Starting wfcs are  420 randomized atomic wfcs

     total cpu time spent up to now is      112.5 secs

     Self-consistent Calculation

     iteration #  1     ecut=   100.00 Ry     beta= 0.70
     Davidson diagonalization with overlap
     ethr =  1.00E-02,  avg # of iterations =  6.0

     total cpu time spent up to now is      358.7 secs

     total energy              =   -1818.63892328 Ry
     Harris-Foulkes estimate   =   -1830.14187913 Ry
     estimated scf accuracy    <      29.72388188 Ry

     total magnetization       =     8.00 Bohr mag/cell
     absolute magnetization    =     9.09 Bohr mag/cell

     iteration #  2     ecut=   100.00 Ry     beta= 0.70
     Davidson diagonalization with overlap
     ethr =  6.41E-03,  avg # of iterations =  2.0

     total cpu time spent up to now is      518.7 secs

     total energy              =   -1823.17763982 Ry
     Harris-Foulkes estimate   =   -1827.96083704 Ry
     estimated scf accuracy    <      21.11500610 Ry

     total magnetization       =     8.00 Bohr mag/cell
     absolute magnetization    =     8.16 Bohr mag/cell

     iteration #  3     ecut=   100.00 Ry     beta= 0.70
     Davidson diagonalization with overlap
     ethr =  4.55E-03,  avg # of iterations =  1.5

     total cpu time spent up to now is      665.3 secs

     total energy              =   -1822.64705603 Ry
     Harris-Foulkes estimate   =   -1824.09383704 Ry
     estimated scf accuracy    <       4.69907666 Ry

     total magnetization       =     8.00 Bohr mag/cell
     absolute magnetization    =     8.16 Bohr mag/cell

     iteration #  4     ecut=   100.00 Ry     beta= 0.70
     Davidson diagonalization with overlap
     ethr =  1.01E-03,  avg # of iterations =  5.0

     total cpu time spent up to now is      832.7 secs

     total energy              =   -1822.51065176 Ry
     Harris-Foulkes estimate   =   -1824.11147752 Ry
     estimated scf accuracy    <      14.36250100 Ry

     total magnetization       =     8.00 Bohr mag/cell
     absolute magnetization    =     8.18 Bohr mag/cell

     iteration #  5     ecut=   100.00 Ry     beta= 0.70
     Davidson diagonalization with overlap
     ethr =  1.01E-03,  avg # of iterations =  2.5

     total cpu time spent up to now is      980.4 secs

     total energy              =   -1823.22503436 Ry
     Harris-Foulkes estimate   =   -1823.29498348 Ry
     estimated scf accuracy    <       0.40248787 Ry

     total magnetization       =     8.00 Bohr mag/cell
     absolute magnetization    =     8.22 Bohr mag/cell

     iteration #  6     ecut=   100.00 Ry     beta= 0.70
     Davidson diagonalization with overlap
     ethr =  8.67E-05,  avg # of iterations =  6.0

     total cpu time spent up to now is     1165.4 secs

     total energy              =   -1823.23294496 Ry
     Harris-Foulkes estimate   =   -1823.30126283 Ry
     estimated scf accuracy    <       1.48901094 Ry

     total magnetization       =     8.00 Bohr mag/cell
     absolute magnetization    =     8.23 Bohr mag/cell

     iteration #  7     ecut=   100.00 Ry     beta= 0.70
     Davidson diagonalization with overlap
     ethr =  8.67E-05,  avg # of iterations =  1.0

     total cpu time spent up to now is     1311.8 secs

     total energy              =   -1823.12305022 Ry
     Harris-Foulkes estimate   =   -1823.26149058 Ry
     estimated scf accuracy    <       0.91107955 Ry

     total magnetization       =     8.00 Bohr mag/cell
     absolute magnetization    =     8.23 Bohr mag/cell

     iteration #  8     ecut=   100.00 Ry     beta= 0.70
     Davidson diagonalization with overlap
     ethr =  8.67E-05,  avg # of iterations =  2.0

     total cpu time spent up to now is     1458.5 secs

     total energy              =   -1823.18571234 Ry
     Harris-Foulkes estimate   =   -1823.19890847 Ry
     estimated scf accuracy    <       0.17943807 Ry

     total magnetization       =     8.00 Bohr mag/cell
     absolute magnetization    =     8.24 Bohr mag/cell

     iteration #  9     ecut=   100.00 Ry     beta= 0.70
     Davidson diagonalization with overlap
     ethr =  3.87E-05,  avg # of iterations =  3.0

     total cpu time spent up to now is     1602.1 secs

     total energy              =   -1823.16665707 Ry
     Harris-Foulkes estimate   =   -1823.19531661 Ry
     estimated scf accuracy    <       0.24580677 Ry

     total magnetization       =     8.00 Bohr mag/cell
     absolute magnetization    =     8.24 Bohr mag/cell

     iteration # 10     ecut=   100.00 Ry     beta= 0.70
     Davidson diagonalization with overlap
     ethr =  3.87E-05,  avg # of iterations =  5.0

     total cpu time spent up to now is     1755.5 secs

     total energy              =   -1823.17231558 Ry
     Harris-Foulkes estimate   =   -1823.17734858 Ry
     estimated scf accuracy    <       0.01749785 Ry

     total magnetization       =     8.00 Bohr mag/cell
     absolute magnetization    =     8.24 Bohr mag/cell

     iteration # 11     ecut=   100.00 Ry     beta= 0.70
     Davidson diagonalization with overlap
     ethr =  3.77E-06,  avg # of iterations = 11.0

     total cpu time spent up to now is     1954.9 secs

     total energy              =   -1823.17146027 Ry
     Harris-Foulkes estimate   =   -1823.17481815 Ry
     estimated scf accuracy    <       0.02122146 Ry

     total magnetization       =     8.00 Bohr mag/cell
     absolute magnetization    =     8.23 Bohr mag/cell

     iteration # 12     ecut=   100.00 Ry     beta= 0.70
     Davidson diagonalization with overlap
     ethr =  3.77E-06,  avg # of iterations =  2.0

     total cpu time spent up to now is     2099.5 secs

     total energy              =   -1823.17136563 Ry
     Harris-Foulkes estimate   =   -1823.17372960 Ry
     estimated scf accuracy    <       0.02483203 Ry

     total magnetization       =     8.00 Bohr mag/cell
     absolute magnetization    =     8.22 Bohr mag/cell

     iteration # 13     ecut=   100.00 Ry     beta= 0.70
     Davidson diagonalization with overlap
     ethr =  3.77E-06,  avg # of iterations =  2.0

     total cpu time spent up to now is     2243.9 secs

     total energy              =   -1823.17207128 Ry
     Harris-Foulkes estimate   =   -1823.17245190 Ry
     estimated scf accuracy    <       0.00273724 Ry

     total magnetization       =     8.00 Bohr mag/cell
     absolute magnetization    =     8.22 Bohr mag/cell

     iteration # 14     ecut=   100.00 Ry     beta= 0.70
     Davidson diagonalization with overlap
     ethr =  5.90E-07,  avg # of iterations =  3.0

     total cpu time spent up to now is     2395.3 secs

     total energy              =   -1823.17212487 Ry
     Harris-Foulkes estimate   =   -1823.17218544 Ry
     estimated scf accuracy    <       0.00058327 Ry

     total magnetization       =     8.00 Bohr mag/cell
     absolute magnetization    =     8.22 Bohr mag/cell

     iteration # 15     ecut=   100.00 Ry     beta= 0.70
     Davidson diagonalization with overlap
     ethr =  1.26E-07,  avg # of iterations =  4.0

     total cpu time spent up to now is     2555.0 secs

     total energy              =   -1823.17210574 Ry
     Harris-Foulkes estimate   =   -1823.17216529 Ry
     estimated scf accuracy    <       0.00040726 Ry

     total magnetization       =     8.00 Bohr mag/cell
     absolute magnetization    =     8.21 Bohr mag/cell

     iteration # 16     ecut=   100.00 Ry     beta= 0.70
     Davidson diagonalization with overlap
     ethr =  8.78E-08,  avg # of iterations =  5.0

     total cpu time spent up to now is     2716.1 secs

     total energy              =   -1823.17214140 Ry
     Harris-Foulkes estimate   =   -1823.17213212 Ry
     estimated scf accuracy    <       0.00015624 Ry

     total magnetization       =     8.00 Bohr mag/cell
     absolute magnetization    =     8.21 Bohr mag/cell

     iteration # 17     ecut=   100.00 Ry     beta= 0.70
     Davidson diagonalization with overlap
     ethr =  3.37E-08,  avg # of iterations =  3.5

     total cpu time spent up to now is     2869.9 secs

     total energy              =   -1823.17213167 Ry
     Harris-Foulkes estimate   =   -1823.17215275 Ry
     estimated scf accuracy    <       0.00013189 Ry

     total magnetization       =     8.00 Bohr mag/cell
     absolute magnetization    =     8.21 Bohr mag/cell

     iteration # 18     ecut=   100.00 Ry     beta= 0.70
     Davidson diagonalization with overlap
     ethr =  2.84E-08,  avg # of iterations =  4.0

     total cpu time spent up to now is     3026.0 secs

     total energy              =   -1823.17214452 Ry
     Harris-Foulkes estimate   =   -1823.17213727 Ry
     estimated scf accuracy    <       0.00005753 Ry

     total magnetization       =     8.00 Bohr mag/cell
     absolute magnetization    =     8.21 Bohr mag/cell

     iteration # 19     ecut=   100.00 Ry     beta= 0.70
     Davidson diagonalization with overlap
     ethr =  1.24E-08,  avg # of iterations =  4.0

     total cpu time spent up to now is     3183.3 secs

     total energy              =   -1823.17213582 Ry
     Harris-Foulkes estimate   =   -1823.17215298 Ry
     estimated scf accuracy    <       0.00015333 Ry

     total magnetization       =     8.00 Bohr mag/cell
     absolute magnetization    =     8.21 Bohr mag/cell

     iteration # 20     ecut=   100.00 Ry     beta= 0.70
     Davidson diagonalization with overlap
     ethr =  1.24E-08,  avg # of iterations =  4.0

     total cpu time spent up to now is     3342.1 secs

     total energy              =   -1823.17214776 Ry
     Harris-Foulkes estimate   =   -1823.17214286 Ry
     estimated scf accuracy    <       0.00002602 Ry

     total magnetization       =     8.00 Bohr mag/cell
     absolute magnetization    =     8.21 Bohr mag/cell

     iteration # 21     ecut=   100.00 Ry     beta= 0.70
     Davidson diagonalization with overlap
     ethr =  5.61E-09,  avg # of iterations =  4.5

     total cpu time spent up to now is     3502.1 secs

     total energy              =   -1823.17214306 Ry
     Harris-Foulkes estimate   =   -1823.17214982 Ry
     estimated scf accuracy    <       0.00001294 Ry

     total magnetization       =     8.00 Bohr mag/cell
     absolute magnetization    =     8.21 Bohr mag/cell

     iteration # 22     ecut=   100.00 Ry     beta= 0.70
     Davidson diagonalization with overlap
     ethr =  2.79E-09,  avg # of iterations =  4.5

     total cpu time spent up to now is     3678.3 secs

     total energy              =   -1823.17213993 Ry
     Harris-Foulkes estimate   =   -1823.17214494 Ry
     estimated scf accuracy    <       0.00001917 Ry

     total magnetization       =     8.00 Bohr mag/cell
     absolute magnetization    =     8.21 Bohr mag/cell

     iteration # 23     ecut=   100.00 Ry     beta= 0.70
     Davidson diagonalization with overlap
     ethr =  2.79E-09,  avg # of iterations =  4.0

     total cpu time spent up to now is     3831.6 secs

     total energy              =   -1823.17214179 Ry
     Harris-Foulkes estimate   =   -1823.17214143 Ry
     estimated scf accuracy    <       0.00000240 Ry

     total magnetization       =     8.00 Bohr mag/cell
     absolute magnetization    =     8.21 Bohr mag/cell

     iteration # 24     ecut=   100.00 Ry     beta= 0.70
     Davidson diagonalization with overlap
     ethr =  5.18E-10,  avg # of iterations =  4.5

     total cpu time spent up to now is     4034.3 secs

     total energy              =   -1823.17213937 Ry
     Harris-Foulkes estimate   =   -1823.17214231 Ry
     estimated scf accuracy    <       0.00000325 Ry

     total magnetization       =     8.00 Bohr mag/cell
     absolute magnetization    =     8.21 Bohr mag/cell

     iteration # 25     ecut=   100.00 Ry     beta= 0.70
     Davidson diagonalization with overlap
     ethr =  5.18E-10,  avg # of iterations =  4.5

     total cpu time spent up to now is     4241.1 secs

     total energy              =   -1823.17214136 Ry
     Harris-Foulkes estimate   =   -1823.17214012 Ry
     estimated scf accuracy    <       0.00000152 Ry

     total magnetization       =     8.00 Bohr mag/cell
     absolute magnetization    =     8.21 Bohr mag/cell

     iteration # 26     ecut=   100.00 Ry     beta= 0.70
     Davidson diagonalization with overlap
     ethr =  3.27E-10,  avg # of iterations =  4.0

     total cpu time spent up to now is     4436.6 secs

     total energy              =   -1823.17214360 Ry
     Harris-Foulkes estimate   =   -1823.17214169 Ry
     estimated scf accuracy    <       0.00000103 Ry

     total magnetization       =     8.00 Bohr mag/cell
     absolute magnetization    =     8.21 Bohr mag/cell

     iteration # 27     ecut=   100.00 Ry     beta= 0.70
     Davidson diagonalization with overlap
     ethr =  2.22E-10,  avg # of iterations =  4.5
 
     Magnetic moment per site:
     atom:    1    charge:    0.3702    magn:    0.0010    constr:    0.0000
     atom:    2    charge:    0.3650    magn:    0.0038    constr:    0.0000
     atom:    3    charge:    0.3658    magn:    0.0025    constr:    0.0000
     atom:    4    charge:    0.3659    magn:    0.0018    constr:    0.0000
     atom:    5    charge:    0.3643    magn:    0.0022    constr:    0.0000
     atom:    6    charge:    0.3761    magn:    0.0040    constr:    0.0000
     atom:    7    charge:    0.3721    magn:    0.0024    constr:    0.0000
     atom:    8    charge:    0.3634    magn:    0.0034    constr:    0.0000
     atom:    9    charge:    0.3597    magn:    0.0023    constr:    0.0000
     atom:   10    charge:    0.3585    magn:    0.0013    constr:    0.0000
     atom:   11    charge:    0.3604    magn:    0.0034    constr:    0.0000
     atom:   12    charge:    0.3597    magn:    0.0011    constr:    0.0000
     atom:   13    charge:    0.3619    magn:    0.0025    constr:    0.0000
     atom:   14    charge:    0.4100    magn:    0.0010    constr:    0.0000
     atom:   15    charge:    0.4056    magn:    0.0011    constr:    0.0000
     atom:   16    charge:    0.4080    magn:    0.0012    constr:    0.0000
     atom:   17    charge:    0.3706    magn:    0.0054    constr:    0.0000
     atom:   18    charge:    0.3764    magn:    0.0041    constr:    0.0000
     atom:   19    charge:    0.3668    magn:    0.0017    constr:    0.0000
     atom:   20    charge:    0.3652    magn:    0.0019    constr:    0.0000
     atom:   21    charge:    0.3509    magn:   -0.0005    constr:    0.0000
     atom:   22    charge:    0.3503    magn:   -0.0007    constr:    0.0000
     atom:   23    charge:    0.3510    magn:   -0.0005    constr:    0.0000
     atom:   24    charge:    0.3520    magn:   -0.0006    constr:    0.0000
     atom:   25    charge:    0.3702    magn:    0.0009    constr:    0.0000
     atom:   26    charge:    0.3649    magn:    0.0038    constr:    0.0000
     atom:   27    charge:    0.3658    magn:    0.0026    constr:    0.0000
     atom:   28    charge:    0.3659    magn:    0.0019    constr:    0.0000
     atom:   29    charge:    0.3643    magn:    0.0022    constr:    0.0000
     atom:   30    charge:    0.3761    magn:    0.0040    constr:    0.0000
     atom:   31    charge:    0.3647    magn:    0.0022    constr:    0.0000
     atom:   32    charge:    0.3696    magn:    0.0013    constr:    0.0000
     atom:   33    charge:    0.3600    magn:    0.0026    constr:    0.0000
     atom:   34    charge:    0.3602    magn:    0.0032    constr:    0.0000
     atom:   35    charge:    0.3603    magn:    0.0034    constr:    0.0000
     atom:   36    charge:    0.3597    magn:    0.0011    constr:    0.0000
     atom:   37    charge:    0.3620    magn:    0.0025    constr:    0.0000
     atom:   38    charge:    0.4100    magn:    0.0010    constr:    0.0000
     atom:   39    charge:    0.3619    magn:    0.0032    constr:    0.0000
     atom:   40    charge:    0.3597    magn:    0.0024    constr:    0.0000
     atom:   41    charge:    0.3714    magn:    0.0013    constr:    0.0000
     atom:   42    charge:    0.3641    magn:    0.0022    constr:    0.0000
     atom:   43    charge:    0.3664    magn:    0.0026    constr:    0.0000
     atom:   44    charge:    0.3650    magn:    0.0025    constr:    0.0000
     atom:   45    charge:    0.3510    magn:   -0.0006    constr:    0.0000
     atom:   46    charge:    0.3503    magn:   -0.0008    constr:    0.0000
     atom:   47    charge:    0.3512    magn:   -0.0006    constr:    0.0000
     atom:   48    charge:    0.3519    magn:   -0.0009    constr:    0.0000
     atom:   49    charge:    0.3821    magn:    0.0043    constr:    0.0000
     atom:   50    charge:    0.4009    magn:    0.0050    constr:    0.0000
     atom:   51    charge:    0.3840    magn:    0.0031    constr:    0.0000
     atom:   52    charge:    0.3779    magn:    0.0075    constr:    0.0000
     atom:   53    charge:    0.3810    magn:    0.0039    constr:    0.0000
     atom:   54    charge:    0.3963    magn:    0.0059    constr:    0.0000
     atom:   55    charge:    0.3850    magn:    0.0029    constr:    0.0000
     atom:   56    charge:    0.3786    magn:    0.0079    constr:    0.0000
     atom:   57    charge:    0.3820    magn:    0.0043    constr:    0.0000
     atom:   58    charge:    0.4008    magn:    0.0051    constr:    0.0000
     atom:   59    charge:    0.3839    magn:    0.0031    constr:    0.0000
     atom:   60    charge:    0.3779    magn:    0.0075    constr:    0.0000
     atom:   61    charge:    0.3838    magn:    0.0031    constr:    0.0000
     atom:   62    charge:    0.3789    magn:    0.0077    constr:    0.0000
     atom:   63    charge:    0.3815    magn:    0.0041    constr:    0.0000
     atom:   64    charge:    0.3942    magn:    0.0048    constr:    0.0000
     atom:   65    charge:    0.2783    magn:   -0.0009    constr:    0.0000
     atom:   66    charge:    0.2797    magn:   -0.0008    constr:    0.0000
     atom:   67    charge:    0.2784    magn:   -0.0004    constr:    0.0000
     atom:   68    charge:    0.2819    magn:   -0.0005    constr:    0.0000
     atom:   69    charge:    0.2810    magn:   -0.0007    constr:    0.0000
     atom:   70    charge:    0.2803    magn:   -0.0004    constr:    0.0000
     atom:   71    charge:    0.2803    magn:   -0.0006    constr:    0.0000
     atom:   72    charge:    0.2629    magn:    0.0013    constr:    0.0000
     atom:   73    charge:    0.2684    magn:    0.0014    constr:    0.0000
     atom:   74    charge:    0.2673    magn:    0.0013    constr:    0.0000
     atom:   75    charge:    0.2783    magn:   -0.0009    constr:    0.0000
     atom:   76    charge:    0.2797    magn:   -0.0008    constr:    0.0000
     atom:   77    charge:    0.2802    magn:   -0.0008    constr:    0.0000
     atom:   78    charge:    0.2789    magn:   -0.0009    constr:    0.0000
     atom:   79    charge:    0.2826    magn:   -0.0007    constr:    0.0000
     atom:   80    charge:    0.2795    magn:   -0.0005    constr:    0.0000
     atom:   81    charge:    0.2808    magn:   -0.0007    constr:    0.0000
     atom:   82    charge:    0.2800    magn:   -0.0004    constr:    0.0000
     atom:   83    charge:    0.2806    magn:   -0.0006    constr:    0.0000
     atom:   84    charge:    0.2623    magn:    0.0013    constr:    0.0000
     atom:   85    charge:    0.2781    magn:   -0.0007    constr:    0.0000
     atom:   86    charge:    0.2796    magn:   -0.0006    constr:    0.0000
     atom:   87    charge:    0.2755    magn:   -0.0006    constr:    0.0000
     atom:   88    charge:    0.2796    magn:   -0.0008    constr:    0.0000
     atom:   89    charge:    0.4399    magn:    0.0005    constr:    0.0000
     atom:   90    charge:    0.2843    magn:   -0.0005    constr:    0.0000
     atom:   91    charge:    0.4482    magn:    0.0006    constr:    0.0000
     atom:   92    charge:    0.2834    magn:   -0.0006    constr:    0.0000
     atom:   93    charge:    0.4400    magn:    0.0005    constr:    0.0000
     atom:   94    charge:    0.2844    magn:   -0.0005    constr:    0.0000
     atom:   95    charge:    0.2844    magn:   -0.0006    constr:    0.0000
     atom:   96    charge:    0.4390    magn:    0.0008    constr:    0.0000
     atom:   97    charge:    2.4988    magn:    0.0105    constr:    0.0000
     atom:   98    charge:    2.5318    magn:    0.0242    constr:    0.0000
     atom:   99    charge:    2.5268    magn:    0.0192    constr:    0.0000
     atom:  100    charge:    2.5222    magn:    0.0230    constr:    0.0000
     atom:  101    charge:    2.4985    magn:    0.0103    constr:    0.0000
     atom:  102    charge:    2.5318    magn:    0.0245    constr:    0.0000
     atom:  103    charge:    2.5017    magn:    0.0103    constr:    0.0000
     atom:  104    charge:    2.5003    magn:    0.0110    constr:    0.0000
     atom:  105    charge:    7.4697    magn:    1.1294    constr:    0.0000
     atom:  106    charge:    7.4774    magn:    1.1222    constr:    0.0000
     atom:  107    charge:    7.4600    magn:    1.1388    constr:    0.0000
     atom:  108    charge:    7.4695    magn:    1.1299    constr:    0.0000
     atom:  109    charge:    3.3166    magn:    0.0450    constr:    0.0000
     atom:  110    charge:    3.3096    magn:    0.0526    constr:    0.0000
     atom:  111    charge:    3.3183    magn:    0.0459    constr:    0.0000
     atom:  112    charge:    3.3091    magn:    0.0502    constr:    0.0000
     atom:  113    charge:    3.3129    magn:    0.0498    constr:    0.0000
     atom:  114    charge:    3.3146    magn:    0.0506    constr:    0.0000
     atom:  115    charge:    3.3140    magn:    0.0511    constr:    0.0000
     atom:  116    charge:    3.3080    magn:    0.0517    constr:    0.0000
     atom:  117    charge:    3.3117    magn:    0.0501    constr:    0.0000
     atom:  118    charge:    3.3131    magn:    0.0484    constr:    0.0000
     atom:  119    charge:    3.3168    magn:    0.0475    constr:    0.0000
     atom:  120    charge:    3.3075    magn:    0.0519    constr:    0.0000
     atom:  121    charge:    3.3078    magn:    0.0489    constr:    0.0000
     atom:  122    charge:    3.3082    magn:    0.0541    constr:    0.0000
     atom:  123    charge:    3.3137    magn:    0.0502    constr:    0.0000
     atom:  124    charge:    3.3080    magn:    0.0529    constr:    0.0000

     total cpu time spent up to now is     4637.5 secs

     End of self-consistent calculation

 ------ SPIN UP ------------


          k = 0.0000 0.0000 0.0000 ( 91663 PWs)   bands (ev):

   -23.3961 -23.3831 -22.8675 -22.5855 -21.3482 -21.3393 -21.3294 -21.2787
   -21.2260 -21.2179 -21.2054 -21.1556 -18.4212 -18.4044 -18.3962 -18.3934
   -18.3844 -18.3476 -18.3315 -18.3151 -18.2523 -18.2173 -18.1847 -18.1218
   -17.7187 -17.6567 -17.6501 -17.5986 -15.8139 -15.7948 -15.7378 -15.6418
   -15.3592 -15.3263 -15.3210 -15.1557 -14.2279 -14.0803 -14.0661 -13.9958
   -13.8964 -13.8774 -13.7540 -13.6980 -13.3344 -13.3186 -13.2968 -12.9433
   -12.6677 -12.4230 -12.1488 -12.0981 -12.0157 -11.8791 -11.8473 -11.7924
   -11.0828 -11.0448 -11.0294 -10.9779 -10.7224 -10.6801 -10.6167 -10.5541
   -10.3135 -10.2623 -10.2434 -10.0741 -10.0262 -10.0045  -9.9492  -9.6881
    -8.8713  -8.7279  -8.6726  -8.6568  -8.5939  -8.5593  -8.5426  -8.4530
    -8.0386  -7.9870  -7.9379  -7.9275  -7.8644  -7.6760  -7.6702  -7.6060
    -7.5603  -7.5453  -7.5221  -7.4444  -7.3229  -7.2588  -7.2224  -7.1735
    -6.8956  -6.8686  -6.8574  -6.8179  -6.6605  -6.6063  -6.4834  -6.3566
    -6.3176  -6.2925  -6.2414  -6.1627  -5.9680  -5.9433  -5.8960  -5.8225
    -5.7901  -5.7553  -5.7393  -5.7063  -5.6208  -5.5905  -5.5830  -5.5614
    -5.5272  -5.5106  -5.4803  -5.4037  -5.3677  -5.3427  -5.2966  -5.2716
    -5.2433  -5.1780  -5.1653  -5.1078  -5.0666  -5.0385  -5.0148  -4.9537
    -4.8896  -4.7239  -4.5546  -4.5139  -4.4830  -4.4502  -4.4050  -4.3857
    -4.2547  -4.2233  -4.1629  -4.0385  -3.9999  -3.8896  -3.8412  -3.7988
    -3.7604  -3.7329  -3.7003  -3.6809  -3.6473  -3.6160  -3.5550  -3.5159
    -3.3513  -3.2610  -3.2002  -3.1149  -3.0435  -3.0200  -2.9927  -2.8818
    -2.7827  -2.7466  -2.6655  -2.6458  -2.5638  -2.5498  -2.5012  -2.4143
    -2.3620  -2.3428  -2.3197  -2.2536  -2.2202  -2.1758  -2.0989  -2.0729
    -2.0282  -1.9858  -1.9703  -1.9401  -1.9115  -1.8598  -1.8186  -1.7713
    -1.7377  -1.7023  -1.6598  -1.6007  -1.5490  -1.5008  -1.4523  -1.4057
    -1.3836  -1.3705  -1.3279  -1.3234  -1.2848  -1.2394  -1.2344  -1.2049
    -1.1767  -1.1632  -1.0909  -1.0685  -1.0545  -1.0343  -0.9856  -0.9174
    -0.8520  -0.8151  -0.7245  -0.6498  -0.5350  -0.5228  -0.4895  -0.4147
     0.4420   0.4830   0.6860   0.7105   0.7455   0.7858   0.8579   0.9017
     0.9491   0.9860   1.0956   1.1816   1.9383   2.2368   2.2730   2.3965
     2.7619   2.7705   2.8876   2.9354   3.1134   3.2174   3.2611   3.3467
     3.5351   3.6481   3.6815   3.7583   3.8188   4.0918   4.1376   4.2677
     4.4341   4.5896   4.6560   4.7455   4.8138   4.9373   5.0222   5.0944
     5.1832   5.2051   5.2747   5.3423   5.4229   5.4736   5.5562   5.6012
     5.6327   5.7578   5.7623   5.9059   5.9798   5.9978   6.0294   6.0791
     6.1203   6.2252   6.2450

 ------ SPIN DOWN ----------


          k = 0.0000 0.0000 0.0000 ( 91663 PWs)   bands (ev):

   -23.3634 -23.3503 -22.8313 -22.5520 -21.2642 -21.2564 -21.2421 -21.1897
   -21.1423 -21.1356 -21.1185 -21.0678 -18.3141 -18.2965 -18.2883 -18.2799
   -18.2736 -18.2343 -18.2269 -18.2124 -18.1954 -18.1865 -18.1541 -18.0915
   -17.6743 -17.6130 -17.6080 -17.5549 -15.7736 -15.7531 -15.6973 -15.5998
   -15.3242 -15.2919 -15.2865 -15.1216 -14.1801 -14.0376 -14.0240 -13.9533
   -13.8335 -13.8293 -13.6915 -13.6357 -13.2956 -13.2806 -13.2561 -12.8768
   -12.6243 -12.3697 -12.0971 -12.0430 -11.9799 -11.8413 -11.8092 -11.7572
   -11.0510 -11.0146 -10.9968 -10.9434 -10.6940 -10.6520 -10.5876 -10.5253
   -10.2782 -10.2280 -10.2085 -10.0460  -9.9905  -9.9759  -9.9222  -9.6538
    -8.8401  -8.7045  -8.6504  -8.6347  -8.5651  -8.5380  -8.5173  -8.4258
    -8.0099  -7.9551  -7.9127  -7.8948  -7.8344  -7.6519  -7.6507  -7.5812
    -7.5289  -7.5118  -7.4868  -7.4073  -7.2872  -7.2259  -7.1902  -7.1452
    -6.8679  -6.8424  -6.8307  -6.7908  -6.6324  -6.5733  -6.4429  -6.3153
    -6.2770  -6.2562  -6.1953  -6.1341  -5.8857  -5.8668  -5.8191  -5.7284
    -5.7170  -5.6873  -5.6478  -5.6279  -5.5283  -5.5166  -5.4849  -5.4650
    -5.4405  -5.4139  -5.3932  -5.3115  -5.2859  -5.2577  -5.2088  -5.1703
    -5.1571  -5.1027  -5.1013  -5.0504  -5.0109  -4.9728  -4.9370  -4.9102
    -4.8055  -4.6505  -4.4974  -4.4648  -4.4236  -4.3628  -4.3548  -4.2999
    -4.1505  -4.1233  -4.0693  -3.9342  -3.8679  -3.7643  -3.7368  -3.7304
    -3.6726  -3.6396  -3.6204  -3.5718  -3.5466  -3.4475  -3.3658  -3.2028
    -3.1864  -2.9986  -2.9857  -2.8209  -2.7973  -2.7534  -2.7246  -2.6752
    -2.5842  -2.5182  -2.4689  -2.4601  -2.4316  -2.3567  -2.2505  -2.1853
    -2.1365  -2.0903  -1.9814  -1.9551  -1.9216  -1.8639  -1.7851  -1.7361
    -1.6857  -1.6541  -1.6253  -1.5880  -1.5698  -1.5455  -1.5293  -1.4537
    -1.4095  -1.4039  -1.2924  -1.2756  -1.2273  -1.2228  -1.1902  -1.1703
    -1.1286  -1.1128  -1.0534  -0.9650  -0.8639  -0.8435  -0.7197  -0.6355
    -0.6081  -0.5576  -0.5101  -0.4907  -0.4287  -0.3940  -0.3595  -0.2803
    -0.2491  -0.2304  -0.2145  -0.1919  -0.1845  -0.1445  -0.1133  -0.0609
     0.6263   0.6793   1.0473   1.3079   1.5620   1.5796   1.6036   1.6364
     1.6899   1.7445   1.8017   1.8837   2.0712   2.3632   2.3888   2.5153
     2.8562   2.8777   2.9934   3.0411   3.1623   3.2882   3.3481   3.4292
     3.6001   3.7000   3.7752   3.8018   3.9116   4.0913   4.1331   4.2413
     4.4944   4.6557   4.7205   4.7987   4.8469   4.9441   5.0234   5.0928
     5.2053   5.2359   5.3159   5.3603   5.4558   5.5111   5.6044   5.6551
     5.6942   5.7911   5.8195   5.9445   6.0248   6.0314   6.0668   6.1113
     6.1767   6.2499   6.2894

     the spin up/dw Fermi energies are     1.3383    1.0350 ev

!    total energy              =   -1823.17214763 Ry
     Harris-Foulkes estimate   =   -1823.17214385 Ry
     estimated scf accuracy    <       0.00000035 Ry

     The total energy is the sum of the following terms:

     one-electron contribution =   -2604.23235281 Ry
     hartree contribution      =    1480.18011907 Ry
     xc contribution           =    -577.27187809 Ry
     ewald contribution        =    -123.61370186 Ry
     Dispersion Correction     =      -0.61603552 Ry
     smearing contrib. (-TS)   =       2.38170158 Ry

     total magnetization       =     8.00 Bohr mag/cell
     absolute magnetization    =     8.21 Bohr mag/cell

     convergence has been achieved in  27 iterations

     Forces acting on atoms (cartesian axes, Ry/au):

     atom    1 type  1   force =    -0.02125263   -0.01238001   -0.00692585
     atom    2 type  1   force =    -0.00718121    0.00052710   -0.02489148
     atom    3 type  1   force =     0.05059939    0.02454672    0.00472156
     atom    4 type  1   force =    -0.02110222   -0.01813059   -0.02900458
     atom    5 type  1   force =     0.00402854   -0.00337710    0.00067252
     atom    6 type  1   force =     0.14984481   -0.05963246   -0.21449373
     atom    7 type  1   force =     0.01972904    0.01646603   -0.02723941
     atom    8 type  1   force =     0.02111117    0.00304314   -0.01108515
     atom    9 type  1   force =    -0.01329833    0.04040997    0.03359440
     atom   10 type  1   force =    -0.00661971    0.00574339   -0.00118269
     atom   11 type  1   force =    -0.01479793   -0.02819108    0.02735611
     atom   12 type  1   force =     0.01282051    0.01785956   -0.00581841
     atom   13 type  1   force =     0.02789644   -0.00063043    0.01531954
     atom   14 type  1   force =     0.54126057    0.65760715   -0.29478527
     atom   15 type  1   force =    -0.46873993    0.57647141   -0.39132586
     atom   16 type  1   force =    -0.45110052   -0.68564605   -0.37383365
     atom   17 type  1   force =    -0.11857706   -0.07696988   -0.20687856
     atom   18 type  1   force =    -0.14054994    0.06545232   -0.23258878
     atom   19 type  1   force =    -0.05424171   -0.02452399    0.01950303
     atom   20 type  1   force =     0.01764673    0.01766273   -0.02735417
     atom   21 type  1   force =    -0.00614461   -0.00870495    0.01435405
     atom   22 type  1   force =     0.00001922    0.00084127    0.00869135
     atom   23 type  1   force =    -0.01060729    0.00028774    0.01439144
     atom   24 type  1   force =     0.01665912   -0.00283073    0.00699492
     atom   25 type  1   force =    -0.02078027   -0.01236480   -0.00675959
     atom   26 type  1   force =    -0.00737875    0.00050893   -0.02505923
     atom   27 type  1   force =     0.05047537    0.02432743    0.00500771
     atom   28 type  1   force =    -0.02095108   -0.01779474   -0.02830959
     atom   29 type  1   force =     0.00413303   -0.00381664    0.00092209
     atom   30 type  1   force =     0.14947834   -0.05937657   -0.21445708
     atom   31 type  1   force =     0.00936672   -0.00122689   -0.00398795
     atom   32 type  1   force =     0.00782253   -0.01687761   -0.01616971
     atom   33 type  1   force =     0.01578419   -0.00597313   -0.01342069
     atom   34 type  1   force =     0.00802258   -0.04056160    0.02361480
     atom   35 type  1   force =    -0.01597368   -0.02889603    0.02776120
     atom   36 type  1   force =     0.01412273    0.01735469   -0.00540486
     atom   37 type  1   force =     0.02699595   -0.00051377    0.01381799
     atom   38 type  1   force =     0.54053720    0.65689220   -0.29428185
     atom   39 type  1   force =     0.00705299    0.03209336    0.02703723
     atom   40 type  1   force =    -0.02792477    0.00226299    0.01246766
     atom   41 type  1   force =     0.00183854    0.01151254    0.00309071
     atom   42 type  1   force =    -0.00333636   -0.00292329    0.00253041
     atom   43 type  1   force =     0.02630797   -0.01992822   -0.03816543
     atom   44 type  1   force =    -0.04483136    0.02241149    0.00510159
     atom   45 type  1   force =    -0.00957481   -0.00782828    0.01138352
     atom   46 type  1   force =    -0.00286501    0.00032737    0.00629298
     atom   47 type  1   force =     0.01727451    0.01130822    0.00605953
     atom   48 type  1   force =    -0.00425544   -0.00663936    0.01084663
     atom   49 type  1   force =     0.08232374   -0.06090220    0.14743810
     atom   50 type  1   force =    -0.02763924   -0.16556968    0.22971736
     atom   51 type  1   force =    -0.06849957    0.02366149   -0.05440083
     atom   52 type  1   force =     0.07953354   -0.04675632    0.02872189
     atom   53 type  1   force =    -0.08305267    0.04408798    0.13106133
     atom   54 type  1   force =     0.03908972    0.11977060    0.20788232
     atom   55 type  1   force =     0.06654791   -0.02473979   -0.05725869
     atom   56 type  1   force =    -0.07966947    0.04552386    0.03048402
     atom   57 type  1   force =     0.08247375   -0.06110567    0.14764929
     atom   58 type  1   force =    -0.02680087   -0.16447431    0.23004692
     atom   59 type  1   force =    -0.06860466    0.02373212   -0.05443569
     atom   60 type  1   force =     0.07966747   -0.04679965    0.02872569
     atom   61 type  1   force =     0.08733374    0.02456855   -0.01699682
     atom   62 type  1   force =    -0.08130953   -0.04188765    0.03633029
     atom   63 type  1   force =    -0.09170737   -0.05072530    0.11148282
     atom   64 type  1   force =     0.02530887   -0.12296581    0.15878599
     atom   65 type  2   force =     0.01132463    0.00242729    0.01109104
     atom   66 type  2   force =    -0.01436896   -0.00274750   -0.00634614
     atom   67 type  2   force =    -0.01789672   -0.00246964    0.00246181
     atom   68 type  2   force =    -0.01788001    0.00433181   -0.00297501
     atom   69 type  2   force =     0.01167492    0.00746921   -0.00065901
     atom   70 type  2   force =     0.02073326   -0.00047273    0.00301264
     atom   71 type  2   force =    -0.01277206    0.00650212   -0.01551309
     atom   72 type  2   force =     0.05769405    0.11643133   -0.04482856
     atom   73 type  2   force =    -0.07060070    0.12445367   -0.04701236
     atom   74 type  2   force =    -0.06571021   -0.12185631   -0.04348419
     atom   75 type  2   force =     0.01125949    0.00251414    0.01107430
     atom   76 type  2   force =    -0.01451510   -0.00284081   -0.00637383
     atom   77 type  2   force =    -0.01137437    0.00345501    0.01095361
     atom   78 type  2   force =    -0.01151420   -0.00298370    0.01202901
     atom   79 type  2   force =    -0.01295846   -0.00633404    0.00236497
     atom   80 type  2   force =    -0.01406402    0.00228182    0.00585172
     atom   81 type  2   force =     0.01218234    0.00729580   -0.00045090
     atom   82 type  2   force =     0.02094263   -0.00031831    0.00325510
     atom   83 type  2   force =    -0.01273673    0.00699006   -0.01484433
     atom   84 type  2   force =     0.05788137    0.11719400   -0.04509850
     atom   85 type  2   force =     0.01050241   -0.00739824   -0.01423692
     atom   86 type  2   force =     0.01192540    0.00710136   -0.01395981
     atom   87 type  2   force =     0.00749143    0.01059064   -0.02181260
     atom   88 type  2   force =     0.01356798   -0.00208758   -0.00749666
     atom   89 type  2   force =    -0.67427473   -0.60986484    0.27433782
     atom   90 type  2   force =     0.03278691   -0.02324924    0.01500960
     atom   91 type  2   force =     0.61742169    0.66198684    0.37647503
     atom   92 type  2   force =    -0.03700966    0.02027988    0.01362540
     atom   93 type  2   force =    -0.67415037   -0.60968960    0.27354621
     atom   94 type  2   force =     0.03281632   -0.02293687    0.01503932
     atom   95 type  2   force =    -0.03535060   -0.02224176    0.01250811
     atom   96 type  2   force =     0.60132074   -0.57840447    0.38610670
     atom   97 type  3   force =    -0.00661135    0.00027313   -0.01535151
     atom   98 type  3   force =    -0.17360368    0.15650106   -0.09765420
     atom   99 type  3   force =     0.14249475    0.11808108   -0.07829390
     atom  100 type  3   force =     0.13665309   -0.11993471   -0.06265767
     atom  101 type  3   force =    -0.00657589    0.00131524   -0.01463057
     atom  102 type  3   force =    -0.17389563    0.15634591   -0.09799307
     atom  103 type  3   force =    -0.01529036   -0.00039707   -0.00418056
     atom  104 type  3   force =     0.00653281   -0.00332359   -0.01646113
     atom  105 type  4   force =     0.01461988    0.02752795    0.00121798
     atom  106 type  4   force =    -0.00163493   -0.01955403    0.02293902
     atom  107 type  4   force =     0.00310170    0.01693055   -0.00302904
     atom  108 type  4   force =    -0.01266311   -0.00855068    0.01824482
     atom  109 type  5   force =     0.03962912   -0.00238361   -0.00759237
     atom  110 type  5   force =     0.02767794   -0.00602585    0.00472672
     atom  111 type  5   force =    -0.04080039    0.00630143   -0.00616379
     atom  112 type  5   force =    -0.02998348    0.00969404   -0.00678561
     atom  113 type  5   force =    -0.02332490   -0.00111627    0.01281334
     atom  114 type  5   force =    -0.01959845    0.00019498    0.01454723
     atom  115 type  5   force =     0.01749275   -0.00590167    0.02155726
     atom  116 type  5   force =     0.01627819    0.00913981    0.01119241
     atom  117 type  5   force =     0.02738950    0.00449710   -0.00646107
     atom  118 type  5   force =     0.03721873   -0.00185531   -0.00940627
     atom  119 type  5   force =    -0.03612260    0.00206467   -0.00343079
     atom  120 type  5   force =    -0.02581767    0.01315845   -0.00445442
     atom  121 type  5   force =    -0.01712486    0.01568181    0.02009974
     atom  122 type  5   force =    -0.01729293   -0.01264577    0.01776678
     atom  123 type  5   force =     0.01577262   -0.00622979    0.02080145
     atom  124 type  5   force =     0.01739150    0.00920401    0.01164535

     Total force =     2.800932     Total SCF correction =     0.001375

     BFGS Geometry Optimization

     number of scf cycles    =   1
     number of bfgs steps    =   0

     energy   new            =   -1823.1721476278 Ry

     new trust radius        =       0.5000000000 bohr
     new conv_thr            =       0.0000010000 Ry


ATOMIC_POSITIONS (crystal)
C             0.2877500412        0.9697832097        0.5218020748
C             0.0382121246        0.0311173591        0.0216541616
C             0.3917282301        0.0122989837        0.5466160238
C             0.1397747324        0.9873532844        0.0453841205
C             0.4520022605        0.9701292232        0.6503886656
C             0.2056512245        0.0270679157        0.1442587726
C             0.2085937457        0.5300588442        0.5256684871
C             0.4589952957        0.4714745800        0.0276128201
C             0.2448660720        0.6142018380        0.6073174429
C             0.4966755763        0.3888007705        0.1085859337
C             0.2491697271        0.8885984800        0.6039215784
C             0.0013428947        0.1126168748        0.1040941646
C             0.4085863498        0.8893694141        0.7279544070
C             0.1714748877        0.1237184864        0.2200687096
C             0.0785591648        0.6214060046        0.7170728234
C             0.3309761987        0.3768572732        0.2195743012
C             0.0442671188        0.5234202929        0.6458778044
C             0.2945136367        0.4761215028        0.1466444598
C             0.1070027466        0.4837415060        0.5506282972
C             0.3581997530        0.5160366333        0.0499194727
C             0.4331842568        0.0991314076        0.4669980459
C             0.1815215697        0.8997381294        0.9659003006
C             0.0671559665        0.3944802009        0.4710540280
C             0.3164058602        0.6041109975        0.9692907396
C             0.7877603147        0.9697835375        0.5218064420
C             0.5382077813        0.0311169675        0.0216497551
C             0.8917256905        0.0122942581        0.5466235402
C             0.6397783265        0.9873605219        0.0454023762
C             0.9520046347        0.9701197512        0.6503952210
C             0.7056433334        0.0270734302        0.1442597353
C             0.7083822344        0.5296775604        0.5262792463
C             0.9587070860        0.4710452862        0.0274792610
C             0.7454712189        0.6132022786        0.6060824711
C             0.9970034224        0.3878028943        0.1092373033
C             0.7491445473        0.8885832883        0.6039322192
C             0.5013711953        0.1126059950        0.1041050275
C             0.9085661986        0.8893719283        0.7279149648
C             0.6714585175        0.1237030791        0.2200819332
C             0.5890271341        0.6096746144        0.7280622021
C             0.8402933227        0.3916817677        0.2297214950
C             0.5469661547        0.5253270962        0.6513931855
C             0.7975872085        0.4746480028        0.1528204677
C             0.6087135007        0.4838405452        0.5491134871
C             0.8568669443        0.5161389695        0.0507720063
C             0.9331088104        0.0991503000        0.4669200174
C             0.6814581793        0.8997270549        0.9658373012
C             0.5677526937        0.3947176931        0.4708351690
C             0.8159563496        0.6040289213        0.9693919145
C             0.2255350916        0.0035065528        0.4248958394
C             0.1677723414        0.0313349603        0.3400371150
C             0.3019817212        0.9924779070        0.1776170229
C             0.3922851243        0.9594403976        0.2047344540
C             0.2700223151        0.4969730995        0.4309966618
C             0.3273619643        0.4694390659        0.3477705618
C             0.1996157814        0.5120188555        0.1799349538
C             0.1107262458        0.5463050428        0.2067877410
C             0.7255384299        0.0035021679        0.4249013870
C             0.6677905916        0.0313585654        0.3400457720
C             0.8019794367        0.9924804290        0.1776171070
C             0.8922880165        0.9594404638        0.2047355539
C             0.4496476026        0.4868244542        0.6790615349
C             0.3604876470        0.4518163179        0.7046243082
C             0.0203091807        0.5048708657        0.9323053820
C             0.0775260926        0.5331930770        0.8486679210
H             0.4867876962        0.0027443082        0.9437903346
H             0.0317498732        0.9987457911        0.6733533024
H             0.3222559521        0.6504527790        0.5926996658
H             0.0745807138        0.3529443509        0.0949498537
H             0.1704056385        0.8552839621        0.5885426894
H             0.4227708796        0.1477218127        0.0899651346
H             0.4530869533        0.8553131212        0.8083535089
H             0.2074626506        0.1456121044        0.3076194630
H             0.0421829094        0.6456259865        0.8053730998
H             0.2949391364        0.3548999867        0.3079087763
H             0.9867862824        0.0027461799        0.9437898950
H             0.5317457063        0.9987437802        0.6733525750
H             0.7584597689        0.5009694557        0.4495697246
H             0.5083982655        0.5003327010        0.9508639728
H             0.8223624772        0.6503695010        0.5926971220
H             0.5746672853        0.3529001735        0.0951817105
H             0.6704166884        0.8552802251        0.5885481560
H             0.9227755139        0.1477251404        0.0899715035
H             0.9530880355        0.8553236363        0.8083710757
H             0.7074675642        0.1456285401        0.3076123724
H             0.5439488440        0.6427845674        0.8062340309
H             0.7966286856        0.3576790350        0.3086843097
H             0.9688232432        0.4934592292        0.6729290361
H             0.7192412233        0.5051560125        0.1750670810
H             0.1068397917        0.0493143641        0.2645601858
H             0.4671737416        0.9311419770        0.2243052656
H             0.3862964001        0.4543048690        0.2771060815
H             0.0368368174        0.5756830330        0.2259679061
H             0.6068420969        0.0493181407        0.2645393920
H             0.9671743904        0.9311507086        0.2243070462
H             0.2868920870        0.4216046883        0.7232985576
H             0.1364265339        0.5508003377        0.7798530820
N             0.3082869832        0.8512588860        0.7044247532
N             0.0569358180        0.1522296104        0.2034868622
N             0.1895797153        0.6528546567        0.7037814102
N             0.4417291230        0.3483433975        0.2063951356
N             0.8082880932        0.8512813435        0.7044436905
N             0.5569293556        0.1522262668        0.2034779609
N             0.6862110239        0.6503014430        0.7057281869
N             0.9389431136        0.3508563765        0.2076086062
Ni            0.2473180904        0.7520792295        0.8363579934
Ni            0.4999476830        0.2475776092        0.3397805521
Ni            0.7470674890        0.7518508546        0.8362464344
Ni            0.9997074424        0.2478147321        0.3396572470
O             0.1236295966        0.3476376331        0.3826735669
O             0.3718075703        0.6508471424        0.8814161594
O             0.3767465501        0.1476427964        0.3770160921
O             0.1244476900        0.8525609074        0.8760827585
O             0.4725717566        0.3561359443        0.4833305751
O             0.2207210051        0.6414192017        0.9802591202
O             0.0292278122        0.1350308186        0.4816442568
O             0.2770426461        0.8629549637        0.9796929972
O             0.6233669972        0.3477859128        0.3827032834
O             0.8720067116        0.6509370180        0.8810449202
O             0.8768488069        0.1475514939        0.3770878815
O             0.6245387059        0.8526355657        0.8761439933
O             0.9727090413        0.3564979441        0.4835219711
O             0.7207722990        0.6411424826        0.9803436900
O             0.5291903293        0.1350237476        0.4816244035
O             0.7770668888        0.8629563471        0.9797048950



     Writing output data file /nfs/hpc/share/gantzlen/NiPyC2_relax_sc211_meta_functionalized_C-C_vdw-df2_relax.save/
     NEW-OLD atomic charge density approx. for the potential

     Check: negative core charge=   -0.000145

     total cpu time spent up to now is     4711.3 secs

     Self-consistent Calculation

     iteration #  1     ecut=   100.00 Ry     beta= 0.70
     Davidson diagonalization with overlap
     c_bands:  1 eigenvalues not converged
     ethr =  1.00E-06,  avg # of iterations = 20.0

     total cpu time spent up to now is     5490.8 secs

     total energy              =   -1824.78022713 Ry
     Harris-Foulkes estimate   =   -1825.01594152 Ry
     estimated scf accuracy    <       0.76289498 Ry

     total magnetization       =     8.00 Bohr mag/cell
     absolute magnetization    =     8.21 Bohr mag/cell

     iteration #  2     ecut=   100.00 Ry     beta= 0.70
     Davidson diagonalization with overlap
     ethr =  1.64E-04,  avg # of iterations =  3.0

     total cpu time spent up to now is     5648.9 secs

     total energy              =   -1824.80279632 Ry
     Harris-Foulkes estimate   =   -1824.84174754 Ry
     estimated scf accuracy    <       0.12960255 Ry

     total magnetization       =     8.00 Bohr mag/cell
     absolute magnetization    =     8.21 Bohr mag/cell

     iteration #  3     ecut=   100.00 Ry     beta= 0.70
     Davidson diagonalization with overlap
     ethr =  2.79E-05,  avg # of iterations =  3.0

     total cpu time spent up to now is     5811.5 secs

     total energy              =   -1824.79473661 Ry
     Harris-Foulkes estimate   =   -1824.84973171 Ry
     estimated scf accuracy    <       0.48812621 Ry

     total magnetization       =     8.00 Bohr mag/cell
     absolute magnetization    =     8.21 Bohr mag/cell

     iteration #  4     ecut=   100.00 Ry     beta= 0.70
     Davidson diagonalization with overlap
     ethr =  2.79E-05,  avg # of iterations =  2.0

     total cpu time spent up to now is     5961.1 secs

     total energy              =   -1824.82136090 Ry
     Harris-Foulkes estimate   =   -1824.82428939 Ry
     estimated scf accuracy    <       0.01901684 Ry

     total magnetization       =     8.00 Bohr mag/cell
     absolute magnetization    =     8.21 Bohr mag/cell

     iteration #  5     ecut=   100.00 Ry     beta= 0.70
     Davidson diagonalization with overlap
     ethr =  4.10E-06,  avg # of iterations = 14.0

     total cpu time spent up to now is     6124.9 secs

     total energy              =   -1824.82085974 Ry
     Harris-Foulkes estimate   =   -1824.82534599 Ry
     estimated scf accuracy    <       0.05732746 Ry

     total magnetization       =     8.00 Bohr mag/cell
     absolute magnetization    =     8.21 Bohr mag/cell

     iteration #  6     ecut=   100.00 Ry     beta= 0.70
     Davidson diagonalization with overlap
     ethr =  4.10E-06,  avg # of iterations =  1.0

     total cpu time spent up to now is     6257.9 secs

     total energy              =   -1824.82309036 Ry
     Harris-Foulkes estimate   =   -1824.82340184 Ry
     estimated scf accuracy    <       0.00241897 Ry

     total magnetization       =     8.00 Bohr mag/cell
     absolute magnetization    =     8.21 Bohr mag/cell

     iteration #  7     ecut=   100.00 Ry     beta= 0.70
     Davidson diagonalization with overlap
     ethr =  5.21E-07,  avg # of iterations =  3.0

     total cpu time spent up to now is     6399.4 secs

     total energy              =   -1824.82310365 Ry
     Harris-Foulkes estimate   =   -1824.82323052 Ry
     estimated scf accuracy    <       0.00053146 Ry

     total magnetization       =     8.00 Bohr mag/cell
     absolute magnetization    =     8.21 Bohr mag/cell

     iteration #  8     ecut=   100.00 Ry     beta= 0.70
     Davidson diagonalization with overlap
     ethr =  1.15E-07,  avg # of iterations =  3.0

     total cpu time spent up to now is     6550.3 secs

     total energy              =   -1824.82305467 Ry
     Harris-Foulkes estimate   =   -1824.82322751 Ry
     estimated scf accuracy    <       0.00207788 Ry

     total magnetization       =     8.00 Bohr mag/cell
     absolute magnetization    =     8.21 Bohr mag/cell

     iteration #  9     ecut=   100.00 Ry     beta= 0.70
     Davidson diagonalization with overlap
     ethr =  1.15E-07,  avg # of iterations =  2.0

     total cpu time spent up to now is     6695.8 secs

     total energy              =   -1824.82311816 Ry
     Harris-Foulkes estimate   =   -1824.82314633 Ry
     estimated scf accuracy    <       0.00015630 Ry

     total magnetization       =     8.00 Bohr mag/cell
     absolute magnetization    =     8.21 Bohr mag/cell

     iteration # 10     ecut=   100.00 Ry     beta= 0.70
     Davidson diagonalization with overlap
     ethr =  3.37E-08,  avg # of iterations =  3.5

     total cpu time spent up to now is     6840.8 secs

     total energy              =   -1824.82311786 Ry
     Harris-Foulkes estimate   =   -1824.82312795 Ry
     estimated scf accuracy    <       0.00004023 Ry

     total magnetization       =     8.00 Bohr mag/cell
     absolute magnetization    =     8.21 Bohr mag/cell

     iteration # 11     ecut=   100.00 Ry     beta= 0.70
     Davidson diagonalization with overlap
     ethr =  8.67E-09,  avg # of iterations =  3.0

     total cpu time spent up to now is     6986.3 secs

     total energy              =   -1824.82311589 Ry
     Harris-Foulkes estimate   =   -1824.82312239 Ry
     estimated scf accuracy    <       0.00001964 Ry

     total magnetization       =     8.00 Bohr mag/cell
     absolute magnetization    =     8.21 Bohr mag/cell

     iteration # 12     ecut=   100.00 Ry     beta= 0.70
     Davidson diagonalization with overlap
     ethr =  4.23E-09,  avg # of iterations =  3.5

     total cpu time spent up to now is     7136.2 secs

     total energy              =   -1824.82311254 Ry
     Harris-Foulkes estimate   =   -1824.82312080 Ry
     estimated scf accuracy    <       0.00008240 Ry

     total magnetization       =     8.00 Bohr mag/cell
     absolute magnetization    =     8.21 Bohr mag/cell

     iteration # 13     ecut=   100.00 Ry     beta= 0.70
     Davidson diagonalization with overlap
     ethr =  4.23E-09,  avg # of iterations =  3.0

     total cpu time spent up to now is     7292.6 secs

     total energy              =   -1824.82311191 Ry
     Harris-Foulkes estimate   =   -1824.82311550 Ry
     estimated scf accuracy    <       0.00000408 Ry

     total magnetization       =     8.00 Bohr mag/cell
     absolute magnetization    =     8.21 Bohr mag/cell

     iteration # 14     ecut=   100.00 Ry     beta= 0.70
     Davidson diagonalization with overlap
     ethr =  8.80E-10,  avg # of iterations =  4.5

     total cpu time spent up to now is     7484.6 secs

     total energy              =   -1824.82310821 Ry
     Harris-Foulkes estimate   =   -1824.82311272 Ry
     estimated scf accuracy    <       0.00000432 Ry

     total magnetization       =     8.00 Bohr mag/cell
     absolute magnetization    =     8.21 Bohr mag/cell

     iteration # 15     ecut=   100.00 Ry     beta= 0.70
     Davidson diagonalization with overlap
     ethr =  8.80E-10,  avg # of iterations =  4.5

     total cpu time spent up to now is     7674.9 secs

     total energy              =   -1824.82310739 Ry
     Harris-Foulkes estimate   =   -1824.82310903 Ry
     estimated scf accuracy    <       0.00000292 Ry

     total magnetization       =     8.00 Bohr mag/cell
     absolute magnetization    =     8.21 Bohr mag/cell

     iteration # 16     ecut=   100.00 Ry     beta= 0.70
     Davidson diagonalization with overlap
     ethr =  6.29E-10,  avg # of iterations =  3.5

     total cpu time spent up to now is     7854.9 secs

     total energy              =   -1824.82310496 Ry
     Harris-Foulkes estimate   =   -1824.82310791 Ry
     estimated scf accuracy    <       0.00000369 Ry

     total magnetization       =     8.00 Bohr mag/cell
     absolute magnetization    =     8.21 Bohr mag/cell

     iteration # 17     ecut=   100.00 Ry     beta= 0.70
     Davidson diagonalization with overlap
     ethr =  6.29E-10,  avg # of iterations =  4.5
 
     Magnetic moment per site:
     atom:    1    charge:    0.3736    magn:    0.0009    constr:    0.0000
     atom:    2    charge:    0.3651    magn:    0.0036    constr:    0.0000
     atom:    3    charge:    0.3653    magn:    0.0028    constr:    0.0000
     atom:    4    charge:    0.3681    magn:    0.0019    constr:    0.0000
     atom:    5    charge:    0.3651    magn:    0.0020    constr:    0.0000
     atom:    6    charge:    0.3682    magn:    0.0034    constr:    0.0000
     atom:    7    charge:    0.3743    magn:    0.0022    constr:    0.0000
     atom:    8    charge:    0.3638    magn:    0.0032    constr:    0.0000
     atom:    9    charge:    0.3633    magn:    0.0020    constr:    0.0000
     atom:   10    charge:    0.3610    magn:    0.0011    constr:    0.0000
     atom:   11    charge:    0.3613    magn:    0.0034    constr:    0.0000
     atom:   12    charge:    0.3631    magn:    0.0007    constr:    0.0000
     atom:   13    charge:    0.3615    magn:    0.0027    constr:    0.0000
     atom:   14    charge:    0.3203    magn:    0.0039    constr:    0.0000
     atom:   15    charge:    0.3245    magn:    0.0039    constr:    0.0000
     atom:   16    charge:    0.3209    magn:    0.0045    constr:    0.0000
     atom:   17    charge:    0.3633    magn:    0.0040    constr:    0.0000
     atom:   18    charge:    0.3681    magn:    0.0035    constr:    0.0000
     atom:   19    charge:    0.3691    magn:    0.0020    constr:    0.0000
     atom:   20    charge:    0.3677    magn:    0.0019    constr:    0.0000
     atom:   21    charge:    0.3502    magn:   -0.0006    constr:    0.0000
     atom:   22    charge:    0.3500    magn:   -0.0007    constr:    0.0000
     atom:   23    charge:    0.3505    magn:   -0.0006    constr:    0.0000
     atom:   24    charge:    0.3517    magn:   -0.0007    constr:    0.0000
     atom:   25    charge:    0.3736    magn:    0.0010    constr:    0.0000
     atom:   26    charge:    0.3651    magn:    0.0036    constr:    0.0000
     atom:   27    charge:    0.3653    magn:    0.0028    constr:    0.0000
     atom:   28    charge:    0.3681    magn:    0.0019    constr:    0.0000
     atom:   29    charge:    0.3651    magn:    0.0020    constr:    0.0000
     atom:   30    charge:    0.3683    magn:    0.0034    constr:    0.0000
     atom:   31    charge:    0.3657    magn:    0.0019    constr:    0.0000
     atom:   32    charge:    0.3720    magn:    0.0013    constr:    0.0000
     atom:   33    charge:    0.3597    magn:    0.0027    constr:    0.0000
     atom:   34    charge:    0.3610    magn:    0.0032    constr:    0.0000
     atom:   35    charge:    0.3612    magn:    0.0034    constr:    0.0000
     atom:   36    charge:    0.3631    magn:    0.0007    constr:    0.0000
     atom:   37    charge:    0.3616    magn:    0.0027    constr:    0.0000
     atom:   38    charge:    0.3203    magn:    0.0039    constr:    0.0000
     atom:   39    charge:    0.3627    magn:    0.0031    constr:    0.0000
     atom:   40    charge:    0.3592    magn:    0.0026    constr:    0.0000
     atom:   41    charge:    0.3720    magn:    0.0012    constr:    0.0000
     atom:   42    charge:    0.3650    magn:    0.0019    constr:    0.0000
     atom:   43    charge:    0.3662    magn:    0.0027    constr:    0.0000
     atom:   44    charge:    0.3646    magn:    0.0028    constr:    0.0000
     atom:   45    charge:    0.3504    magn:   -0.0006    constr:    0.0000
     atom:   46    charge:    0.3502    magn:   -0.0008    constr:    0.0000
     atom:   47    charge:    0.3504    magn:   -0.0007    constr:    0.0000
     atom:   48    charge:    0.3512    magn:   -0.0009    constr:    0.0000
     atom:   49    charge:    0.3978    magn:    0.0053    constr:    0.0000
     atom:   50    charge:    0.3760    magn:    0.0054    constr:    0.0000
     atom:   51    charge:    0.3806    magn:    0.0030    constr:    0.0000
     atom:   52    charge:    0.3718    magn:    0.0090    constr:    0.0000
     atom:   53    charge:    0.3942    magn:    0.0050    constr:    0.0000
     atom:   54    charge:    0.3784    magn:    0.0063    constr:    0.0000
     atom:   55    charge:    0.3811    magn:    0.0029    constr:    0.0000
     atom:   56    charge:    0.3725    magn:    0.0094    constr:    0.0000
     atom:   57    charge:    0.3978    magn:    0.0053    constr:    0.0000
     atom:   58    charge:    0.3760    magn:    0.0054    constr:    0.0000
     atom:   59    charge:    0.3806    magn:    0.0030    constr:    0.0000
     atom:   60    charge:    0.3718    magn:    0.0090    constr:    0.0000
     atom:   61    charge:    0.3772    magn:    0.0031    constr:    0.0000
     atom:   62    charge:    0.3722    magn:    0.0091    constr:    0.0000
     atom:   63    charge:    0.3922    magn:    0.0051    constr:    0.0000
     atom:   64    charge:    0.3781    magn:    0.0053    constr:    0.0000
     atom:   65    charge:    0.2805    magn:   -0.0008    constr:    0.0000
     atom:   66    charge:    0.2805    magn:   -0.0007    constr:    0.0000
     atom:   67    charge:    0.2808    magn:   -0.0004    constr:    0.0000
     atom:   68    charge:    0.2835    magn:   -0.0005    constr:    0.0000
     atom:   69    charge:    0.2829    magn:   -0.0006    constr:    0.0000
     atom:   70    charge:    0.2817    magn:   -0.0003    constr:    0.0000
     atom:   71    charge:    0.2825    magn:   -0.0006    constr:    0.0000
     atom:   72    charge:    0.2887    magn:    0.0004    constr:    0.0000
     atom:   73    charge:    0.2792    magn:    0.0005    constr:    0.0000
     atom:   74    charge:    0.2824    magn:    0.0005    constr:    0.0000
     atom:   75    charge:    0.2805    magn:   -0.0008    constr:    0.0000
     atom:   76    charge:    0.2804    magn:   -0.0007    constr:    0.0000
     atom:   77    charge:    0.2813    magn:   -0.0007    constr:    0.0000
     atom:   78    charge:    0.2812    magn:   -0.0008    constr:    0.0000
     atom:   79    charge:    0.2835    magn:   -0.0007    constr:    0.0000
     atom:   80    charge:    0.2808    magn:   -0.0005    constr:    0.0000
     atom:   81    charge:    0.2828    magn:   -0.0006    constr:    0.0000
     atom:   82    charge:    0.2818    magn:   -0.0003    constr:    0.0000
     atom:   83    charge:    0.2825    magn:   -0.0006    constr:    0.0000
     atom:   84    charge:    0.2885    magn:    0.0004    constr:    0.0000
     atom:   85    charge:    0.2806    magn:   -0.0006    constr:    0.0000
     atom:   86    charge:    0.2814    magn:   -0.0006    constr:    0.0000
     atom:   87    charge:    0.2854    magn:   -0.0004    constr:    0.0000
[...]
     atom    8 type  1   force =     0.00010207    0.00034080    0.00015087
     atom    9 type  1   force =    -0.00028855    0.00016629   -0.00008062
     atom   10 type  1   force =     0.00015919   -0.00016060   -0.00018844
     atom   11 type  1   force =     0.00002076    0.00015766    0.00008207
     atom   12 type  1   force =     0.00002126   -0.00054256    0.00021821
     atom   13 type  1   force =     0.00028037   -0.00006537    0.00065280
     atom   14 type  1   force =    -0.00008654    0.00008598    0.00021114
     atom   15 type  1   force =     0.00024043   -0.00009809    0.00006401
     atom   16 type  1   force =    -0.00004887   -0.00018321    0.00023246
     atom   17 type  1   force =    -0.00003493   -0.00009651    0.00018829
     atom   18 type  1   force =    -0.00012071   -0.00010396    0.00003097
     atom   19 type  1   force =    -0.00023487    0.00005047   -0.00026935
     atom   20 type  1   force =     0.00041658   -0.00016493   -0.00009631
     atom   21 type  1   force =    -0.00004374    0.00006306   -0.00002422
     atom   22 type  1   force =    -0.00001642    0.00040346    0.00034252
     atom   23 type  1   force =     0.00035292   -0.00036088   -0.00024372
     atom   24 type  1   force =     0.00050904   -0.00007046    0.00040945
     atom   25 type  1   force =     0.00042117    0.00002362   -0.00000721
     atom   26 type  1   force =    -0.00003533   -0.00011376    0.00009328
     atom   27 type  1   force =    -0.00010486    0.00016561    0.00021505
     atom   28 type  1   force =     0.00038762    0.00034757   -0.00034228
     atom   29 type  1   force =    -0.00003361   -0.00031785   -0.00016405
     atom   30 type  1   force =    -0.00016477   -0.00006380   -0.00011569
     atom   31 type  1   force =     0.00013019   -0.00003753   -0.00023292
     atom   32 type  1   force =    -0.00010419    0.00038335   -0.00017878
     atom   33 type  1   force =     0.00037940    0.00001447   -0.00003256
     atom   34 type  1   force =    -0.00020698   -0.00015602    0.00031152
     atom   35 type  1   force =     0.00002810   -0.00049173    0.00011135
     atom   36 type  1   force =    -0.00003033    0.00002685    0.00014119
     atom   37 type  1   force =    -0.00035436   -0.00010855   -0.00027540
     atom   38 type  1   force =     0.00006261   -0.00013673   -0.00010074
     atom   39 type  1   force =    -0.00010514   -0.00013759   -0.00003832
     atom   40 type  1   force =     0.00027249    0.00023765   -0.00021958
     atom   41 type  1   force =    -0.00026225   -0.00002493   -0.00009887
     atom   42 type  1   force =     0.00024156    0.00029098   -0.00023363
     atom   43 type  1   force =    -0.00027251    0.00006597   -0.00014856
     atom   44 type  1   force =    -0.00010836    0.00017908    0.00014450
     atom   45 type  1   force =     0.00016234    0.00001354    0.00011190
     atom   46 type  1   force =    -0.00019830    0.00031337    0.00015762
     atom   47 type  1   force =    -0.00000390   -0.00019067   -0.00024020
     atom   48 type  1   force =     0.00021004    0.00009324    0.00005577
     atom   49 type  1   force =    -0.00024258    0.00023139   -0.00042828
     atom   50 type  1   force =     0.00000604   -0.00029095    0.00040977
     atom   51 type  1   force =     0.00013950    0.00025011   -0.00000109
     atom   52 type  1   force =    -0.00032463    0.00008216   -0.00034680
     atom   53 type  1   force =    -0.00039739    0.00002024   -0.00008600
     atom   54 type  1   force =    -0.00045260    0.00007919    0.00008597
     atom   55 type  1   force =     0.00022527    0.00002070   -0.00018049
     atom   56 type  1   force =     0.00014166    0.00010058   -0.00024831
     atom   57 type  1   force =     0.00000602    0.00057223   -0.00015916
     atom   58 type  1   force =    -0.00005549   -0.00021709    0.00001140
     atom   59 type  1   force =     0.00001377   -0.00026301   -0.00001787
     atom   60 type  1   force =    -0.00026572    0.00010449   -0.00011751
     atom   61 type  1   force =     0.00018279   -0.00045570   -0.00022986
     atom   62 type  1   force =    -0.00019483   -0.00012367    0.00036418
     atom   63 type  1   force =    -0.00012146   -0.00025111    0.00012803
     atom   64 type  1   force =    -0.00010733   -0.00027276   -0.00006241
     atom   65 type  2   force =     0.00001470    0.00001496    0.00020818
     atom   66 type  2   force =    -0.00012502    0.00005825    0.00021864
     atom   67 type  2   force =    -0.00041188   -0.00010787    0.00013346
     atom   68 type  2   force =    -0.00050522    0.00008610    0.00006788
     atom   69 type  2   force =    -0.00014786    0.00003713   -0.00024804
     atom   70 type  2   force =    -0.00014254   -0.00036622   -0.00018447
     atom   71 type  2   force =     0.00044264   -0.00027605    0.00029301
     atom   72 type  2   force =    -0.00003378   -0.00041435   -0.00001960
     atom   73 type  2   force =     0.00053121    0.00072971    0.00003884
     atom   74 type  2   force =    -0.00055452    0.00004470    0.00007854
     atom   75 type  2   force =    -0.00020284    0.00007438   -0.00019036
     atom   76 type  2   force =     0.00008120   -0.00007044   -0.00013088
     atom   77 type  2   force =    -0.00000488    0.00006105    0.00003678
     atom   78 type  2   force =     0.00038247    0.00010643   -0.00020519
     atom   79 type  2   force =     0.00032976    0.00021217   -0.00029994
     atom   80 type  2   force =     0.00017351    0.00031321   -0.00007917
     atom   81 type  2   force =     0.00001426    0.00023750   -0.00004857
     atom   82 type  2   force =     0.00043215   -0.00053648    0.00043273
     atom   83 type  2   force =    -0.00010609    0.00022776    0.00030102
     atom   84 type  2   force =     0.00035306   -0.00008789   -0.00031377
     atom   85 type  2   force =    -0.00060831    0.00003237   -0.00007879
     atom   86 type  2   force =     0.00035264    0.00001597    0.00015359
     atom   87 type  2   force =     0.00002804   -0.00014890   -0.00019801
     atom   88 type  2   force =     0.00013663   -0.00003418   -0.00043037
     atom   89 type  2   force =    -0.00023795    0.00011731    0.00008992
     atom   90 type  2   force =    -0.00049371    0.00045318   -0.00009633
     atom   91 type  2   force =    -0.00007357   -0.00020385    0.00053292
     atom   92 type  2   force =     0.00015839   -0.00033945    0.00031039
     atom   93 type  2   force =    -0.00003615    0.00038353   -0.00025608
     atom   94 type  2   force =    -0.00051062    0.00018962   -0.00010481
     atom   95 type  2   force =     0.00001183    0.00012599    0.00059755
     atom   96 type  2   force =    -0.00020687    0.00020490   -0.00024092
     atom   97 type  3   force =    -0.00004250   -0.00007940    0.00000243
     atom   98 type  3   force =    -0.00019257   -0.00028362    0.00004772
     atom   99 type  3   force =     0.00009393    0.00015946    0.00014915
     atom  100 type  3   force =    -0.00011631    0.00014264   -0.00014924
     atom  101 type  3   force =     0.00000179   -0.00013593    0.00031515
     atom  102 type  3   force =    -0.00006417   -0.00014782    0.00001299
     atom  103 type  3   force =     0.00011920   -0.00014412    0.00011453
     atom  104 type  3   force =    -0.00029272    0.00021225    0.00001340
     atom  105 type  4   force =    -0.00033980    0.00015790   -0.00080497
     atom  106 type  4   force =    -0.00065292   -0.00012736   -0.00005035
     atom  107 type  4   force =    -0.00006820    0.00031883   -0.00021797
     atom  108 type  4   force =     0.00009280    0.00012941   -0.00017177
     atom  109 type  5   force =     0.00054620    0.00002027    0.00013573
     atom  110 type  5   force =     0.00022005    0.00018912   -0.00030785
     atom  111 type  5   force =     0.00021971   -0.00006433    0.00034762
     atom  112 type  5   force =    -0.00013720   -0.00018430    0.00001669
     atom  113 type  5   force =    -0.00021485   -0.00034142   -0.00047809
     atom  114 type  5   force =     0.00027939    0.00013781   -0.00031027
     atom  115 type  5   force =     0.00046952   -0.00038489    0.00040462
     atom  116 type  5   force =     0.00003967   -0.00017435    0.00011428
     atom  117 type  5   force =    -0.00014532   -0.00040717   -0.00001326
     atom  118 type  5   force =     0.00060094   -0.00031410    0.00020573
     atom  119 type  5   force =    -0.00019206    0.00017098    0.00021734
     atom  120 type  5   force =     0.00026271    0.00006473   -0.00058457
     atom  121 type  5   force =     0.00015996    0.00074851    0.00053215
     atom  122 type  5   force =    -0.00027383   -0.00009601    0.00005581
     atom  123 type  5   force =     0.00004071    0.00046366   -0.00018676
     atom  124 type  5   force =    -0.00009152    0.00015668    0.00019414

     Total force =     0.004890     Total SCF correction =     0.000212

     bfgs converged in  72 scf cycles and  70 bfgs steps
     (criteria: energy <  1.0E-04 Ry, force <  1.0E-03 Ry/Bohr)

     End of BFGS Geometry Optimization

     Final energy   =   -1826.6282514438 Ry
Begin final coordinates

ATOMIC_POSITIONS (crystal)
C             0.2818245050        0.9724069899        0.5332582213
C             0.0501592151        0.0460207058        0.0109782303
C             0.3862922940        0.0161877507        0.5492061549
C             0.1524102703        1.0045020605        0.0332409500
C             0.4538621573        0.9714976112        0.6452576570
C             0.2174309946        0.0486330633        0.1355714414
C             0.2144241298        0.5480430527        0.5215133096
C             0.4639638498        0.4860381234        0.0406691392
C             0.2445550633        0.6261728886        0.6157456984
C             0.5003761843        0.4007984580        0.1169284802
C             0.2505226497        0.8904801511        0.6198414183
C             0.0112401604        0.1246518571        0.0937777299
C             0.4177438750        0.8881152235        0.7239105212
C             0.1735266669        0.1337632110        0.2104849510
C             0.0696636988        0.6458173341        0.6859140580
C             0.3312408766        0.3755437789        0.2058278815
C             0.0345570963        0.5649865841        0.6007125377
C             0.2885875543        0.4648068869        0.1349250170
C             0.1068362519        0.5096996508        0.5231246250
C             0.3574192833        0.5184277112        0.0476342016
C             0.4262461550        0.1040385194        0.4692961420
C             0.1893551767        0.9119969303        0.9589743006
C             0.0692976808        0.4115575566        0.4566629702
C             0.3174513241        0.6080817589        0.9696332364
C             0.7841576682        0.9649489038        0.5326254840
C             0.5523486291        0.0464116346        0.0024486016
C             0.8847109848        0.0153411215        0.5573214725
C             0.6533420550        1.0025136162        0.0270703950
C             0.9503937573        0.9741327053        0.6573402845
C             0.7191685958        0.0475609554        0.1282063230
C             0.7059165830        0.5266521267        0.5307182036
C             0.9455567850        0.4508210640        0.0139775187
C             0.7395439886        0.6135642825        0.6055921661
C             0.9814340050        0.3700808138        0.1016348134
C             0.7548318710        0.8784379109        0.6136169940
C             0.5153834049        0.1286476446        0.0817980463
C             0.9154999249        0.8881312568        0.7324019974
C             0.6773487434        0.1354367531        0.2000736516
C             0.5858385194        0.6062474114        0.7324557900
C             0.8300524751        0.3865075676        0.2285233874
C             0.5469569434        0.5154139416        0.6631897092
C             0.7900780760        0.4685607231        0.1489171148
C             0.6090785309        0.4771098924        0.5578220675
C             0.8480335306        0.5032111200        0.0420048804
C             0.9214337090        0.1065896346        0.4807529039
C             0.6886615631        0.9072914060        0.9564287544
C             0.5702825832        0.3891023345        0.4762152635
C             0.8104830167        0.5949598955        0.9655908521
C             0.2012437653       -0.0081645002        0.4420962057
C             0.1169616889       -0.0188584670        0.3813677021
C             0.3109659657        0.9967131852        0.1756341681
C             0.3826164618        0.9359996181        0.2091034666
C             0.2978630559        0.5282163391        0.4380580897
C             0.3823353891        0.5403086039        0.3825082687
C             0.1897738594        0.5070458898        0.1675368559
C             0.1090303070        0.5508336034        0.2049875711
C             0.7063729450       -0.0152109399        0.4381028212
C             0.6242479860       -0.0231448300        0.3724652134
C             0.8115363514        0.9946417723        0.1702067922
C             0.8832954186        0.9346104876        0.2051012101
C             0.4554647551        0.4633347379        0.7046760887
C             0.3788804971        0.4138925586        0.7442959413
C             0.0168040394        0.4694834338        0.9146895434
C             0.0966764178        0.4648035838        0.8488126616
H             0.5001720075        0.0144996697        0.9277026827
H             0.0273898994        1.0087074342        0.6785304382
H             0.3264553832        0.6516139710        0.6235887642
H             0.0573503310        0.3330774115        0.0870196883
H             0.1707706123        0.8591699348        0.6135055648
H             0.4364001900        0.1613517680        0.0694198696
H             0.4668370464        0.8530565223        0.7989575699
H             0.2191344825        0.1696222440        0.2881054927
H             0.0167853123        0.6846854425        0.7514922812
H             0.2833710982        0.3341138004        0.2747455719
H             0.9985338258        0.0146092373        0.9354287028
H             0.5337102837        1.0011048725        0.6604705431
H             0.7554972668        0.4979915953        0.4541898820
H             0.5193008353        0.5274363193        0.9803402515
H             0.8139990549        0.6536851177        0.5896837537
H             0.5820786747        0.3745759003        0.1161761853
H             0.6783257981        0.8406366839        0.5997714314
H             0.9315419122        0.1555027085        0.0822885410
H             0.9623487643        0.8566794248        0.8118071982
H             0.7230160368        0.1712710157        0.2777652507
H             0.5422088379        0.6396776402        0.8113477868
H             0.7885425566        0.3589070402        0.3119872174
H             0.9524248685        0.5406508936        0.6027808643
H             0.7159254304        0.5063070321        0.1728560895
H             0.0464193274       -0.0161697463        0.3230689712
H             0.4414173668        0.8769984034        0.2301337060
H             0.4522107452        0.5444395770        0.3260113009
H             0.0371916198        0.5889667409        0.2325729152
H             0.5566584077       -0.0197968752        0.3092289738
H             0.9433614726        0.8769004051        0.2260921534
H             0.3143192213        0.3656011634        0.7745584431
H             0.1648935292        0.4671008869        0.7897787067
N             0.3168321518        0.8500956946        0.7099908955
N             0.0711264887        0.1643566998        0.1947073211
N             0.1752195093        0.6701838050        0.6968596001
N             0.4343145488        0.3469952476        0.1974630598
N             0.8187169267        0.8422480034        0.7091466750
N             0.5759122214        0.1686644330        0.1818253234
N             0.6797646705        0.6516514284        0.7040291034
N             0.9256239894        0.3400086797        0.2046869242
Ni            0.2476763168        0.7534613470        0.8367059961
Ni            0.5030860263        0.2467939496        0.3313339359
Ni            0.7476279108        0.7478177449        0.8363784087
Ni            0.9975433136        0.2474721295        0.3403445151
O             0.1293592401        0.3521409004        0.3869093758
O             0.3748785584        0.6544288640        0.8833168657
O             0.3708568269        0.1514349477        0.3793646620
O             0.1278472529        0.8641901827        0.8750123630
O             0.4746613385        0.3523913841        0.4841902671
O             0.2214163459        0.6448450401        0.9796654014
O             0.0154903882        0.1478789784        0.4995583475
O             0.2837729223        0.8721191558        0.9734030206
O             0.6278064054        0.3469312717        0.3867487744
O             0.8698873831        0.6408134658        0.8809767030
O             0.8660662572        0.1482332219        0.3868076982
O             0.6273608567        0.8587293974        0.8729657666
O             0.9720503920        0.3793167473        0.4684691607
O             0.7165903917        0.6352315475        0.9802682719
O             0.5237271879        0.1371052543        0.4830662298
O             0.7821840198        0.8655245931        0.9731233944
End final coordinates



     Writing output data file /nfs/hpc/share/gantzlen/NiPyC2_relax_sc211_meta_functionalized_C-C_vdw-df2_relax.save/
 
     init_run     :    106.88s CPU    111.01s WALL (       1 calls)
     electrons    : 164769.51s CPU 183694.74s WALL (      72 calls)
     update_pot   :   1503.66s CPU   1635.10s WALL (      71 calls)
     forces       :   3233.97s CPU   3411.91s WALL (      72 calls)

     Called by init_run:
     wfcinit      :     77.83s CPU     80.48s WALL (       1 calls)
     potinit      :     21.87s CPU     23.24s WALL (       1 calls)
     hinit0       :      5.54s CPU      5.61s WALL (       1 calls)

     Called by electrons:
     c_bands      : 146102.34s CPU 162721.08s WALL (     972 calls)
     sum_band     :   7217.37s CPU   8035.67s WALL (     972 calls)
     v_of_rho     :  10123.01s CPU  11268.90s WALL (    1028 calls)
     mix_rho      :   1924.74s CPU   2219.51s WALL (     972 calls)
     vdW_kernel   :      6.97s CPU      7.06s WALL (       1 calls)

     Called by c_bands:
     init_us_2    :    108.74s CPU    113.80s WALL (    1945 calls)
     regterg      : 144170.13s CPU 151908.11s WALL (     972 calls)

     Called by sum_band:

     Called by *egterg:
     h_psi        :  55732.99s CPU  59871.28s WALL (    4488 calls)
     g_psi        :     35.54s CPU     36.62s WALL (    3515 calls)
     rdiaghg      :   4289.95s CPU   4339.74s WALL (    4400 calls)

     Called by h_psi:
     h_psi:calbec :  14839.76s CPU  15605.65s WALL (    4488 calls)
     vloc_psi     :  26161.06s CPU  29482.01s WALL (    4488 calls)
     add_vuspsi   :  14621.20s CPU  14667.41s WALL (    4488 calls)

     General routines
     calbec       :  16720.46s CPU  17547.48s WALL (    4776 calls)
     fft          :   7253.47s CPU   8361.28s WALL (   86643 calls)
     ffts         :   1393.08s CPU   1592.03s WALL (   16972 calls)
     fftw         :  28795.09s CPU  32649.66s WALL (  791788 calls)
 
     Parallel routines
     fft_scatt_xy :   5335.24s CPU   5573.08s WALL (  895403 calls)
     fft_scatt_yz :   8789.64s CPU  12760.50s WALL (  895403 calls)
 
     PWSCF        :   1d23h 7m CPU   2d 4h28m WALL

 
   This run was terminated on:  16:13:39  31Jul2020            

=------------------------------------------------------------------------------=
   JOB DONE.
=------------------------------------------------------------------------------=
QE finished Fri Jul 31 16:13:39 PDT 2020
