/apps/openmpi/3.1_intel-19/bin/mpiexec
/apps/qe/6.5/bin/pw.x
starting QE Sat Aug 1 17:33:27 PDT 2020

     Program PWSCF v.6.5 starts on  1Aug2020 at 17:33:28 

     This program is part of the open-source Quantum ESPRESSO suite
     for quantum simulation of materials; please cite
         "P. Giannozzi et al., J. Phys.:Condens. Matter 21 395502 (2009);
         "P. Giannozzi et al., J. Phys.:Condens. Matter 29 465901 (2017);
          URL http://www.quantum-espresso.org", 
     in publications or presentations arising from this work. More details at
     http://www.quantum-espresso.org/quote

     Parallel version (MPI & OpenMP), running on      16 processor cores
     Number of MPI processes:                16
     Threads/MPI process:                     1

     MPI processes distributed on     1 nodes
     K-points division:     npool     =       2
     R & G space division:  proc/nbgrp/npool/nimage =       8
     Reading input from ./QE_input_scripts/pw.NiPyC2_relax_sc211_ortho_functionalized_C-C_vdw-df2_relax.in
Warning: card &CELL ignored
Warning: card    CELL_DYNAMICS = 'BFGS' ignored
Warning: card    CELL_DOFREE = 'XYZ' ignored
Warning: card / ignored

     Current dimensions of program PWSCF are:
     Max number of different atomic species (ntypx) = 10
     Max number of k-points (npk) =  40000
     Max angular momentum in pseudopotentials (lmaxx) =  3

     IMPORTANT: XC functional enforced from input :
     Exchange-correlation= VDW-DF2
                           (   1   4  13   0   2   0   0)
     Any further DFT definition will be discarded
     Please, verify this is what you really want


     -------------------------------------------------
     Parameters for Dispersion (Grimme-D2) Correction:
     -------------------------------------------------
       atom      VdW radius       C_6     

        C          2.744         60.710
        H          1.892          4.857
        N          2.640         42.670
        Ni         2.952        374.666
        O          2.536         24.284

     gamma-point specific algorithms are used

     Subspace diagonalization in iterative solution of the eigenvalue problem:
     a serial algorithm will be used

 
     Parallelization info
     --------------------
     sticks:   dense  smooth     PW     G-vecs:    dense   smooth      PW
     Min        2228    2228    556               183376   183376   22914
     Max        2230    2230    558               183380   183380   22917
     Sum       17829   17829   4453              1467017  1467017  183325
 


     bravais-lattice index     =            0
     lattice parameter (alat)  =      23.6322  a.u.
     unit-cell volume          =   10858.6228 (a.u.)^3
     number of atoms/cell      =          124
     number of atomic types    =            5
     number of electrons       =       464.00 (up: 236.00, down: 228.00)
     number of Kohn-Sham states=          283
     kinetic-energy cutoff     =     100.0000  Ry
     charge density cutoff     =     400.0000  Ry
     convergence threshold     =      1.0E-06
     mixing beta               =       0.7000
     number of iterations used =            8  local-TF  mixing
     Exchange-correlation= VDW-DF2
                           (   1   4  13   0   2   0   0)
     nstep                     =          200


     celldm(1)=  23.632159  celldm(2)=   0.000000  celldm(3)=   0.000000
     celldm(4)=   0.000000  celldm(5)=   0.000000  celldm(6)=   0.000000

     crystal axes: (cart. coord. in units of alat)
               a(1) = (   1.000000   0.000000   0.000000 )  
               a(2) = (   0.000000   1.001423   0.000000 )  
               a(3) = (  -0.018199   0.000000   0.821574 )  

     reciprocal axes: (cart. coord. in units 2 pi/alat)
               b(1) = (  1.000000  0.000000  0.022152 )  
               b(2) = (  0.000000  0.998579  0.000000 )  
               b(3) = (  0.000000  0.000000  1.217175 )  


     PseudoPot. # 1 for C  read from file:
     ./pseudo/C.pbesol-nc.UPF
     MD5 check sum: ce26087537ded160c8d400e183a8bf42
     Pseudo is Norm-conserving, Zval =  4.0
     Generated using "atomic" code by A. Dal Corso v.6.5
     Using radial grid of 1073 points,  1 beta functions with: 
                l(1) =   1

     PseudoPot. # 2 for H  read from file:
     ./pseudo/H.pbesol-n-nc.UPF
     MD5 check sum: 7995ef24074557c85b430109caaacc09
     Pseudo is Norm-conserving, Zval =  1.0
     Generated using "atomic" code by A. Dal Corso v.6.5
     Using radial grid of  929 points,  0 beta functions with: 

     PseudoPot. # 3 for N  read from file:
     ./pseudo/N.pbesol-nc.UPF
     MD5 check sum: e18cc5e4b8a5600c1a19b30c2cab1ca0
     Pseudo is Norm-conserving, Zval =  5.0
     Generated using "atomic" code by A. Dal Corso v.6.5
     Using radial grid of 1085 points,  1 beta functions with: 
                l(1) =   1

     PseudoPot. # 4 for Ni read from file:
     ./pseudo/Ni.pbesol-n-nc.UPF
     MD5 check sum: 623411631e0c2eb7c0b2b9815547d2d9
     Pseudo is Norm-conserving + core correction, Zval = 10.0
     Generated using "atomic" code by A. Dal Corso v.6.5
     Using radial grid of 1195 points,  2 beta functions with: 
                l(1) =   1
                l(2) =   2

     PseudoPot. # 5 for O  read from file:
     ./pseudo/O.pbesol-nc.UPF
     MD5 check sum: 73d10e7e91dbfcbe8a7e362101007f84
     Pseudo is Norm-conserving, Zval =  6.0
     Generated using "atomic" code by A. Dal Corso v.6.5
     Using radial grid of 1095 points,  1 beta functions with: 
                l(1) =   1

     atomic species   valence    mass     pseudopotential
        C              4.00    12.01070     C ( 1.00)
        H              1.00     1.00794     H ( 1.00)
        N              5.00    14.00670     N ( 1.00)
        Ni            10.00    58.69340     Ni( 1.00)
        O              6.00    15.99940     O ( 1.00)

     Starting magnetic structure 
     atomic species   magnetization
        C            0.000
        H            0.000
        N            0.000
        Ni           0.250
        O            0.000

     No symmetry found



   Cartesian axes

     site n.     atom                  positions (alat units)
         1           C   tau(   1) = (   0.2787122   0.9714307   0.4288486  )
         2           C   tau(   2) = (   0.0379730   0.0311503   0.0183277  )
         3           C   tau(   3) = (   0.3806882   0.0117868   0.4489838  )
         4           C   tau(   4) = (   0.1394042   0.9891499   0.0379124  )
         5           C   tau(   5) = (   0.4400787   0.9715829   0.5343281  )
         6           C   tau(   6) = (   0.1997920   0.0283934   0.1231482  )
         7           C   tau(   7) = (   0.1986011   0.5304580   0.4324635  )
         8           C   tau(   8) = (   0.4580372   0.4720800   0.0229252  )
         9           C   tau(   9) = (   0.2341003   0.6142040   0.4982314  )
        10           C   tau(  10) = (   0.4948422   0.3892302   0.0892369  )
        11           C   tau(  11) = (   0.2384981   0.8904717   0.4955761  )
        12           C   tau(  12) = (  -0.0008282   0.1123917   0.0856467  )
        13           C   tau(  13) = (   0.3947360   0.8906489   0.5977380  )
        14           C   tau(  14) = (   0.1557890   0.1097029   0.1871645  )
        15           C   tau(  15) = (   0.0756247   0.6098498   0.5975737  )
        16           C   tau(  16) = (   0.3367152   0.3921904   0.1884642  )
        17           C   tau(  17) = (   0.0350715   0.5258264   0.5351012  )
        18           C   tau(  18) = (   0.2948780   0.4753867   0.1254988  )
        19           C   tau(  19) = (   0.0981522   0.4849593   0.4519611  )
        20           C   tau(  20) = (   0.3569104   0.5163900   0.0416029  )
        21           C   tau(  21) = (   0.4248178   0.0994604   0.3833638  )
        22           C   tau(  22) = (   0.1639424   0.9010006   0.7933713  )
        23           C   tau(  23) = (   0.0588120   0.3950355   0.3866953  )
        24           C   tau(  24) = (   0.2984059   0.6050320   0.7961934  )
        25           C   tau(  25) = (   0.7787122   0.9714307   0.4288486  )
        26           C   tau(  26) = (   0.5379730   0.0311503   0.0183277  )
        27           C   tau(  27) = (   0.8806882   0.0117868   0.4489838  )
        28           C   tau(  28) = (   0.6394042   0.9891499   0.0379124  )
        29           C   tau(  29) = (   0.9400787   0.9715829   0.5343281  )
        30           C   tau(  30) = (   0.6997920   0.0283934   0.1231482  )
        31           C   tau(  31) = (   0.6986021   0.5304580   0.4324635  )
        32           C   tau(  32) = (   0.9580382   0.4720800   0.0229252  )
        33           C   tau(  33) = (   0.7341003   0.6142040   0.4982314  )
        34           C   tau(  34) = (   0.9948422   0.3892302   0.0892369  )
        35           C   tau(  35) = (   0.7384981   0.8904717   0.4955761  )
        36           C   tau(  36) = (   0.4991718   0.1123917   0.0856467  )
        37           C   tau(  37) = (   0.8947360   0.8906489   0.5977380  )
        38           C   tau(  38) = (   0.6557880   0.1097029   0.1871645  )
        39           C   tau(  39) = (   0.5756247   0.6098498   0.5975737  )
        40           C   tau(  40) = (   0.8367152   0.3921904   0.1884642  )
        41           C   tau(  41) = (   0.5350715   0.5258264   0.5351012  )
        42           C   tau(  42) = (   0.7948780   0.4753867   0.1254988  )
        43           C   tau(  43) = (   0.5981522   0.4849593   0.4519611  )
        44           C   tau(  44) = (   0.8569104   0.5163900   0.0416029  )
        45           C   tau(  45) = (   0.9248178   0.0994604   0.3833638  )
        46           C   tau(  46) = (   0.6639424   0.9010006   0.7933713  )
        47           C   tau(  47) = (   0.5588110   0.3950355   0.3866953  )
        48           C   tau(  48) = (   0.7984059   0.6050320   0.7961934  )
        49           C   tau(  49) = (   0.1372737   0.8474956   0.4766790  )
        50           C   tau(  50) = (   0.0517450   0.8103918   0.4616335  )
        51           C   tau(  51) = (   0.8988416   0.1574788   0.0667849  )
        52           C   tau(  52) = (   0.8140979   0.1963601   0.0517855  )
        53           C   tau(  53) = (   0.3334486   0.6615313   0.4801132  )
        54           C   tau(  54) = (   0.4173907   0.7023162   0.4656658  )
        55           C   tau(  55) = (   0.5951253   0.3436494   0.0714934  )
        56           C   tau(  56) = (   0.6798275   0.3043396   0.0573993  )
        57           C   tau(  57) = (   0.6375248   0.8470700   0.4763142  )
        58           C   tau(  58) = (   0.5522069   0.8096077   0.4609607  )
        59           C   tau(  59) = (   0.3988416   0.1574788   0.0667849  )
        60           C   tau(  60) = (   0.3140979   0.1963601   0.0517855  )
        61           C   tau(  61) = (   0.5140399   0.6528830   0.6801731  )
        62           C   tau(  62) = (   0.4628627   0.6900658   0.7502912  )
        63           C   tau(  63) = (   0.0951253   0.3436484   0.0714934  )
        64           C   tau(  64) = (   0.1798265   0.3043386   0.0574001  )
        65           H   tau(  65) = (   0.2290596   1.0009978   0.3640502  )
        66           H   tau(  66) = (   0.4693669   0.0026958   0.7751545  )
        67           H   tau(  67) = (   0.0198054   1.0002267   0.5533467  )
        68           H   tau(  68) = (   0.2791988   1.0000865   0.1418054  )
        69           H   tau(  69) = (   0.2505234   0.5016080   0.3691185  )
        70           H   tau(  70) = (  -0.0086584   0.5011092   0.7809458  )
        71           H   tau(  71) = (   0.4386511   0.8563902   0.6644572  )
        72           H   tau(  72) = (   0.2006191   0.1433067   0.2536997  )
        73           H   tau(  73) = (   0.0290492   0.6438591   0.6626884  )
        74           H   tau(  74) = (   0.2907535   0.3580349   0.2539083  )
        75           H   tau(  75) = (   0.4564147   0.4939330   0.5533319  )
        76           H   tau(  76) = (   0.2157623   0.5059201   0.1439924  )
        77           H   tau(  77) = (   0.7290596   1.0009978   0.3640502  )
        78           H   tau(  78) = (   0.9693669   0.0026958   0.7751545  )
        79           H   tau(  79) = (   0.5198044   1.0002267   0.5533467  )
        80           H   tau(  80) = (   0.7791988   1.0000865   0.1418054  )
        81           H   tau(  81) = (   0.7505234   0.5016080   0.3691185  )
        82           H   tau(  82) = (   0.4913416   0.5011092   0.7809458  )
        83           H   tau(  83) = (   0.8118554   0.6514319   0.4868937  )
        84           H   tau(  84) = (   0.9386511   0.8563902   0.6644572  )
        85           H   tau(  85) = (   0.7006201   0.1433067   0.2536997  )
        86           H   tau(  86) = (   0.7907535   0.3580349   0.2539083  )
        87           H   tau(  87) = (   0.9564147   0.4939330   0.5533319  )
        88           H   tau(  88) = (   0.7157623   0.5059201   0.1439924  )
        89           H   tau(  89) = (   0.9767997   0.7791865   0.4469306  )
        90           H   tau(  90) = (   0.7398199   0.2291347   0.0371122  )
        91           H   tau(  91) = (   0.4910282   0.7367221   0.4515093  )
        92           H   tau(  92) = (   0.7541093   0.2712195   0.0435475  )
        93           H   tau(  93) = (   0.4774486   0.7780849   0.4459850  )
        94           H   tau(  94) = (   0.2398199   0.2291347   0.0371122  )
        95           H   tau(  95) = (   0.4166901   0.7212772   0.8111238  )
        96           H   tau(  96) = (   0.2541093   0.2712175   0.0435484  )
        97           N   tau(  97) = (   0.2956096   0.8524646   0.5790685  )
        98           N   tau(  98) = (   0.0569790   0.1490689   0.1692870  )
        99           N   tau(  99) = (   0.1736962   0.6512356   0.5798983  )
       100           N   tau( 100) = (   0.4350238   0.3514275   0.1709211  )
       101           N   tau( 101) = (   0.7956096   0.8524646   0.5790685  )
       102           N   tau( 102) = (   0.5569790   0.1490689   0.1692870  )
       103           N   tau( 103) = (   0.6736972   0.6512356   0.5798983  )
       104           N   tau( 104) = (   0.9350238   0.3514275   0.1709211  )
       105           Ni  tau( 105) = (   0.2317814   0.7525556   0.6871039  )
       106           Ni  tau( 106) = (   0.4937992   0.2483520   0.2786599  )
       107           Ni  tau( 107) = (   0.7317814   0.7525556   0.6871039  )
       108           Ni  tau( 108) = (   0.9937992   0.2483520   0.2786599  )
       109           O   tau( 109) = (   0.1158100   0.3481839   0.3145586  )
       110           O   tau( 110) = (   0.3551690   0.6519036   0.7240468  )
       111           O   tau( 111) = (   0.3707656   0.1477170   0.3098797  )
       112           O   tau( 112) = (   0.1091506   0.8535652   0.7199135  )
       113           O   tau( 113) = (   0.4642788   0.3566669   0.3968154  )
       114           O   tau( 114) = (   0.2033039   0.6423280   0.8050417  )
       115           O   tau( 115) = (   0.0200847   0.1353504   0.3952413  )
       116           O   tau( 116) = (   0.2588616   0.8639860   0.8046490  )
       117           O   tau( 117) = (   0.6158110   0.3481839   0.3145586  )
       118           O   tau( 118) = (   0.8551690   0.6519036   0.7240468  )
       119           O   tau( 119) = (   0.8707656   0.1477170   0.3098797  )
       120           O   tau( 120) = (   0.6091506   0.8535652   0.7199135  )
       121           O   tau( 121) = (   0.9642788   0.3566669   0.3968154  )
       122           O   tau( 122) = (   0.7033039   0.6423280   0.8050417  )
       123           O   tau( 123) = (   0.5200847   0.1353504   0.3952413  )
       124           O   tau( 124) = (   0.7588616   0.8639860   0.8046490  )

     number of k points=     1  Marzari-Vanderbilt smearing, width (Ry)=  0.2000
                       cart. coord. in units 2pi/alat
        k(    1) = (   0.0000000   0.0000000   0.0000000), wk =   1.0000000

     Dense  grid:   733509 G-vectors     FFT dimensions: ( 160, 160, 125)

     Estimated max dynamical RAM per process >     652.47 MB

     Estimated total dynamical RAM >      10.19 GB
     Generating pointlists ...
     new r_m :   0.0340 (alat units)  0.8043 (a.u.) for type    1
     new r_m :   0.0181 (alat units)  0.4278 (a.u.) for type    2
     new r_m :   0.0445 (alat units)  1.0514 (a.u.) for type    3
     new r_m :   0.0654 (alat units)  1.5454 (a.u.) for type    4
     new r_m :   0.0423 (alat units)  0.9991 (a.u.) for type    5

     Check: negative core charge=   -0.000145

     Initial potential from superposition of free atoms

     starting charge  463.99604, renormalised to  464.00000


     %%%%%%%%%%%%%%%%%%%%%%%%%%%%%%%%%%%%%%%%%%%%%%%%%%%%%%%%%%%%%%%%%%%%%%%%
     %                                                                      %
     % You are using vdW-DF, which was implemented by the Thonhauser group. %
     % Please cite the following two papers that made this development      %
     % possible and the two reviews that describe the various versions:     %
     %                                                                      %
     %   T. Thonhauser et al., PRL 115, 136402 (2015).                      %
     %   T. Thonhauser et al., PRB 76, 125112 (2007).                       %
     %   K. Berland et al., Rep. Prog. Phys. 78, 066501 (2015).             %
     %   D.C. Langreth et al., J. Phys.: Condens. Matter 21, 084203 (2009). %
     %                                                                      %
     %                                                                      %
     % If you are calculating the stress with vdW-DF, please also cite:     %
     %                                                                      %
     %   R. Sabatini et al., J. Phys.: Condens. Matter 24, 424209 (2012).   %
     %                                                                      %
     %%%%%%%%%%%%%%%%%%%%%%%%%%%%%%%%%%%%%%%%%%%%%%%%%%%%%%%%%%%%%%%%%%%%%%%%


     Starting wfcs are  420 randomized atomic wfcs

     total cpu time spent up to now is       59.3 secs

     Self-consistent Calculation

     iteration #  1     ecut=   100.00 Ry     beta= 0.70
     Davidson diagonalization with overlap
     ethr =  1.00E-02,  avg # of iterations =  5.0

     total cpu time spent up to now is      162.4 secs

     total energy              =   -1818.45965501 Ry
     Harris-Foulkes estimate   =   -1831.44764891 Ry
     estimated scf accuracy    <      33.48268836 Ry

     total magnetization       =     8.00 Bohr mag/cell
     absolute magnetization    =     9.21 Bohr mag/cell

     iteration #  2     ecut=   100.00 Ry     beta= 0.70
     Davidson diagonalization with overlap
     ethr =  7.22E-03,  avg # of iterations =  2.0

     total cpu time spent up to now is      229.3 secs

     total energy              =   -1824.35885468 Ry
     Harris-Foulkes estimate   =   -1829.62700393 Ry
     estimated scf accuracy    <      22.93279512 Ry

     total magnetization       =     8.00 Bohr mag/cell
     absolute magnetization    =     8.25 Bohr mag/cell

     iteration #  3     ecut=   100.00 Ry     beta= 0.70
     Davidson diagonalization with overlap
     ethr =  4.94E-03,  avg # of iterations =  1.5

     total cpu time spent up to now is      291.3 secs

     total energy              =   -1823.50197810 Ry
     Harris-Foulkes estimate   =   -1825.26798470 Ry
     estimated scf accuracy    <       7.46149999 Ry

     total magnetization       =     8.00 Bohr mag/cell
     absolute magnetization    =     8.24 Bohr mag/cell

     iteration #  4     ecut=   100.00 Ry     beta= 0.70
     Davidson diagonalization with overlap
     ethr =  1.61E-03,  avg # of iterations =  6.5

     total cpu time spent up to now is      362.1 secs

     total energy              =   -1823.69463608 Ry
     Harris-Foulkes estimate   =   -1825.05377501 Ry
     estimated scf accuracy    <      11.19492901 Ry

     total magnetization       =     8.00 Bohr mag/cell
     absolute magnetization    =     8.23 Bohr mag/cell

     iteration #  5     ecut=   100.00 Ry     beta= 0.70
     Davidson diagonalization with overlap
     ethr =  1.61E-03,  avg # of iterations =  3.5

     total cpu time spent up to now is      425.7 secs

     total energy              =   -1824.20014722 Ry
     Harris-Foulkes estimate   =   -1824.27650952 Ry
     estimated scf accuracy    <       0.32691067 Ry

     total magnetization       =     8.00 Bohr mag/cell
     absolute magnetization    =     8.28 Bohr mag/cell

     iteration #  6     ecut=   100.00 Ry     beta= 0.70
     Davidson diagonalization with overlap
     ethr =  7.05E-05,  avg # of iterations = 10.0

     total cpu time spent up to now is      513.0 secs

     total energy              =   -1824.20923849 Ry
     Harris-Foulkes estimate   =   -1824.28504208 Ry
     estimated scf accuracy    <       1.35054261 Ry

     total magnetization       =     8.00 Bohr mag/cell
     absolute magnetization    =     8.28 Bohr mag/cell

     iteration #  7     ecut=   100.00 Ry     beta= 0.70
     Davidson diagonalization with overlap
     ethr =  7.05E-05,  avg # of iterations =  1.0

     total cpu time spent up to now is      574.9 secs

     total energy              =   -1824.14773794 Ry
     Harris-Foulkes estimate   =   -1824.24277894 Ry
     estimated scf accuracy    <       0.67619468 Ry

     total magnetization       =     8.00 Bohr mag/cell
     absolute magnetization    =     8.28 Bohr mag/cell

     iteration #  8     ecut=   100.00 Ry     beta= 0.70
     Davidson diagonalization with overlap
     ethr =  7.05E-05,  avg # of iterations =  1.5

     total cpu time spent up to now is      637.1 secs

     total energy              =   -1824.18162452 Ry
     Harris-Foulkes estimate   =   -1824.19796456 Ry
     estimated scf accuracy    <       0.17190823 Ry

     total magnetization       =     8.00 Bohr mag/cell
     absolute magnetization    =     8.28 Bohr mag/cell

     iteration #  9     ecut=   100.00 Ry     beta= 0.70
     Davidson diagonalization with overlap
     ethr =  3.70E-05,  avg # of iterations =  2.5

     total cpu time spent up to now is      700.4 secs

     total energy              =   -1824.16482493 Ry
     Harris-Foulkes estimate   =   -1824.19385001 Ry
     estimated scf accuracy    <       0.21660949 Ry

     total magnetization       =     8.00 Bohr mag/cell
     absolute magnetization    =     8.28 Bohr mag/cell

     iteration # 10     ecut=   100.00 Ry     beta= 0.70
     Davidson diagonalization with overlap
     ethr =  3.70E-05,  avg # of iterations =  7.5

     total cpu time spent up to now is      769.4 secs

     total energy              =   -1824.16898259 Ry
     Harris-Foulkes estimate   =   -1824.17383935 Ry
     estimated scf accuracy    <       0.01311522 Ry

     total magnetization       =     8.00 Bohr mag/cell
     absolute magnetization    =     8.27 Bohr mag/cell

     iteration # 11     ecut=   100.00 Ry     beta= 0.70
     Davidson diagonalization with overlap
     ethr =  2.83E-06,  avg # of iterations = 10.5

     total cpu time spent up to now is      854.0 secs

     total energy              =   -1824.16843373 Ry
     Harris-Foulkes estimate   =   -1824.17003233 Ry
     estimated scf accuracy    <       0.00608920 Ry

     total magnetization       =     8.00 Bohr mag/cell
     absolute magnetization    =     8.25 Bohr mag/cell

     iteration # 12     ecut=   100.00 Ry     beta= 0.70
     Davidson diagonalization with overlap
     ethr =  1.31E-06,  avg # of iterations =  3.0

     total cpu time spent up to now is      919.2 secs

     total energy              =   -1824.16812094 Ry
     Harris-Foulkes estimate   =   -1824.16951121 Ry
     estimated scf accuracy    <       0.01690767 Ry

     total magnetization       =     8.00 Bohr mag/cell
     absolute magnetization    =     8.24 Bohr mag/cell

     iteration # 13     ecut=   100.00 Ry     beta= 0.70
     Davidson diagonalization with overlap
     ethr =  1.31E-06,  avg # of iterations =  2.0

     total cpu time spent up to now is      982.1 secs

     total energy              =   -1824.16876415 Ry
     Harris-Foulkes estimate   =   -1824.16904176 Ry
     estimated scf accuracy    <       0.00387822 Ry

     total magnetization       =     8.00 Bohr mag/cell
     absolute magnetization    =     8.24 Bohr mag/cell

     iteration # 14     ecut=   100.00 Ry     beta= 0.70
     Davidson diagonalization with overlap
     ethr =  8.36E-07,  avg # of iterations =  3.0

     total cpu time spent up to now is     1046.6 secs

     total energy              =   -1824.16897561 Ry
     Harris-Foulkes estimate   =   -1824.16895558 Ry
     estimated scf accuracy    <       0.00054906 Ry

     total magnetization       =     8.00 Bohr mag/cell
     absolute magnetization    =     8.24 Bohr mag/cell

     iteration # 15     ecut=   100.00 Ry     beta= 0.70
     Davidson diagonalization with overlap
     ethr =  1.18E-07,  avg # of iterations =  4.0

     total cpu time spent up to now is     1114.4 secs

     total energy              =   -1824.16899175 Ry
     Harris-Foulkes estimate   =   -1824.16901999 Ry
     estimated scf accuracy    <       0.00036087 Ry

     total magnetization       =     8.00 Bohr mag/cell
     absolute magnetization    =     8.24 Bohr mag/cell

     iteration # 16     ecut=   100.00 Ry     beta= 0.70
     Davidson diagonalization with overlap
     ethr =  7.78E-08,  avg # of iterations =  4.5

     total cpu time spent up to now is     1182.9 secs

     total energy              =   -1824.16901935 Ry
     Harris-Foulkes estimate   =   -1824.16901976 Ry
     estimated scf accuracy    <       0.00009463 Ry

     total magnetization       =     8.00 Bohr mag/cell
     absolute magnetization    =     8.23 Bohr mag/cell

     iteration # 17     ecut=   100.00 Ry     beta= 0.70
     Davidson diagonalization with overlap
     ethr =  2.04E-08,  avg # of iterations =  4.0

     total cpu time spent up to now is     1252.3 secs

     total energy              =   -1824.16901736 Ry
     Harris-Foulkes estimate   =   -1824.16902916 Ry
     estimated scf accuracy    <       0.00004754 Ry

     total magnetization       =     8.00 Bohr mag/cell
     absolute magnetization    =     8.23 Bohr mag/cell

     iteration # 18     ecut=   100.00 Ry     beta= 0.70
     Davidson diagonalization with overlap
     ethr =  1.02E-08,  avg # of iterations =  4.5

     total cpu time spent up to now is     1323.9 secs

     total energy              =   -1824.16902417 Ry
     Harris-Foulkes estimate   =   -1824.16902219 Ry
     estimated scf accuracy    <       0.00002523 Ry

     total magnetization       =     8.00 Bohr mag/cell
     absolute magnetization    =     8.23 Bohr mag/cell

     iteration # 19     ecut=   100.00 Ry     beta= 0.70
     Davidson diagonalization with overlap
     ethr =  5.44E-09,  avg # of iterations =  3.5

     total cpu time spent up to now is     1393.4 secs

     total energy              =   -1824.16902721 Ry
     Harris-Foulkes estimate   =   -1824.16902768 Ry
     estimated scf accuracy    <       0.00004130 Ry

     total magnetization       =     8.00 Bohr mag/cell
     absolute magnetization    =     8.24 Bohr mag/cell

     iteration # 20     ecut=   100.00 Ry     beta= 0.70
     Davidson diagonalization with overlap
     ethr =  5.44E-09,  avg # of iterations =  4.0

     total cpu time spent up to now is     1464.0 secs

     total energy              =   -1824.16903138 Ry
     Harris-Foulkes estimate   =   -1824.16903007 Ry
     estimated scf accuracy    <       0.00000620 Ry

     total magnetization       =     8.00 Bohr mag/cell
     absolute magnetization    =     8.24 Bohr mag/cell

     iteration # 21     ecut=   100.00 Ry     beta= 0.70
     Davidson diagonalization with overlap
     ethr =  1.34E-09,  avg # of iterations =  4.5

     total cpu time spent up to now is     1546.7 secs

     total energy              =   -1824.16903202 Ry
     Harris-Foulkes estimate   =   -1824.16903235 Ry
     estimated scf accuracy    <       0.00000313 Ry

     total magnetization       =     8.00 Bohr mag/cell
     absolute magnetization    =     8.24 Bohr mag/cell

     iteration # 22     ecut=   100.00 Ry     beta= 0.70
     Davidson diagonalization with overlap
     ethr =  6.75E-10,  avg # of iterations =  4.0

     total cpu time spent up to now is     1632.1 secs

     total energy              =   -1824.16903483 Ry
     Harris-Foulkes estimate   =   -1824.16903271 Ry
     estimated scf accuracy    <       0.00000372 Ry

     total magnetization       =     8.00 Bohr mag/cell
     absolute magnetization    =     8.24 Bohr mag/cell

     iteration # 23     ecut=   100.00 Ry     beta= 0.70
     Davidson diagonalization with overlap
     ethr =  6.75E-10,  avg # of iterations =  5.0

     total cpu time spent up to now is     1716.7 secs

     total energy              =   -1824.16903393 Ry
     Harris-Foulkes estimate   =   -1824.16903599 Ry
     estimated scf accuracy    <       0.00001262 Ry

     total magnetization       =     8.00 Bohr mag/cell
     absolute magnetization    =     8.24 Bohr mag/cell

     iteration # 24     ecut=   100.00 Ry     beta= 0.70
     Davidson diagonalization with overlap
     ethr =  6.75E-10,  avg # of iterations =  4.0

     total cpu time spent up to now is     1797.4 secs

     total energy              =   -1824.16903525 Ry
     Harris-Foulkes estimate   =   -1824.16903478 Ry
     estimated scf accuracy    <       0.00000117 Ry

     total magnetization       =     8.00 Bohr mag/cell
     absolute magnetization    =     8.24 Bohr mag/cell

     iteration # 25     ecut=   100.00 Ry     beta= 0.70
     Davidson diagonalization with overlap
     ethr =  2.52E-10,  avg # of iterations =  4.5
 
     Magnetic moment per site:
     atom:    1    charge:    0.7458    magn:    0.0058    constr:    0.0000
     atom:    2    charge:    0.7450    magn:    0.0059    constr:    0.0000
     atom:    3    charge:    0.7492    magn:    0.0035    constr:    0.0000
     atom:    4    charge:    0.7484    magn:    0.0033    constr:    0.0000
     atom:    5    charge:    0.7456    magn:    0.0050    constr:    0.0000
     atom:    6    charge:    0.7431    magn:    0.0053    constr:    0.0000
     atom:    7    charge:    0.7456    magn:    0.0060    constr:    0.0000
     atom:    8    charge:    0.7467    magn:    0.0063    constr:    0.0000
     atom:    9    charge:    0.7462    magn:    0.0027    constr:    0.0000
     atom:   10    charge:    0.7463    magn:    0.0026    constr:    0.0000
     atom:   11    charge:    0.7462    magn:    0.0026    constr:    0.0000
     atom:   12    charge:    0.7458    magn:    0.0027    constr:    0.0000
     atom:   13    charge:    0.7406    magn:    0.0042    constr:    0.0000
     atom:   14    charge:    0.7386    magn:    0.0040    constr:    0.0000
     atom:   15    charge:    0.7390    magn:    0.0037    constr:    0.0000
     atom:   16    charge:    0.7384    magn:    0.0035    constr:    0.0000
     atom:   17    charge:    0.7462    magn:    0.0052    constr:    0.0000
     atom:   18    charge:    0.7446    magn:    0.0059    constr:    0.0000
     atom:   19    charge:    0.7476    magn:    0.0030    constr:    0.0000
     atom:   20    charge:    0.7479    magn:    0.0015    constr:    0.0000
     atom:   21    charge:    0.7230    magn:   -0.0019    constr:    0.0000
     atom:   22    charge:    0.7217    magn:   -0.0015    constr:    0.0000
     atom:   23    charge:    0.7232    magn:   -0.0017    constr:    0.0000
     atom:   24    charge:    0.7266    magn:    0.0023    constr:    0.0000
     atom:   25    charge:    0.7458    magn:    0.0058    constr:    0.0000
     atom:   26    charge:    0.7452    magn:    0.0059    constr:    0.0000
     atom:   27    charge:    0.7492    magn:    0.0033    constr:    0.0000
     atom:   28    charge:    0.7484    magn:    0.0033    constr:    0.0000
     atom:   29    charge:    0.7465    magn:    0.0052    constr:    0.0000
     atom:   30    charge:    0.7431    magn:    0.0053    constr:    0.0000
     atom:   31    charge:    0.7450    magn:    0.0049    constr:    0.0000
     atom:   32    charge:    0.7450    magn:    0.0059    constr:    0.0000
     atom:   33    charge:    0.7366    magn:    0.0038    constr:    0.0000
     atom:   34    charge:    0.7465    magn:    0.0027    constr:    0.0000
     atom:   35    charge:    0.7466    magn:    0.0027    constr:    0.0000
     atom:   36    charge:    0.7458    magn:    0.0027    constr:    0.0000
     atom:   37    charge:    0.7395    magn:    0.0039    constr:    0.0000
     atom:   38    charge:    0.7386    magn:    0.0040    constr:    0.0000
     atom:   39    charge:    0.7469    magn:    0.0015    constr:    0.0000
     atom:   40    charge:    0.7385    magn:    0.0039    constr:    0.0000
     atom:   41    charge:    0.7465    magn:    0.0067    constr:    0.0000
     atom:   42    charge:    0.7447    magn:    0.0054    constr:    0.0000
     atom:   43    charge:    0.7477    magn:    0.0032    constr:    0.0000
     atom:   44    charge:    0.7481    magn:    0.0033    constr:    0.0000
     atom:   45    charge:    0.7230    magn:   -0.0018    constr:    0.0000
     atom:   46    charge:    0.7225    magn:   -0.0016    constr:    0.0000
     atom:   47    charge:    0.7231    magn:   -0.0017    constr:    0.0000
     atom:   48    charge:    0.7210    magn:   -0.0017    constr:    0.0000
     atom:   49    charge:    0.7820    magn:    0.0070    constr:    0.0000
     atom:   50    charge:    0.7749    magn:    0.0119    constr:    0.0000
     atom:   51    charge:    0.7831    magn:    0.0082    constr:    0.0000
     atom:   52    charge:    0.8120    magn:    0.0171    constr:    0.0000
     atom:   53    charge:    0.7849    magn:    0.0080    constr:    0.0000
     atom:   54    charge:    0.8134    magn:    0.0175    constr:    0.0000
     atom:   55    charge:    0.7842    magn:    0.0084    constr:    0.0000
     atom:   56    charge:    0.8130    magn:    0.0176    constr:    0.0000
     atom:   57    charge:    0.7826    magn:    0.0080    constr:    0.0000
     atom:   58    charge:    0.8146    magn:    0.0166    constr:    0.0000
     atom:   59    charge:    0.7832    magn:    0.0082    constr:    0.0000
     atom:   60    charge:    0.8120    magn:    0.0171    constr:    0.0000
     atom:   61    charge:    0.7917    magn:    0.0307    constr:    0.0000
     atom:   62    charge:    0.7841    magn:    0.0028    constr:    0.0000
     atom:   63    charge:    0.7840    magn:    0.0084    constr:    0.0000
     atom:   64    charge:    0.8131    magn:    0.0177    constr:    0.0000
     atom:   65    charge:    0.1141    magn:   -0.0003    constr:    0.0000
     atom:   66    charge:    0.1131    magn:   -0.0003    constr:    0.0000
     atom:   67    charge:    0.1137    magn:   -0.0003    constr:    0.0000
     atom:   68    charge:    0.1146    magn:   -0.0003    constr:    0.0000
     atom:   69    charge:    0.1133    magn:   -0.0003    constr:    0.0000
     atom:   70    charge:    0.1130    magn:   -0.0003    constr:    0.0000
     atom:   71    charge:    0.1136    magn:   -0.0002    constr:    0.0000
     atom:   72    charge:    0.1134    magn:   -0.0002    constr:    0.0000
     atom:   73    charge:    0.1133    magn:   -0.0002    constr:    0.0000
     atom:   74    charge:    0.1147    magn:   -0.0002    constr:    0.0000
     atom:   75    charge:    0.1136    magn:   -0.0003    constr:    0.0000
     atom:   76    charge:    0.1138    magn:   -0.0003    constr:    0.0000
     atom:   77    charge:    0.1141    magn:   -0.0003    constr:    0.0000
     atom:   78    charge:    0.1130    magn:   -0.0003    constr:    0.0000
     atom:   79    charge:    0.1137    magn:   -0.0003    constr:    0.0000
     atom:   80    charge:    0.1146    magn:   -0.0003    constr:    0.0000
     atom:   81    charge:    0.1137    magn:   -0.0003    constr:    0.0000
     atom:   82    charge:    0.1136    magn:   -0.0002    constr:    0.0000
     atom:   83    charge:    0.1142    magn:   -0.0002    constr:    0.0000
     atom:   84    charge:    0.1127    magn:   -0.0002    constr:    0.0000
     atom:   85    charge:    0.1134    magn:   -0.0002    constr:    0.0000
     atom:   86    charge:    0.1147    magn:   -0.0002    constr:    0.0000
     atom:   87    charge:    0.1138    magn:   -0.0003    constr:    0.0000
     atom:   88    charge:    0.1141    magn:   -0.0003    constr:    0.0000
     atom:   89    charge:    0.1140    magn:   -0.0002    constr:    0.0000
     atom:   90    charge:    0.1469    magn:   -0.0000    constr:    0.0000
     atom:   91    charge:    0.1489    magn:   -0.0001    constr:    0.0000
     atom:   92    charge:    0.1477    magn:   -0.0000    constr:    0.0000
     atom:   93    charge:    0.1459    magn:    0.0000    constr:    0.0000
     atom:   94    charge:    0.1469    magn:   -0.0000    constr:    0.0000
     atom:   95    charge:    0.1175    magn:    0.0007    constr:    0.0000
     atom:   96    charge:    0.1477    magn:   -0.0000    constr:    0.0000
     atom:   97    charge:    2.5039    magn:    0.0176    constr:    0.0000
     atom:   98    charge:    2.5026    magn:    0.0181    constr:    0.0000
     atom:   99    charge:    2.5068    magn:    0.0181    constr:    0.0000
     atom:  100    charge:    2.5032    magn:    0.0180    constr:    0.0000
     atom:  101    charge:    2.5026    magn:    0.0154    constr:    0.0000
     atom:  102    charge:    2.5026    magn:    0.0180    constr:    0.0000
     atom:  103    charge:    2.5064    magn:    0.0198    constr:    0.0000
     atom:  104    charge:    2.5031    magn:    0.0178    constr:    0.0000
     atom:  105    charge:    7.4842    magn:    1.1085    constr:    0.0000
     atom:  106    charge:    7.4588    magn:    1.0897    constr:    0.0000
     atom:  107    charge:    7.4625    magn:    1.0824    constr:    0.0000
     atom:  108    charge:    7.4585    magn:    1.0893    constr:    0.0000
     atom:  109    charge:    3.3092    magn:    0.0513    constr:    0.0000
     atom:  110    charge:    3.3918    magn:    0.0339    constr:    0.0000
     atom:  111    charge:    3.3100    magn:    0.0521    constr:    0.0000
     atom:  112    charge:    3.3069    magn:    0.0511    constr:    0.0000
     atom:  113    charge:    3.3061    magn:    0.0521    constr:    0.0000
     atom:  114    charge:    3.3051    magn:    0.0301    constr:    0.0000
     atom:  115    charge:    3.3073    magn:    0.0541    constr:    0.0000
     atom:  116    charge:    3.3095    magn:    0.0497    constr:    0.0000
     atom:  117    charge:    3.3091    magn:    0.0511    constr:    0.0000
     atom:  118    charge:    3.3078    magn:    0.0527    constr:    0.0000
     atom:  119    charge:    3.3100    magn:    0.0521    constr:    0.0000
     atom:  120    charge:    3.3117    magn:    0.0505    constr:    0.0000
     atom:  121    charge:    3.3057    magn:    0.0525    constr:    0.0000
     atom:  122    charge:    3.3097    magn:    0.0523    constr:    0.0000
     atom:  123    charge:    3.3075    magn:    0.0539    constr:    0.0000
     atom:  124    charge:    3.3053    magn:    0.0527    constr:    0.0000

     total cpu time spent up to now is     1884.5 secs

     End of self-consistent calculation

 ------ SPIN UP ------------


          k = 0.0000 0.0000 0.0000 ( 91663 PWs)   bands (ev):

   -23.5726 -21.5216 -21.5047 -21.5004 -21.4689 -21.3964 -21.3788 -21.3755
   -19.9903 -18.8022 -18.7577 -18.7223 -18.6861 -18.5941 -18.5816 -18.5708
   -18.5662 -18.5537 -18.5520 -18.5486 -18.5453 -18.5345 -18.5288 -18.5234
   -18.1372 -18.0416 -17.9806 -15.5226 -15.0216 -14.8871 -14.8584 -14.8365
   -14.8213 -14.7967 -14.7864 -14.7642 -14.6086 -14.5789 -14.4687 -14.4380
   -14.4156 -14.4050 -14.3773 -14.0226 -13.2297 -13.0908 -12.8860 -12.7848
   -12.6366 -12.5272 -12.4378 -11.6430 -11.3044 -11.1955 -11.1556 -11.1426
   -11.0692 -11.0453 -11.0288 -11.0118 -10.7611 -10.7428 -10.6383 -10.5998
   -10.5693 -10.5656 -10.5490 -10.4089  -9.4330  -9.3225  -9.2406  -9.1595
    -9.1146  -9.0740  -9.0549  -8.9936  -8.5037  -8.0561  -7.6436  -7.4244
    -7.2724  -7.2590  -7.2203  -7.2037  -7.1860  -7.1555  -7.1118  -7.0993
    -7.0770  -6.9940  -6.9286  -6.9242  -6.8817  -6.8015  -6.6740  -6.6352
    -6.6091  -6.6014  -6.5842  -6.5646  -6.5625  -6.5388  -6.4214  -6.0852
    -6.0336  -6.0015  -5.9866  -5.9474  -5.9184  -5.8999  -5.8737  -5.8431
    -5.8291  -5.8061  -5.7579  -5.7333  -5.7177  -5.6382  -5.6274  -5.6061
    -5.5687  -5.5477  -5.4619  -5.4143  -5.3994  -5.3579  -5.3251  -5.2576
    -5.2496  -5.1891  -5.1371  -5.1239  -5.0680  -5.0451  -5.0243  -4.9805
    -4.9267  -4.7421  -4.6994  -4.6791  -4.6207  -4.3970  -3.9918  -3.9796
    -3.9310  -3.9174  -3.8575  -3.8430  -3.8411  -3.7994  -3.7896  -3.7435
    -3.7363  -3.7159  -3.4918  -3.3956  -3.3550  -3.3099  -3.2670  -3.2603
    -3.1918  -3.1550  -3.1128  -3.0716  -3.0509  -2.9473  -2.8841  -2.7654
    -2.7300  -2.6940  -2.6706  -2.6548  -2.5805  -2.5424  -2.5234  -2.4774
    -2.4542  -2.4204  -2.3979  -2.3492  -2.3293  -2.3155  -2.2182  -2.2092
    -2.1363  -2.1228  -2.0502  -2.0318  -1.9783  -1.9269  -1.9152  -1.8822
    -1.8706  -1.8368  -1.8055  -1.7836  -1.7630  -1.7113  -1.6962  -1.6345
    -1.6070  -1.5922  -1.5476  -1.4783  -1.4686  -1.4348  -1.4291  -1.4078
    -1.3917  -1.3593  -1.3420  -1.2874  -1.2659  -1.2595  -1.2355  -1.2160
    -1.1980  -1.1789  -1.1223  -1.1162  -1.1005  -1.0533  -0.9940  -0.6848
    -0.3969  -0.0369   0.0572   0.1040   0.4656   0.4938   0.5524   0.6829
     0.7549   0.7831   0.7987   0.8237   2.0399   2.2603   2.2931   2.3819
     2.5494   2.6271   2.7578   2.7890   2.8448   3.1337   3.1851   3.2724
     3.3267   3.3822   3.4507   3.5196   3.6581   3.9642   4.1003   4.2686
     4.2930   4.3178   4.5745   4.6696   4.7496   4.8155   4.9087   4.9433
     4.9989   5.0622   5.1921   5.2386   5.3166   5.3513   5.3677   5.4275
     5.5408   5.5607   5.5920   5.6669   5.7100   5.9283   6.1257   6.3469
     6.3533   6.4761   6.5932

 ------ SPIN DOWN ----------


          k = 0.0000 0.0000 0.0000 ( 91663 PWs)   bands (ev):

   -23.5106 -21.4319 -21.4145 -21.4097 -21.3822 -21.3070 -21.2889 -21.2853
   -19.9240 -18.7594 -18.7177 -18.6852 -18.6505 -18.5537 -18.5385 -18.5186
   -18.5104 -18.4517 -18.4468 -18.4347 -18.4293 -18.4229 -18.4100 -18.4066
   -18.0616 -17.9615 -17.9031 -15.4127 -14.9896 -14.8501 -14.8225 -14.8000
   -14.7853 -14.7604 -14.7501 -14.7286 -14.5646 -14.5343 -14.4254 -14.3973
   -14.3734 -14.3668 -14.3386 -13.9864 -13.1681 -13.0237 -12.8201 -12.7155
   -12.5773 -12.4685 -12.3769 -11.5838 -11.2684 -11.1620 -11.1196 -11.1044
   -11.0354 -11.0090 -10.9932 -10.9709 -10.7305 -10.7134 -10.6082 -10.5697
   -10.5384 -10.5353 -10.5180 -10.3666  -9.4032  -9.2961  -9.2156  -9.1346
    -9.0902  -9.0494  -9.0313  -8.9700  -8.4415  -8.0353  -7.5913  -7.3818
    -7.2276  -7.2152  -7.1855  -7.1654  -7.1468  -7.1227  -7.0817  -7.0739
    -7.0500  -6.9565  -6.8878  -6.8821  -6.8305  -6.7589  -6.6402  -6.6016
    -6.5833  -6.5754  -6.5560  -6.5412  -6.5290  -6.5197  -6.3655  -6.0043
    -5.9521  -5.9403  -5.9102  -5.8711  -5.8307  -5.8008  -5.7803  -5.7627
    -5.7465  -5.7334  -5.6817  -5.6620  -5.6305  -5.5488  -5.5461  -5.5257
    -5.4896  -5.4571  -5.3820  -5.3537  -5.3277  -5.2697  -5.2616  -5.2031
    -5.1952  -5.1322  -5.0774  -5.0540  -4.9850  -4.9686  -4.9595  -4.8889
    -4.8392  -4.6589  -4.6101  -4.5983  -4.5193  -4.3081  -3.9678  -3.9213
    -3.8892  -3.8439  -3.8135  -3.8022  -3.7879  -3.7480  -3.6916  -3.5050
    -3.4472  -3.4048  -3.2698  -3.2383  -3.2068  -3.1155  -3.0269  -3.0066
    -2.9639  -2.9530  -2.9229  -2.8403  -2.7729  -2.6530  -2.6393  -2.5969
    -2.5004  -2.4720  -2.4346  -2.3936  -2.2935  -2.2740  -2.2578  -2.2225
    -2.1913  -2.1749  -2.1144  -2.1031  -2.0837  -2.0012  -1.9953  -1.9082
    -1.8225  -1.8045  -1.7832  -1.7367  -1.6830  -1.6433  -1.6383  -1.6213
    -1.5786  -1.5666  -1.5354  -1.4783  -1.4441  -1.3939  -1.3661  -1.3420
    -1.2937  -1.2735  -1.2380  -1.2010  -1.1909  -1.1516  -1.0699  -1.0552
    -0.9983  -0.9920  -0.9553  -0.8790  -0.7101  -0.6671  -0.6122  -0.6074
    -0.5668  -0.5635  -0.5377  -0.5261  -0.5164  -0.4720  -0.4400  -0.4208
    -0.2744   0.0870   0.2304   0.7623   1.2682   1.3072   1.3392   1.3711
     1.5112   1.5490   1.5621   1.5705   2.1579   2.3777   2.4042   2.4970
     2.6585   2.7363   2.8671   2.9001   2.9476   3.2325   3.2675   3.3660
     3.4249   3.4743   3.5466   3.6091   3.6805   4.0281   4.1097   4.2841
     4.3063   4.3578   4.6518   4.7339   4.8066   4.8686   4.9677   4.9778
     5.0556   5.1059   5.2119   5.2872   5.3554   5.3972   5.4296   5.4816
     5.5856   5.6052   5.6526   5.6685   5.7661   5.9343   6.1461   6.3748
     6.4077   6.4762   6.6083

     the spin up/dw Fermi energies are     1.0100    0.7247 ev

!    total energy              =   -1824.16903431 Ry
     Harris-Foulkes estimate   =   -1824.16903561 Ry
     estimated scf accuracy    <       0.00000066 Ry

     The total energy is the sum of the following terms:

     one-electron contribution =   -2535.65364948 Ry
     hartree contribution      =    1446.55779371 Ry
     xc contribution           =    -576.18557912 Ry
     ewald contribution        =    -161.04627847 Ry
     Dispersion Correction     =      -0.64276520 Ry
     smearing contrib. (-TS)   =       2.80144425 Ry

     total magnetization       =     8.00 Bohr mag/cell
     absolute magnetization    =     8.24 Bohr mag/cell

     convergence has been achieved in  25 iterations

     Forces acting on atoms (cartesian axes, Ry/au):

     atom    1 type  1   force =     0.00445328    0.02404965   -0.02424854
     atom    2 type  1   force =     0.00311894   -0.02464824   -0.02582183
     atom    3 type  1   force =    -0.00637945    0.00437405   -0.00587163
     atom    4 type  1   force =    -0.00334958   -0.00439327   -0.00431411
     atom    5 type  1   force =     0.01540778    0.00880963    0.01156602
     atom    6 type  1   force =     0.01206566   -0.00922609    0.00838209
     atom    7 type  1   force =    -0.00013079   -0.02533914   -0.02359069
     atom    8 type  1   force =     0.00206506    0.01311712   -0.02241315
     atom    9 type  1   force =     0.02062999   -0.00700838   -0.02174301
     atom   10 type  1   force =     0.02524804    0.00600431   -0.02135562
     atom   11 type  1   force =    -0.02586657    0.01201144   -0.02283589
     atom   12 type  1   force =    -0.02331045   -0.00742011   -0.02137761
     atom   13 type  1   force =    -0.00006357    0.01048557    0.01852849
     atom   14 type  1   force =     0.00346222   -0.00330249    0.02073412
     atom   15 type  1   force =    -0.01273707   -0.00403053    0.00928649
     atom   16 type  1   force =    -0.00381006    0.00478788    0.01752549
     atom   17 type  1   force =    -0.01433473    0.00068308    0.00638598
     atom   18 type  1   force =    -0.01682018    0.00838281    0.01270967
     atom   19 type  1   force =     0.00145891   -0.00070240   -0.00274479
     atom   20 type  1   force =     0.00799142    0.02340385   -0.02052346
     atom   21 type  1   force =    -0.00407391   -0.00760738    0.00714240
     atom   22 type  1   force =    -0.01016477    0.00790609    0.00420664
     atom   23 type  1   force =     0.00486113    0.00775651    0.00645708
     atom   24 type  1   force =    -0.13909348   -0.09230343    0.14103482
     atom   25 type  1   force =     0.00379936    0.02594891   -0.02608910
     atom   26 type  1   force =     0.00368720   -0.02470929   -0.02478427
     atom   27 type  1   force =    -0.00489787    0.00351476   -0.00362713
     atom   28 type  1   force =    -0.00462284   -0.00479215   -0.00458817
     atom   29 type  1   force =     0.01547157    0.01527839    0.00939761
     atom   30 type  1   force =     0.01249851   -0.00898782    0.00875336
     atom   31 type  1   force =     0.01804104   -0.00039903   -0.01098387
     atom   32 type  1   force =    -0.00110645    0.02479500   -0.02501697
     atom   33 type  1   force =     0.00177292   -0.01044835   -0.00504808
     atom   34 type  1   force =     0.02477197    0.00603508   -0.02148720
     atom   35 type  1   force =    -0.02289819    0.00439846   -0.02478280
     atom   36 type  1   force =    -0.02363840   -0.00736698   -0.02138650
     atom   37 type  1   force =    -0.00072543   -0.00013694    0.02208490
     atom   38 type  1   force =     0.00349072   -0.00341351    0.02060023
     atom   39 type  1   force =    -0.02674761   -0.01711706    0.02103289
     atom   40 type  1   force =    -0.00330371    0.00239918    0.01995272
     atom   41 type  1   force =    -0.01279229   -0.03062993   -0.00841488
     atom   42 type  1   force =    -0.01226342    0.01099702    0.00710489
     atom   43 type  1   force =    -0.00182401   -0.00285000   -0.00081311
     atom   44 type  1   force =     0.00414123    0.00314223   -0.00439384
     atom   45 type  1   force =    -0.00406354   -0.00710761    0.00682837
     atom   46 type  1   force =     0.00102297    0.00975507    0.01005138
     atom   47 type  1   force =     0.00278306    0.00835695    0.00775784
     atom   48 type  1   force =     0.00726495   -0.00838223    0.00567086
     atom   49 type  1   force =     0.11111859    0.04748440    0.00938996
     atom   50 type  1   force =    -0.07934521   -0.03119882   -0.03299009
     atom   51 type  1   force =     0.15916564   -0.06626176    0.02440803
     atom   52 type  1   force =     0.20388479   -0.26828258   -0.03539793
     atom   53 type  1   force =    -0.15427921   -0.07545075    0.01996249
     atom   54 type  1   force =    -0.21129340   -0.26415822   -0.00030889
     atom   55 type  1   force =    -0.16005022    0.06995540    0.01984032
     atom   56 type  1   force =    -0.20248275    0.26389767    0.00623307
     atom   57 type  1   force =     0.15861678    0.06000919    0.02402057
     atom   58 type  1   force =     0.21012845    0.26704836   -0.03202026
     atom   59 type  1   force =     0.15890175   -0.06616875    0.02434670
     atom   60 type  1   force =     0.20414837   -0.26836748   -0.03550707
     atom   61 type  1   force =     0.27593596   -0.08963281   -0.22709080
     atom   62 type  1   force =    -0.13105669    0.09346971    0.19439633
     atom   63 type  1   force =    -0.16091798    0.07006350    0.02043337
     atom   64 type  1   force =    -0.20151553    0.26340778    0.00608169
     atom   65 type  2   force =     0.00914491   -0.00599264    0.01221227
     atom   66 type  2   force =     0.00916060    0.00553239    0.01092941
     atom   67 type  2   force =    -0.02272708   -0.00011149   -0.00188513
     atom   68 type  2   force =    -0.01956658    0.00254606   -0.00361947
     atom   69 type  2   force =    -0.00941157    0.00523332    0.01087603
     atom   70 type  2   force =    -0.00882705   -0.00536181    0.01064984
     atom   71 type  2   force =    -0.01310983    0.01444334   -0.01994015
     atom   72 type  2   force =    -0.01346303   -0.00530002   -0.01548373
     atom   73 type  2   force =     0.01345899   -0.00459568   -0.01425097
     atom   74 type  2   force =     0.01201493    0.00597598   -0.01452958
     atom   75 type  2   force =     0.01525463    0.00248637   -0.00631738
     atom   76 type  2   force =     0.01860203   -0.00231092   -0.00531990
     atom   77 type  2   force =     0.00897864   -0.00589404    0.01189698
     atom   78 type  2   force =     0.00958036    0.00543342    0.01166954
     atom   79 type  2   force =    -0.02134906   -0.00092102   -0.00249242
     atom   80 type  2   force =    -0.01968103    0.00242053   -0.00382253
     atom   81 type  2   force =    -0.01075933    0.00462566    0.01149338
     atom   82 type  2   force =    -0.00981037   -0.01987992    0.01804995
     atom   83 type  2   force =    -0.01260005   -0.00526448    0.00450246
     atom   84 type  2   force =    -0.01268928    0.00564898   -0.01485171
     atom   85 type  2   force =    -0.01348188   -0.00529033   -0.01551021
     atom   86 type  2   force =     0.01212591    0.00557729   -0.01434463
     atom   87 type  2   force =     0.01404271    0.00478718   -0.00554886
     atom   88 type  2   force =     0.01811636   -0.00267605   -0.00484887
     atom   89 type  2   force =    -0.03401742   -0.02444036   -0.01344185
     atom   90 type  2   force =    -0.22852989   -0.75957005   -0.15377391
     atom   91 type  2   force =     0.24325720   -0.81715631    0.06685847
     atom   92 type  2   force =     0.23033879    0.76203567    0.07414294
     atom   93 type  2   force =    -0.24116014    0.81863741   -0.14797213
     atom   94 type  2   force =    -0.22882680   -0.75958984   -0.15373512
     atom   95 type  2   force =     0.11180017    0.11162448    0.12319343
     atom   96 type  2   force =     0.23017417    0.76216549    0.07415393
     atom   97 type  3   force =     0.02418559    0.00090499    0.04208889
     atom   98 type  3   force =     0.02419663   -0.00185467    0.03729978
     atom   99 type  3   force =    -0.02419899   -0.00188590    0.03644280
     atom  100 type  3   force =    -0.02726390    0.00111918    0.03670517
     atom  101 type  3   force =     0.03661827   -0.01568582    0.03281990
     atom  102 type  3   force =     0.02415922   -0.00193111    0.03721114
     atom  103 type  3   force =     0.04492236    0.00933421   -0.00922346
     atom  104 type  3   force =    -0.02767911    0.00067802    0.03692240
     atom  105 type  4   force =    -0.04261265    0.04816743   -0.01017110
     atom  106 type  4   force =    -0.00435557   -0.01447247    0.01482190
     atom  107 type  4   force =     0.01531103    0.01861797    0.00195622
     atom  108 type  4   force =    -0.00475175   -0.01496399    0.01491843
     atom  109 type  5   force =     0.02200140    0.00472456   -0.00375313
     atom  110 type  5   force =    -0.12545422   -0.05880407   -0.17685731
     atom  111 type  5   force =    -0.02146954   -0.00679542   -0.00292690
     atom  112 type  5   force =    -0.02065273    0.00854359   -0.00265132
     atom  113 type  5   force =    -0.02021253    0.00958831    0.01676303
     atom  114 type  5   force =     0.04108766   -0.02670087   -0.00592063
     atom  115 type  5   force =     0.01590613   -0.01157937    0.01480736
     atom  116 type  5   force =     0.02894967    0.00718418    0.01845815
     atom  117 type  5   force =     0.02192737    0.00567873   -0.00303398
     atom  118 type  5   force =     0.02516481   -0.00432373   -0.00331417
     atom  119 type  5   force =    -0.02130005   -0.00674844   -0.00287802
     atom  120 type  5   force =    -0.01967113    0.01809002   -0.00685334
     atom  121 type  5   force =    -0.01901194    0.00916272    0.01585757
     atom  122 type  5   force =    -0.01677446   -0.01055514    0.01954334
     atom  123 type  5   force =     0.01618301   -0.01166893    0.01506081
     atom  124 type  5   force =     0.01730650    0.01147188    0.01623078

     Total force =     2.315874     Total SCF correction =     0.002015

     BFGS Geometry Optimization

     number of scf cycles    =   1
     number of bfgs steps    =   0

     energy   new            =   -1824.1690343095 Ry

     new trust radius        =       0.5000000000 bohr
     new conv_thr            =       0.0000010000 Ry


ATOMIC_POSITIONS (crystal)
C             0.2883076596        0.9706366282        0.5212630408
C             0.0384412143        0.0305047708        0.0215402635
C             0.3904749914        0.0118766935        0.5463174244
C             0.1401598451        0.9876368377        0.0460177327
C             0.4522976258        0.9704168880        0.6507148816
C             0.2028192647        0.0281279536        0.1501422170
C             0.2081650401        0.5290859179        0.5256826001
C             0.4585833156        0.4717289578        0.0272376106
C             0.2456291657        0.6131600490        0.6057885353
C             0.4974241808        0.3888234595        0.1079820534
C             0.2488317980        0.8894989877        0.6025240418
C             0.0004880258        0.1120510059        0.1036113996
C             0.4079854731        0.8896387679        0.7281028903
C             0.1600307913        0.1094664444        0.2284284683
C             0.0885558952        0.6088846857        0.7276281066
C             0.3408064144        0.3917497877        0.2299150691
C             0.0465782995        0.5250956619        0.6515018684
C             0.2972540090        0.4749154766        0.1531318846
C             0.1081981518        0.4842528669        0.5500343918
C             0.3580161019        0.5162268757        0.0500277951
C             0.4332143509        0.0991334379        0.4668333583
C             0.1812709804        0.8999128483        0.9657970721
C             0.0675002372        0.3946631999        0.4708679824
C             0.3127216639        0.6019204995        0.9733002569
C             0.7882906905        0.9706829556        0.5212083172
C             0.5384556568        0.0305032815        0.0215711123
C             0.8905123966        0.0118557334        0.5463841580
C             0.6401285948        0.9876271080        0.0460095843
C             0.9522980108        0.9705746764        0.6506504103
C             0.7028300389        0.0281337656        0.1501532555
C             0.7086167469        0.5296942668        0.5260574267
C             0.9585054358        0.4720138091        0.0271601938
C             0.7451775758        0.6130761399        0.6062849102
C             0.9974124806        0.3888242100        0.1079781412
C             0.7489032536        0.8893132890        0.6024661560
C             0.5004800102        0.1120523019        0.1036111350
C             0.9079712302        0.8893796596        0.7282086297
C             0.6600304151        0.1094637364        0.2284244874
C             0.5882200145        0.6085654741        0.7279773512
C             0.8408200965        0.3916915218        0.2299872357
C             0.5466079681        0.5243318630        0.6510618082
C             0.7973622847        0.4749792435        0.1529652430
C             0.6081190049        0.4842004818        0.5500918247
C             0.8579307806        0.5157326466        0.0505073621
C             0.9332144344        0.0991456286        0.4668240215
C             0.6815474270        0.8999579495        0.9659708482
C             0.5674491800        0.3946778458        0.4709066566
C             0.8162235301        0.6039675375        0.9692756063
C             0.1505523862        0.8474492577        0.5804811829
C             0.0600149753        0.8084789864        0.5609081364
C             0.9042221626        0.1556387179        0.0820147013
C             0.8202061604        0.1895369487        0.0619795462
C             0.3403262077        0.6587505765        0.5849755262
C             0.4225445476        0.6948745517        0.5667878162
C             0.5928101727        0.3448673790        0.0876098938
C             0.6761563060        0.3103440930        0.0700503220
C             0.6519635459        0.8473297671        0.5804721812
C             0.5675335027        0.8149709457        0.5601179715
C             0.4042156832        0.1556409864        0.0820128777
C             0.3202125399        0.1895348776        0.0619763015
C             0.5357244358        0.6497686421        0.8211381209
C             0.4763868537        0.6913649489        0.9190158049
C             0.0927892966        0.3448690156        0.0876275264
C             0.1761788505        0.3103311434        0.0700468212
H             0.2373539916        0.9994288251        0.4434760959
H             0.4867676809        0.0028269482        0.9438239541
H             0.0315068234        0.9988022805        0.6734639512
H             0.2818600866        0.9987271044        0.1724943858
H             0.2584759877        0.5010226531        0.4496053669
H             0.0084311434        0.5002662127        0.9508646418
H             0.4530389752        0.8555253074        0.8081681382
H             0.2059017588        0.1429737198        0.3083366365
H             0.0440500528        0.6428319003        0.8061842893
H             0.2966636279        0.3576717684        0.3086190056
H             0.4690412081        0.4932916486        0.6733141711
H             0.2194035151        0.5051446311        0.1751058285
H             0.7373497597        0.9994312302        0.4434667218
H             0.9867783349        0.0028245340        0.9438459595
H             0.5315391556        0.9987825341        0.6734458953
H             0.7818571810        0.9987240424        0.1724883482
H             0.7584433998        0.5010078309        0.4496237219
H             0.5084111281        0.4999120815        0.9510846622
H             0.8223356536        0.6503775869        0.5927688676
H             0.9530520014        0.8553107922        0.8083194279
H             0.7059022841        0.1429739563        0.3083358495
H             0.7966664389        0.3576620434        0.3086245044
H             0.9690120203        0.4933477708        0.6733370210
H             0.7193919064        0.5051357247        0.1751198332
H             0.9858617795        0.7774828415        0.5435933461
H             0.7349764693        0.2102812766        0.0405999836
H             0.5070082460        0.7157426106        0.5515538407
H             0.7607406281        0.2894218657        0.0552094229
H             0.4813570883        0.7969475170        0.5384424826
H             0.2349692377        0.2102807940        0.0406011371
H             0.4374556147        0.7229747871        0.9909427953
H             0.2607366131        0.2894230322        0.0552107497
N             0.3090505583        0.8512750749        0.7060793896
N             0.0613402367        0.1488117603        0.2071609995
N             0.1859706083        0.6502639983        0.7069215198
N             0.4381638833        0.3509552994        0.2091323207
N             0.8093492371        0.8508703854        0.7058038035
N             0.5613392749        0.1488098955        0.2071583643
N             0.6876353322        0.6505376837        0.7055637675
N             0.9381538585        0.3509445386        0.2091387792
Ni            0.2459555929        0.7526609184        0.8360235920
Ni            0.4998736264        0.2476459820        0.3396186856
Ni            0.7473770625        0.7519401365        0.8363841624
Ni            0.9998640008        0.2476339927        0.3396215559
O             0.1233133995        0.3478042432        0.3827614116
O             0.3680478188        0.6495426286        0.8760336665
O             0.3771039775        0.1473412434        0.3770909773
O             0.1245920789        0.8525603986        0.8761821707
O             0.4725843370        0.3563938817        0.4834923995
O             0.2221374488        0.6407637021        0.9797009674
O             0.0292365529        0.1348755516        0.4815182534
O             0.2774031442        0.8629332393        0.9799477991
O             0.6233129803        0.3478275177        0.3827827936
O             0.8718209100        0.6508715340        0.8811934629
O             0.8771081443        0.1473423894        0.3770924304
O             0.6246137830        0.8527932588        0.8760572361
O             0.9726131740        0.3563835007        0.4834654785
O             0.7207378235        0.6411575349        0.9804580640
O             0.5292434536        0.1348733670        0.4815257890
O             0.7771175301        0.8630378264        0.9798815747



     Writing output data file /nfs/hpc/share/gantzlen/NiPyC2_relax_sc211_ortho_functionalized_C-C_vdw-df2_relax.save/
     NEW-OLD atomic charge density approx. for the potential

     Check: negative core charge=   -0.000145

     total cpu time spent up to now is     1924.2 secs

     Self-consistent Calculation

     iteration #  1     ecut=   100.00 Ry     beta= 0.70
     Davidson diagonalization with overlap
     ethr =  1.00E-06,  avg # of iterations = 11.5

     total cpu time spent up to now is     2228.7 secs

     total energy              =   -1825.34754632 Ry
     Harris-Foulkes estimate   =   -1825.61140415 Ry
     estimated scf accuracy    <       0.83305524 Ry

     total magnetization       =     8.00 Bohr mag/cell
     absolute magnetization    =     8.23 Bohr mag/cell

     iteration #  2     ecut=   100.00 Ry     beta= 0.70
     Davidson diagonalization with overlap
     ethr =  1.80E-04,  avg # of iterations =  3.0

     total cpu time spent up to now is     2297.6 secs

     total energy              =   -1825.43324723 Ry
     Harris-Foulkes estimate   =   -1825.46509085 Ry
     estimated scf accuracy    <       0.13561035 Ry

     total magnetization       =     8.00 Bohr mag/cell
     absolute magnetization    =     8.24 Bohr mag/cell

     iteration #  3     ecut=   100.00 Ry     beta= 0.70
     Davidson diagonalization with overlap
     ethr =  2.92E-05,  avg # of iterations =  3.0

     total cpu time spent up to now is     2363.6 secs

     total energy              =   -1825.42893338 Ry
     Harris-Foulkes estimate   =   -1825.48709159 Ry
     estimated scf accuracy    <       0.52565433 Ry

     total magnetization       =     8.00 Bohr mag/cell
     absolute magnetization    =     8.24 Bohr mag/cell

     iteration #  4     ecut=   100.00 Ry     beta= 0.70
     Davidson diagonalization with overlap
     ethr =  2.92E-05,  avg # of iterations =  2.0

     total cpu time spent up to now is     2427.3 secs

     total energy              =   -1825.45848462 Ry
     Harris-Foulkes estimate   =   -1825.46025230 Ry
     estimated scf accuracy    <       0.01673057 Ry

     total magnetization       =     8.00 Bohr mag/cell
     absolute magnetization    =     8.24 Bohr mag/cell

     iteration #  5     ecut=   100.00 Ry     beta= 0.70
     Davidson diagonalization with overlap
     ethr =  3.61E-06,  avg # of iterations =  7.0

     total cpu time spent up to now is     2496.2 secs

     total energy              =   -1825.45775698 Ry
     Harris-Foulkes estimate   =   -1825.46297596 Ry
     estimated scf accuracy    <       0.07116679 Ry

     total magnetization       =     8.00 Bohr mag/cell
     absolute magnetization    =     8.24 Bohr mag/cell

     iteration #  6     ecut=   100.00 Ry     beta= 0.70
     Davidson diagonalization with overlap
     ethr =  3.61E-06,  avg # of iterations =  2.0

     total cpu time spent up to now is     2558.4 secs

     total energy              =   -1825.46065382 Ry
     Harris-Foulkes estimate   =   -1825.46079083 Ry
     estimated scf accuracy    <       0.00158128 Ry

     total magnetization       =     8.00 Bohr mag/cell
     absolute magnetization    =     8.24 Bohr mag/cell

     iteration #  7     ecut=   100.00 Ry     beta= 0.70
     Davidson diagonalization with overlap
     ethr =  3.41E-07,  avg # of iterations =  3.5

     total cpu time spent up to now is     2625.0 secs

     total energy              =   -1825.46073367 Ry
     Harris-Foulkes estimate   =   -1825.46078376 Ry
     estimated scf accuracy    <       0.00040713 Ry

     total magnetization       =     8.00 Bohr mag/cell
     absolute magnetization    =     8.24 Bohr mag/cell

     iteration #  8     ecut=   100.00 Ry     beta= 0.70
     Davidson diagonalization with overlap
     ethr =  8.77E-08,  avg # of iterations =  2.5

     total cpu time spent up to now is     2689.2 secs

     total energy              =   -1825.46073440 Ry
     Harris-Foulkes estimate   =   -1825.46080300 Ry
     estimated scf accuracy    <       0.00078900 Ry

     total magnetization       =     8.00 Bohr mag/cell
     absolute magnetization    =     8.24 Bohr mag/cell

     iteration #  9     ecut=   100.00 Ry     beta= 0.70
     Davidson diagonalization with overlap
     ethr =  8.77E-08,  avg # of iterations =  2.0

     total cpu time spent up to now is     2751.8 secs

     total energy              =   -1825.46076337 Ry
     Harris-Foulkes estimate   =   -1825.46077437 Ry
     estimated scf accuracy    <       0.00005094 Ry

     total magnetization       =     8.00 Bohr mag/cell
     absolute magnetization    =     8.24 Bohr mag/cell

     iteration # 10     ecut=   100.00 Ry     beta= 0.70
     Davidson diagonalization with overlap
     ethr =  1.10E-08,  avg # of iterations =  3.0

     total cpu time spent up to now is     2821.1 secs

     total energy              =   -1825.46076344 Ry
     Harris-Foulkes estimate   =   -1825.46076807 Ry
     estimated scf accuracy    <       0.00001454 Ry

     total magnetization       =     8.00 Bohr mag/cell
     absolute magnetization    =     8.24 Bohr mag/cell

     iteration # 11     ecut=   100.00 Ry     beta= 0.70
     Davidson diagonalization with overlap
     ethr =  3.13E-09,  avg # of iterations =  3.0

     total cpu time spent up to now is     2891.9 secs

     total energy              =   -1825.46076158 Ry
     Harris-Foulkes estimate   =   -1825.46076552 Ry
     estimated scf accuracy    <       0.00002296 Ry

     total magnetization       =     8.00 Bohr mag/cell
     absolute magnetization    =     8.24 Bohr mag/cell

     iteration # 12     ecut=   100.00 Ry     beta= 0.70
     Davidson diagonalization with overlap
     ethr =  3.13E-09,  avg # of iterations =  2.5

     total cpu time spent up to now is     2957.4 secs

     total energy              =   -1825.46075882 Ry
     Harris-Foulkes estimate   =   -1825.46076366 Ry
     estimated scf accuracy    <       0.00001905 Ry

     total magnetization       =     8.00 Bohr mag/cell
     absolute magnetization    =     8.24 Bohr mag/cell

     iteration # 13     ecut=   100.00 Ry     beta= 0.70
     Davidson diagonalization with overlap
     ethr =  3.13E-09,  avg # of iterations =  3.0

     total cpu time spent up to now is     3024.0 secs

     total energy              =   -1825.46075527 Ry
     Harris-Foulkes estimate   =   -1825.46075994 Ry
     estimated scf accuracy    <       0.00000335 Ry

     total magnetization       =     8.00 Bohr mag/cell
     absolute magnetization    =     8.24 Bohr mag/cell

     iteration # 14     ecut=   100.00 Ry     beta= 0.70
     Davidson diagonalization with overlap
     ethr =  7.22E-10,  avg # of iterations =  4.0

     total cpu time spent up to now is     3110.2 secs

     total energy              =   -1825.46075390 Ry
     Harris-Foulkes estimate   =   -1825.46075614 Ry
     estimated scf accuracy    <       0.00000253 Ry

     total magnetization       =     8.00 Bohr mag/cell
     absolute magnetization    =     8.24 Bohr mag/cell

     iteration # 15     ecut=   100.00 Ry     beta= 0.70
     Davidson diagonalization with overlap
     ethr =  5.46E-10,  avg # of iterations =  4.0

     total cpu time spent up to now is     3188.8 secs

     total energy              =   -1825.46075242 Ry
     Harris-Foulkes estimate   =   -1825.46075431 Ry
     estimated scf accuracy    <       0.00000226 Ry

     total magnetization       =     8.00 Bohr mag/cell
     absolute magnetization    =     8.24 Bohr mag/cell

     iteration # 16     ecut=   100.00 Ry     beta= 0.70
     Davidson diagonalization with overlap
     ethr =  4.87E-10,  avg # of iterations =  4.0
 
     Magnetic moment per site:
     atom:    1    charge:    0.7470    magn:    0.0059    constr:    0.0000
     atom:    2    charge:    0.7461    magn:    0.0062    constr:    0.0000
     atom:    3    charge:    0.7495    magn:    0.0033    constr:    0.0000
     atom:    4    charge:    0.7488    magn:    0.0031    constr:    0.0000
     atom:    5    charge:    0.7464    magn:    0.0057    constr:    0.0000
     atom:    6    charge:    0.7435    magn:    0.0059    constr:    0.0000
     atom:    7    charge:    0.7467    magn:    0.0063    constr:    0.0000
     atom:    8    charge:    0.7477    magn:    0.0068    constr:    0.0000
     atom:    9    charge:    0.7532    magn:    0.0027    constr:    0.0000
     atom:   10    charge:    0.7539    magn:    0.0026    constr:    0.0000
     atom:   11    charge:    0.7494    magn:    0.0026    constr:    0.0000
     atom:   12    charge:    0.7528    magn:    0.0028    constr:    0.0000
     atom:   13    charge:    0.7434    magn:    0.0038    constr:    0.0000
     atom:   14    charge:    0.7410    magn:    0.0036    constr:    0.0000
     atom:   15    charge:    0.7415    magn:    0.0033    constr:    0.0000
     atom:   16    charge:    0.7412    magn:    0.0030    constr:    0.0000
     atom:   17    charge:    0.7468    magn:    0.0056    constr:    0.0000
     atom:   18    charge:    0.7445    magn:    0.0068    constr:    0.0000
     atom:   19    charge:    0.7476    magn:    0.0030    constr:    0.0000
     atom:   20    charge:    0.7519    magn:    0.0013    constr:    0.0000
     atom:   21    charge:    0.7213    magn:   -0.0018    constr:    0.0000
     atom:   22    charge:    0.7192    magn:   -0.0014    constr:    0.0000
     atom:   23    charge:    0.7211    magn:   -0.0018    constr:    0.0000
     atom:   24    charge:    0.7172    magn:    0.0025    constr:    0.0000
     atom:   25    charge:    0.7469    magn:    0.0060    constr:    0.0000
     atom:   26    charge:    0.7462    magn:    0.0061    constr:    0.0000
     atom:   27    charge:    0.7495    magn:    0.0032    constr:    0.0000
     atom:   28    charge:    0.7489    magn:    0.0031    constr:    0.0000
     atom:   29    charge:    0.7461    magn:    0.0055    constr:    0.0000
     atom:   30    charge:    0.7435    magn:    0.0060    constr:    0.0000
     atom:   31    charge:    0.7462    magn:    0.0058    constr:    0.0000
     atom:   32    charge:    0.7461    magn:    0.0062    constr:    0.0000
     atom:   33    charge:    0.7388    magn:    0.0028    constr:    0.0000
     atom:   34    charge:    0.7536    magn:    0.0028    constr:    0.0000
     atom:   35    charge:    0.7528    magn:    0.0028    constr:    0.0000
     atom:   36    charge:    0.7528    magn:    0.0028    constr:    0.0000
     atom:   37    charge:    0.7418    magn:    0.0034    constr:    0.0000
     atom:   38    charge:    0.7410    magn:    0.0036    constr:    0.0000
     atom:   39    charge:    0.7692    magn:   -0.0007    constr:    0.0000
     atom:   40    charge:    0.7410    magn:    0.0035    constr:    0.0000
     atom:   41    charge:    0.7477    magn:    0.0090    constr:    0.0000
     atom:   42    charge:    0.7452    magn:    0.0061    constr:    0.0000
     atom:   43    charge:    0.7477    magn:    0.0028    constr:    0.0000
     atom:   44    charge:    0.7485    magn:    0.0031    constr:    0.0000
     atom:   45    charge:    0.7214    magn:   -0.0018    constr:    0.0000
     atom:   46    charge:    0.7210    magn:   -0.0015    constr:    0.0000
     atom:   47    charge:    0.7209    magn:   -0.0017    constr:    0.0000
     atom:   48    charge:    0.7189    magn:   -0.0017    constr:    0.0000
     atom:   49    charge:    0.7671    magn:    0.0071    constr:    0.0000
     atom:   50    charge:    0.7542    magn:    0.0149    constr:    0.0000
     atom:   51    charge:    0.8317    magn:    0.0071    constr:    0.0000
     atom:   52    charge:    0.7653    magn:    0.0144    constr:    0.0000
     atom:   53    charge:    0.8361    magn:    0.0068    constr:    0.0000
     atom:   54    charge:    0.7702    magn:    0.0143    constr:    0.0000
     atom:   55    charge:    0.8338    magn:    0.0072    constr:    0.0000
     atom:   56    charge:    0.7698    magn:    0.0145    constr:    0.0000
     atom:   57    charge:    0.8319    magn:    0.0069    constr:    0.0000
     atom:   58    charge:    0.7663    magn:    0.0141    constr:    0.0000
     atom:   59    charge:    0.8319    magn:    0.0070    constr:    0.0000
     atom:   60    charge:    0.7653    magn:    0.0143    constr:    0.0000
     atom:   61    charge:    0.7375    magn:    0.0375    constr:    0.0000
     atom:   62    charge:    0.7205    magn:    0.0091    constr:    0.0000
     atom:   63    charge:    0.8333    magn:    0.0071    constr:    0.0000
     atom:   64    charge:    0.7699    magn:    0.0146    constr:    0.0000
     atom:   65    charge:    0.1150    magn:   -0.0003    constr:    0.0000
     atom:   66    charge:    0.1141    magn:   -0.0003    constr:    0.0000
     atom:   67    charge:    0.1145    magn:   -0.0003    constr:    0.0000
     atom:   68    charge:    0.1152    magn:   -0.0003    constr:    0.0000
     atom:   69    charge:    0.1143    magn:   -0.0003    constr:    0.0000
     atom:   70    charge:    0.1141    magn:   -0.0003    constr:    0.0000
     atom:   71    charge:    0.1140    magn:   -0.0002    constr:    0.0000
     atom:   72    charge:    0.1142    magn:   -0.0002    constr:    0.0000
     atom:   73    charge:    0.1140    magn:   -0.0002    constr:    0.0000
     atom:   74    charge:    0.1153    magn:   -0.0002    constr:    0.0000
     atom:   75    charge:    0.1143    magn:   -0.0003    constr:    0.0000
     atom:   76    charge:    0.1147    magn:   -0.0003    constr:    0.0000
     atom:   77    charge:    0.1151    magn:   -0.0003    constr:    0.0000
     atom:   78    charge:    0.1140    magn:   -0.0003    constr:    0.0000
     atom:   79    charge:    0.1143    magn:   -0.0003    constr:    0.0000
     atom:   80    charge:    0.1151    magn:   -0.0003    constr:    0.0000
     atom:   81    charge:    0.1143    magn:   -0.0004    constr:    0.0000
     atom:   82    charge:    0.1144    magn:   -0.0002    constr:    0.0000
     atom:   83    charge:    0.1143    magn:   -0.0002    constr:    0.0000
     atom:   84    charge:    0.1135    magn:   -0.0002    constr:    0.0000
     atom:   85    charge:    0.1141    magn:   -0.0002    constr:    0.0000
     atom:   86    charge:    0.1155    magn:   -0.0002    constr:    0.0000
     atom:   87    charge:    0.1143    magn:   -0.0003    constr:    0.0000
     atom:   88    charge:    0.1146    magn:   -0.0003    constr:    0.0000
     atom:   89    charge:    0.1179    magn:   -0.0003    constr:    0.0000
     atom:   90    charge:    0.0814    magn:   -0.0001    constr:    0.0000
     atom:   91    charge:    0.0781    magn:   -0.0002    constr:    0.0000
     atom:   92    charge:    0.0821    magn:   -0.0001    constr:    0.0000
     atom:   93    charge:    0.0763    magn:   -0.0001    constr:    0.0000
     atom:   94    charge:    0.0814    magn:   -0.0001    constr:    0.0000
     atom:   95    charge:    0.1282    magn:    0.0001    constr:    0.0000
     atom:   96    charge:    0.0822    magn:   -0.0001    constr:    0.0000
     atom:   97    charge:    2.4958    magn:    0.0186    constr:    0.0000
     atom:   98    charge:    2.4952    magn:    0.0185    constr:    0.0000
     atom:   99    charge:    2.4990    magn:    0.0192    constr:    0.0000
     atom:  100    charge:    2.4954    magn:    0.0187    constr:    0.0000
     atom:  101    charge:    2.4960    magn:    0.0159    constr:    0.0000
     atom:  102    charge:    2.4952    magn:    0.0185    constr:    0.0000
     atom:  103    charge:    2.4989    magn:    0.0266    constr:    0.0000
     atom:  104    charge:    2.4954    magn:    0.0182    constr:    0.0000
     atom:  105    charge:    7.4801    magn:    1.0963    constr:    0.0000
     atom:  106    charge:    7.4564    magn:    1.0992    constr:    0.0000
[...]
     atom    8 type  1   force =     0.00007052   -0.00060110    0.00000242
     atom    9 type  1   force =    -0.00024229    0.00008984    0.00016002
     atom   10 type  1   force =     0.00040059   -0.00009331   -0.00012555
     atom   11 type  1   force =    -0.00002333    0.00000347    0.00016430
     atom   12 type  1   force =     0.00005366   -0.00027050    0.00003264
     atom   13 type  1   force =     0.00004243    0.00012250    0.00030661
     atom   14 type  1   force =    -0.00029789   -0.00012794    0.00015130
     atom   15 type  1   force =    -0.00040050    0.00004349    0.00001881
     atom   16 type  1   force =    -0.00010116   -0.00019518   -0.00012848
     atom   17 type  1   force =     0.00015413   -0.00002778   -0.00016351
     atom   18 type  1   force =    -0.00020692   -0.00048349   -0.00025473
     atom   19 type  1   force =    -0.00022424    0.00021609   -0.00005018
     atom   20 type  1   force =    -0.00009043    0.00008747    0.00008820
     atom   21 type  1   force =    -0.00035344   -0.00051449    0.00023360
     atom   22 type  1   force =    -0.00014439   -0.00000789   -0.00009884
     atom   23 type  1   force =     0.00009008   -0.00001526   -0.00014312
     atom   24 type  1   force =    -0.00021841    0.00008537    0.00081091
     atom   25 type  1   force =    -0.00018383    0.00022449    0.00042793
     atom   26 type  1   force =     0.00010431    0.00013107    0.00040602
     atom   27 type  1   force =    -0.00005858    0.00007117   -0.00022299
     atom   28 type  1   force =    -0.00010348   -0.00007452   -0.00025876
     atom   29 type  1   force =    -0.00017348    0.00031887   -0.00021776
     atom   30 type  1   force =    -0.00015915    0.00031834   -0.00051582
     atom   31 type  1   force =     0.00004729    0.00038147   -0.00020350
     atom   32 type  1   force =    -0.00012742    0.00020538    0.00027906
     atom   33 type  1   force =    -0.00019271    0.00009900   -0.00057450
     atom   34 type  1   force =    -0.00013666    0.00009417   -0.00005896
     atom   35 type  1   force =    -0.00005427   -0.00018149    0.00013779
     atom   36 type  1   force =    -0.00024102    0.00010221    0.00018607
     atom   37 type  1   force =     0.00014819   -0.00019798   -0.00024298
     atom   38 type  1   force =     0.00048178   -0.00008882   -0.00018204
     atom   39 type  1   force =    -0.00017165    0.00030211    0.00031445
     atom   40 type  1   force =    -0.00055997   -0.00000517   -0.00023702
     atom   41 type  1   force =    -0.00064332    0.00038864   -0.00031949
     atom   42 type  1   force =    -0.00003403    0.00010370   -0.00031004
     atom   43 type  1   force =    -0.00016229   -0.00013002    0.00008731
     atom   44 type  1   force =    -0.00011374    0.00040076    0.00045588
     atom   45 type  1   force =    -0.00033566   -0.00053198   -0.00035865
     atom   46 type  1   force =     0.00013431   -0.00013047   -0.00011215
     atom   47 type  1   force =     0.00009087    0.00068535    0.00051027
     atom   48 type  1   force =    -0.00020395    0.00015519    0.00011376
     atom   49 type  1   force =    -0.00031622   -0.00018124    0.00012391
     atom   50 type  1   force =     0.00013422   -0.00019841    0.00002461
     atom   51 type  1   force =     0.00037023   -0.00029430   -0.00030890
     atom   52 type  1   force =    -0.00035629    0.00006588    0.00013218
     atom   53 type  1   force =     0.00000231   -0.00036641   -0.00042129
     atom   54 type  1   force =     0.00005648   -0.00008644    0.00018702
     atom   55 type  1   force =    -0.00024800   -0.00016374   -0.00012017
     atom   56 type  1   force =     0.00020728    0.00039618    0.00002202
     atom   57 type  1   force =     0.00020786    0.00024638    0.00004455
     atom   58 type  1   force =    -0.00041044    0.00004078    0.00001786
     atom   59 type  1   force =     0.00006458   -0.00054237    0.00002936
     atom   60 type  1   force =    -0.00007887    0.00008372    0.00013331
     atom   61 type  1   force =     0.00085515   -0.00085869    0.00000270
     atom   62 type  1   force =    -0.00066496    0.00072042    0.00015832
     atom   63 type  1   force =    -0.00061323    0.00040138   -0.00004547
     atom   64 type  1   force =     0.00049939   -0.00029690   -0.00007942
     atom   65 type  2   force =    -0.00008728   -0.00003466   -0.00019602
     atom   66 type  2   force =     0.00016244    0.00023126    0.00001194
     atom   67 type  2   force =    -0.00011462   -0.00040706   -0.00021182
     atom   68 type  2   force =     0.00026929   -0.00008080   -0.00029104
     atom   69 type  2   force =    -0.00019138    0.00043362   -0.00028598
     atom   70 type  2   force =    -0.00084321   -0.00024405    0.00025010
     atom   71 type  2   force =    -0.00001415    0.00033691    0.00024893
     atom   72 type  2   force =    -0.00006505   -0.00004643    0.00061392
     atom   73 type  2   force =     0.00047642    0.00032960    0.00005094
     atom   74 type  2   force =     0.00046984    0.00076054   -0.00040824
     atom   75 type  2   force =     0.00011101   -0.00093227    0.00006469
     atom   76 type  2   force =    -0.00020164    0.00031550   -0.00027663
     atom   77 type  2   force =    -0.00015069   -0.00025076   -0.00002017
     atom   78 type  2   force =     0.00004250    0.00076935   -0.00018510
     atom   79 type  2   force =     0.00048324    0.00035956    0.00018336
     atom   80 type  2   force =     0.00001902    0.00020941    0.00000585
     atom   81 type  2   force =     0.00041524    0.00000125   -0.00022623
     atom   82 type  2   force =    -0.00042337   -0.00041636   -0.00054440
     atom   83 type  2   force =    -0.00033926   -0.00007963    0.00007523
     atom   84 type  2   force =    -0.00027512   -0.00023803    0.00015305
     atom   85 type  2   force =    -0.00056039    0.00040317    0.00022608
     atom   86 type  2   force =     0.00021721   -0.00008351    0.00018738
     atom   87 type  2   force =    -0.00048731    0.00025310    0.00016433
     atom   88 type  2   force =     0.00004302   -0.00036629    0.00022467
     atom   89 type  2   force =    -0.00016897   -0.00011952   -0.00005646
     atom   90 type  2   force =     0.00040638   -0.00004705    0.00022993
     atom   91 type  2   force =     0.00008768   -0.00025047    0.00026384
     atom   92 type  2   force =    -0.00019323    0.00012156   -0.00010966
     atom   93 type  2   force =    -0.00013214   -0.00005906    0.00020487
     atom   94 type  2   force =    -0.00024307   -0.00008233    0.00022450
     atom   95 type  2   force =    -0.00007880   -0.00008010   -0.00000587
     atom   96 type  2   force =    -0.00037550    0.00014286   -0.00050469
     atom   97 type  3   force =     0.00003262   -0.00005049    0.00016609
     atom   98 type  3   force =     0.00024033    0.00012417   -0.00035203
     atom   99 type  3   force =    -0.00011287    0.00043555   -0.00014204
     atom  100 type  3   force =     0.00047274    0.00007674   -0.00006099
     atom  101 type  3   force =     0.00047805   -0.00005710   -0.00002869
     atom  102 type  3   force =     0.00028048    0.00002761    0.00019604
     atom  103 type  3   force =    -0.00007671   -0.00013191    0.00030751
     atom  104 type  3   force =    -0.00056943    0.00034870   -0.00034222
     atom  105 type  4   force =    -0.00004198   -0.00010699    0.00005931
     atom  106 type  4   force =     0.00023455   -0.00007384   -0.00004404
     atom  107 type  4   force =     0.00010891   -0.00008585    0.00004224
     atom  108 type  4   force =     0.00041382   -0.00007621   -0.00099058
     atom  109 type  5   force =     0.00083427    0.00036568    0.00028964
     atom  110 type  5   force =     0.00051686   -0.00080890    0.00008953
     atom  111 type  5   force =     0.00041377    0.00025018    0.00019021
     atom  112 type  5   force =     0.00024188   -0.00011599    0.00006999
     atom  113 type  5   force =    -0.00003433   -0.00039148   -0.00059881
     atom  114 type  5   force =     0.00032701    0.00051779   -0.00065803
     atom  115 type  5   force =     0.00059699    0.00011066    0.00030420
     atom  116 type  5   force =     0.00057233   -0.00081419    0.00007256
     atom  117 type  5   force =     0.00041607    0.00024803    0.00010973
     atom  118 type  5   force =    -0.00036620    0.00003308    0.00015087
     atom  119 type  5   force =    -0.00051464   -0.00028942    0.00028474
     atom  120 type  5   force =    -0.00009663    0.00049431   -0.00046114
     atom  121 type  5   force =     0.00021841    0.00021771    0.00009402
     atom  122 type  5   force =     0.00016018    0.00015572    0.00001046
     atom  123 type  5   force =     0.00022596   -0.00036120   -0.00001240
     atom  124 type  5   force =     0.00012096    0.00006126   -0.00009715

     Total force =     0.005798     Total SCF correction =     0.000111

     bfgs converged in  70 scf cycles and  67 bfgs steps
     (criteria: energy <  1.0E-04 Ry, force <  1.0E-03 Ry/Bohr)

     End of BFGS Geometry Optimization

     Final energy   =   -1826.6684524592 Ry
Begin final coordinates

ATOMIC_POSITIONS (crystal)
C             0.2845297709        0.9833277916        0.5304760235
C             0.0417638479        0.0166413626        0.0338729649
C             0.3833894537        0.0272322162        0.5653701908
C             0.1422404774        0.9767453885        0.0682285215
C             0.4399109672        0.9877337789        0.6741547447
C             0.2002752860        0.0222647160        0.1721139846
C             0.1973301352        0.5165182131        0.5388808989
C             0.4319071837        0.4625505926        0.0297462713
C             0.2392084276        0.6023299923        0.6126243063
C             0.4820362330        0.3847314364        0.1082758021
C             0.2455588857        0.8956355484        0.6017793430
C             0.0014890089        0.1056538965        0.1009884250
C             0.3964924185        0.9019033131        0.7426459694
C             0.1558157255        0.1099189347        0.2364364875
C             0.0814608009        0.6107281112        0.7327866580
C             0.3419032698        0.3948999331        0.2566996366
C             0.0349143498        0.5271422633        0.6605047206
C             0.2949303910        0.4810370679        0.1898340962
C             0.0947046841        0.4797453149        0.5625004940
C             0.3421750800        0.5159063545        0.0745790795
C             0.4311714703        0.1080648977        0.4813488775
C             0.1860785958        0.8928457024        0.9860802253
C             0.0527237290        0.3929692562        0.4803269222
C             0.2961469026        0.6012705320        0.9971094894
C             0.7946233669        0.9818550727        0.5312677683
C             0.5475558792        0.0209244522        0.0321425888
C             0.8959518904        0.0211423598        0.5620769800
C             0.6485422914        0.9818352126        0.0646500822
C             0.9539917445        0.9781677482        0.6676036323
C             0.7049781960        0.0239825560        0.1719265457
C             0.7246483054        0.5184421738        0.5375309906
C             0.9567252064        0.4883992655        0.0379557148
C             0.7572909451        0.6072976805        0.6111558724
C             0.9945891212        0.3975652695        0.1060468818
C             0.7530601287        0.8965507816        0.6043083250
C             0.5040082629        0.1047306211        0.1057016857
C             0.9087939103        0.8931619314        0.7368046540
C             0.6581163635        0.1076549521        0.2412799224
C             0.6004053578        0.6006876621        0.7343579493
C             0.8419561371        0.3971225677        0.2355462606
C             0.5648628168        0.5084364204        0.6663186715
C             0.8002253394        0.4874137165        0.1711641895
C             0.6262142074        0.4705879607        0.5642179986
C             0.8583567029        0.5316998413        0.0696212001
C             0.9395512124        0.1039318565        0.4776085825
C             0.6936220236        0.9006545474        0.9791805698
C             0.5814200391        0.3854215572        0.4812625392
C             0.8154505798        0.6178702888        0.9878434842
C             0.1505677439        0.8472739194        0.5583583991
C             0.0688277946        0.8124849395        0.5082048384
C             0.9042271001        0.1460242619        0.0529055227
C             0.8238907226        0.1582964437       -0.0144121316
C             0.3394622448        0.6397190345        0.5761611283
C             0.4224474587        0.6519247383        0.5184633846
C             0.5825340673        0.3515882912        0.0671384582
C             0.6660595368        0.3472711354        0.0089696746
C             0.6516917608        0.8604983085        0.5650028958
C             0.5662783938        0.8516531518        0.5070253897
C             0.4045071577        0.1417098215        0.0605517654
C             0.3232656056        0.1498251161       -0.0061162149
C             0.5419309544        0.6466660589        0.8309405981
C             0.4716576772        0.6657277303        0.9209471451
C             0.0915762266        0.3564168895        0.0641739506
C             0.1734623000        0.3432957734        0.0046098538
H             0.2376367605        1.0127883362        0.4496772063
H             0.5016380133       -0.0099811258        0.9515407126
H             0.0317588245        1.0073713767        0.6959636281
H             0.2775361461        0.9932145919        0.2024886370
H             0.2458903945        0.4818241101        0.4656395156
H             0.0046781317        0.5214667154        0.9626870910
H             0.4385294712        0.8676200672        0.8246592664
H             0.1981329599        0.1496993371        0.3143664871
H             0.0389970309        0.6498116580        0.8089889971
H             0.3061339466        0.3606903802        0.3410191822
H             0.4896059395        0.4727203689        0.6896157334
H             0.2230857381        0.5166090676        0.2253054031
H             0.7465969233        1.0144657627        0.4534508139
H             0.9940906944       -0.0175225976        0.9567796692
H             0.5159299937        1.0199502875        0.7043867298
H             0.7828640107        0.9956369986        0.2008413990
H             0.7752774073        0.4885136092        0.4630280215
H             0.4666911785        0.4786764510        0.9378353354
H             0.8325066068        0.6468908724        0.5957826009
H             0.9509783816        0.8558897264        0.8165902253
H             0.6995419390        0.1453244256        0.3213980563
H             0.7989568022        0.3585796212        0.3114388904
H             0.9556186273        0.5006932506        0.6821948086
H             0.7243423826        0.5191776536        0.1989049382
H             0.9973149928        0.7799673582        0.4671912059
H             0.7518355102        0.1687061965       -0.0691289911
H             0.4967693117        0.6633584811        0.4731429797
H             0.7409059753        0.3436825648       -0.0369103047
H             0.4906375306        0.8433804616        0.4597707636
H             0.2506863126        0.1573073504       -0.0604161412
H             0.4901114938        0.6951952461        1.0179784524
H             0.2476665584        0.3327589114       -0.0411187636
N             0.3023667896        0.8564994888        0.7087525697
N             0.0588512258        0.1495916043        0.2036520110
N             0.1810594873        0.6468536953        0.7110166095
N             0.4346812063        0.3501759957        0.2198439001
N             0.8113850892        0.8532040260        0.7067004718
N             0.5602610102        0.1464436259        0.2105863788
N             0.6968623742        0.6483145353        0.7051274647
N             0.9363589898        0.3533628506        0.2048611850
Ni            0.2406754779        0.7535160752        0.8357517216
Ni            0.5031320348        0.2469715830        0.3401894164
Ni            0.7477913563        0.7535636839        0.8361372171
Ni            0.9968233548        0.2476183785        0.3328272271
O             0.1111970757        0.3525476292        0.3892692407
O             0.3636008795        0.6412326249        0.8921278314
O             0.3762633843        0.1536676127        0.3884058582
O             0.1266050029        0.8521941789        0.8927271471
O             0.4842592836        0.3540086507        0.4936268322
O             0.2069709948        0.6403274709        0.9968019362
O             0.0362607298        0.1358906031        0.4857194275
O             0.2820859493        0.8584960339        0.9960310319
O             0.6341258471        0.3409670541        0.3890915955
O             0.8720452674        0.6595392804        0.8966850705
O             0.8798956258        0.1470852535        0.3864432078
O             0.6341251530        0.8596200449        0.8858805713
O             0.9589615901        0.3543607609        0.4911111551
O             0.7195257886        0.6525964955        0.9974878288
O             0.5298327734        0.1346453965        0.4923595413
O             0.7896654013        0.8675431294        0.9890351224
End final coordinates



     Writing output data file /nfs/hpc/share/gantzlen/NiPyC2_relax_sc211_ortho_functionalized_C-C_vdw-df2_relax.save/
 
     init_run     :     56.34s CPU     58.60s WALL (       1 calls)
     electrons    :  68584.05s CPU  74171.68s WALL (      70 calls)
     update_pot   :   1051.65s CPU   1097.12s WALL (      69 calls)
     forces       :   1579.03s CPU   1631.84s WALL (      70 calls)

     Called by init_run:
     wfcinit      :     31.83s CPU     33.07s WALL (       1 calls)
     potinit      :     18.29s CPU     19.10s WALL (       1 calls)
     hinit0       :      5.25s CPU      5.44s WALL (       1 calls)

     Called by electrons:
     c_bands      :  59280.00s CPU  63987.52s WALL (     914 calls)
     sum_band     :   3650.06s CPU   3917.17s WALL (     914 calls)
     v_of_rho     :   4969.43s CPU   5451.16s WALL (     970 calls)
     mix_rho      :    993.60s CPU   1102.15s WALL (     914 calls)
     vdW_kernel   :      9.08s CPU      9.24s WALL (       1 calls)

     Called by c_bands:
     init_us_2    :     58.12s CPU     58.69s WALL (    1829 calls)
     regterg      :  58648.71s CPU  60412.95s WALL (     914 calls)

     Called by sum_band:

     Called by *egterg:
     h_psi        :  24683.95s CPU  25999.25s WALL (    4102 calls)
     g_psi        :     35.20s CPU     35.57s WALL (    3187 calls)
     rdiaghg      :   2317.46s CPU   2341.87s WALL (    4018 calls)

     Called by h_psi:
     h_psi:calbec :   5524.08s CPU   5573.42s WALL (    4102 calls)
     vloc_psi     :  13338.33s CPU  14591.52s WALL (    4102 calls)
     add_vuspsi   :   5757.40s CPU   5769.34s WALL (    4102 calls)

     General routines
     calbec       :   6233.39s CPU   6289.06s WALL (    4382 calls)
     fft          :   3697.61s CPU   4126.20s WALL (   81907 calls)
     ffts         :    713.51s CPU    790.44s WALL (   15938 calls)
     fftw         :  14425.49s CPU  15863.25s WALL (  745336 calls)
 
     Parallel routines
     fft_scatt_xy :   2723.28s CPU   2786.21s WALL (  843181 calls)
     fft_scatt_yz :   3574.61s CPU   5232.75s WALL (  843181 calls)
 
     PWSCF        :     19h48m CPU     21h23m WALL

 
   This run was terminated on:  14:56:51   2Aug2020            

=------------------------------------------------------------------------------=
   JOB DONE.
=------------------------------------------------------------------------------=
QE finished Sun Aug 2 14:56:51 PDT 2020
