Created on Tue Aug 25 11:51:42 2020 

         124 atoms
         144 bonds
         268 angles
         288 dihedrals
         168 impropers

           6 atom types
           9 bond types
          17 angle types
           4 dihedral types
           1 improper types
           0.000000  12.505600 xlo xhi
           0.000000  12.523400 ylo yhi
           0.000000  10.274279 zlo zhi
           0.000000  -0.227594   0.000000 xy xz yz

Masses

    1    58.693400000 # Ni4+2
    2    15.999400000 # O_R
    3    14.006700000 # N_R
    4    12.010700000 # C_R
    5     1.007940000 # H_
    6    30.973762000 # P_3+q

Bond Coeffs

    1      321.720028        1.793457  # Ni4+2 O_R
    2      328.673665        1.841585  # Ni4+2 N_R
    3      646.680887        1.311940  # O_R C_R
    4      663.718927        1.345073  # N_R C_R
    5      462.655054        1.379256  # C_R C_R
    6      357.440381        1.081418  # C_R H_
    7      391.669513        1.458000  # C_R C_R
    8      319.631727        1.784947  # C_R P_3+q
    9      242.614490        1.407777  # P_3+q H_

Angle Coeffs

    1              cosine/periodic      322.980216               1               4 # O_R Ni4+2 O_R
    2              cosine/periodic      343.030950               1               4 # O_R Ni4+2 N_R
    3              cosine/periodic      364.965660               1               4 # N_R Ni4+2 N_R
    4              cosine/periodic      238.346347              -1               3 # C_R O_R Ni4+2
    5              cosine/periodic      177.809033              -1               3 # Ni4+2 N_R C_R
    6              cosine/periodic      240.001032              -1               3 # C_R N_R C_R
    7              cosine/periodic      114.578032              -1               3 # C_R C_R H_
    8              cosine/periodic      222.595017              -1               3 # C_R C_R C_R
    9              cosine/periodic      204.366560              -1               3 # C_R C_R C_R
   10              cosine/periodic      307.398705              -1               3 # N_R C_R C_R
   11              cosine/periodic      159.573934              -1               3 # N_R C_R H_
   12              cosine/periodic      295.880527              -1               3 # P_3+q C_R N_R
   13              cosine/periodic      216.173917              -1               3 # P_3+q C_R C_R
   14              cosine/periodic      263.511421              -1               3 # O_R C_R C_R
   15              cosine/periodic      374.272657              -1               3 # O_R C_R O_R
   16                      fourier       66.292484        0.343737        0.374972        0.281246 # C_R P_3+q H_
   17                      fourier       36.949120        0.343737        0.374972        0.281246 # H_ P_3+q H_

Dihedral Coeffs

    1        2.245703              -1               2 # Ni4+2 O_R C_R C_R
    2        1.497136              -1               2 # Ni4+2 N_R C_R P_3+q
    3        0.555556              -1               2 # C_R C_R C_R O_R
    4        0.111111               1               3 # N_R C_R P_3+q H_

Improper Coeffs

    1        2.000000        1.000000       -1.000000        0.000000               0 # Ni4+2 N_R C_R C_R

Pair Coeffs

    1        0.015000        2.524807 # Ni4+2 Ni4+2
    2        0.060000        3.118146 # O_R O_R
    3        0.069000        3.260689 # N_R N_R
    4        0.105000        3.430851 # C_R C_R
    5        0.044000        2.571134 # H_ H_
    6        0.305000        3.694557 # P_3+q P_3+q

Atoms

       1      444        1     0.00000    2.89857    9.41116    8.59265
       2      444        1     0.00000    6.17525    3.10579    3.48481
       3      444        2     0.00000    1.44827    4.35425    3.93374
       4      444        2     0.00000    4.44160    8.15245    9.05464
       5      444        2     0.00000    4.63665    1.84729    3.87523
       6      444        2     0.00000    1.36499   10.67435    9.00295
       7      444        2     0.00000    5.80609    4.46033    4.96242
       8      444        2     0.00000    2.54244    8.03270   10.06753
       9      444        2     0.00000    0.25117    1.69264    4.94273
      10      444        2     0.00000    3.23722   10.80466   10.06262
      11      444        3     0.00000    3.69677   10.66058    7.24160
      12      444        3     0.00000    0.71256    1.86420    2.11704
      13      444        3     0.00000    2.17217    8.14409    7.25198
      14      444        3     0.00000    5.44023    4.39481    2.13747
      15      444        4     0.00000    3.48546   12.14832    5.36301
      16      444        4     0.00000    0.47488    0.38955    0.22920
      17      444        5     0.00000    2.86453   12.51808    4.55267
      18      444        5     0.00000    5.86971    0.03371    9.69377
      19      444        4     0.00000    4.76073    0.14740    5.61481
      20      444        4     0.00000    1.74333   12.36991    0.47412
      21      444        4     0.00000    5.50345   12.15023    6.68209
      22      444        4     0.00000    2.49852    0.35508    1.54004
      23      444        5     0.00000    0.24768   12.50843    6.91993
      24      444        5     0.00000    3.49155   12.50668    1.77336
      25      444        4     0.00000    2.48363    6.63370    5.40822
      26      444        4     0.00000    5.72803    5.90364    0.28669
      27      444        5     0.00000    3.13294    6.27291    4.61605
      28      444        5     0.00000   -0.10828    6.26667    9.76620
      29      444        4     0.00000    2.92756    7.68099    6.23068
      30      444        4     0.00000    6.18830    4.86756    1.11596
      31      444        5     0.00000    3.89994    8.14655    6.08890
      32      444        5     0.00000    0.91589    4.41889    0.97634
      33      444        4     0.00000    2.98256   11.13588    6.19748
      34      444        4     0.00000   -0.01036    1.40553    1.07106
      35      444        4     0.00000    4.93641   11.13810    7.47507
      36      444        4     0.00000    1.94823    1.37190    2.34060
      37      444        5     0.00000    5.48559   10.70967    8.30944
      38      444        4     0.00000    0.94573    7.62654    7.47302
      39      444        4     0.00000    4.21083    4.90458    2.35686
      40      444        4     0.00000    0.43859    6.57577    6.69176
      41      444        4     0.00000    3.68763    5.94500    1.56944
      42      444        5     0.00000    5.70774    6.17693    6.91975
      43      444        5     0.00000    2.69824    6.32683    1.80071
      44      444        4     0.00000    1.22745    6.06471    5.65205
      45      444        4     0.00000    4.46338    6.45777    0.52027
      46      444        4     0.00000    5.31260    1.24381    4.79419
      47      444        4     0.00000    2.05020   11.26755    9.92158
      48      444        4     0.00000    0.73548    4.94016    4.83586
      49      444        4     0.00000    3.73174    7.56629    9.95688
      50      444        1     0.00000    9.15137    9.41116    8.59265
      51      444        1     0.00000   12.42805    3.10579    3.48481
      52      444        2     0.00000    7.70109    4.35425    3.93374
      53      444        2     0.00000   10.69440    8.15245    9.05464
      54      444        2     0.00000   10.88945    1.84729    3.87523
      55      444        2     0.00000    7.61779   10.67435    9.00295
      56      444        2     0.00000   12.05889    4.46033    4.96242
      57      444        2     0.00000    8.79524    8.03270   10.06753
      58      444        2     0.00000    6.50397    1.69264    4.94273
      59      444        2     0.00000    9.49002   10.80466   10.06262
      60      444        3     0.00000    9.94957   10.66058    7.24160
      61      444        3     0.00000    6.96536    1.86420    2.11704
      62      444        3     0.00000    8.42499    8.14409    7.25198
      63      444        3     0.00000   11.69303    4.39481    2.13747
      64      444        4     0.00000    9.73826   12.14832    5.36301
      65      444        4     0.00000    6.72768    0.38955    0.22920
      66      444        5     0.00000    9.11733   12.51808    4.55267
      67      444        5     0.00000   12.12251    0.03371    9.69377
      68      444        4     0.00000   11.01353    0.14740    5.61481
      69      444        4     0.00000    7.99613   12.36991    0.47412
      70      444        4     0.00000   11.75625   12.15023    6.68209
      71      444        4     0.00000    8.75132    0.35508    1.54004
      72      444        5     0.00000    6.50047   12.50843    6.91993
      73      444        5     0.00000    9.74435   12.50668    1.77336
      74      444        4     0.00000    8.73644    6.63370    5.40822
      75      444        4     0.00000   11.98084    5.90364    0.28669
      76      444        5     0.00000    9.38574    6.27291    4.61605
      77      444        5     0.00000    6.14452    6.26667    9.76620
      78      444        4     0.00000    9.18036    7.68099    6.23068
      79      444        4     0.00000   12.44110    4.86756    1.11596
      80      444        5     0.00000    7.16869    4.41889    0.97634
      81      444        4     0.00000    9.23536   11.13588    6.19748
      82      444        4     0.00000    6.24244    1.40553    1.07106
      83      444        5     0.00000   11.51373    1.85011    0.92351
      84      444        4     0.00000   11.18921   11.13810    7.47507
      85      444        4     0.00000    8.20102    1.37190    2.34060
      86      444        5     0.00000   11.73839   10.70967    8.30944
      87      444        5     0.00000    8.76167    1.79214    3.17267
      88      444        4     0.00000    7.19853    7.62654    7.47302
      89      444        4     0.00000   10.46363    4.90458    2.35686
      90      444        5     0.00000    6.61608    8.05184    8.28732
      91      444        4     0.00000    6.69139    6.57577    6.69176
      92      444        4     0.00000    9.94043    5.94500    1.56944
      93      444        5     0.00000   11.96054    6.17693    6.91975
      94      444        5     0.00000    8.95104    6.32683    1.80071
      95      444        4     0.00000    7.48025    6.06471    5.65205
      96      444        4     0.00000   10.71618    6.45777    0.52027
      97      444        4     0.00000   11.56540    1.24381    4.79419
      98      444        4     0.00000    8.30300   11.26755    9.92158
      99      444        4     0.00000    6.98827    4.94016    4.83586
     100      444        4     0.00000    9.98454    7.56629    9.95688
     101      444        6     0.00000    1.27968   10.38948    5.90477
     102      444        5     0.00000    1.40001    9.27045    6.82318
     103      444        5     0.00000    1.66997    9.69837    4.68769
     104      444        6     0.00000    2.92173    2.10676    3.77737
     105      444        5     0.00000    1.83243    2.85105    4.38536
     106      444        5     0.00000    2.83291    0.90907    4.59521
     107      444        6     0.00000   -0.06709    8.37331    8.87397
     108      444        5     0.00000    0.99275    9.16258    9.47726
     109      444        5     0.00000    0.04083    7.20079    9.72530
     110      444        6     0.00000    3.21207    4.16601    3.77422
     111      444        5     0.00000    4.06385    3.01748    4.03018
     112      444        5     0.00000    2.24795    3.51583    2.90304
     113      444        6     0.00000    7.53567   10.38405    5.90012
     114      444        5     0.00000    7.42882    9.65062    7.14945
     115      444        5     0.00000    6.81442   11.57960    6.30220
     116      444        6     0.00000    4.55078    2.18019    0.78525
     117      444        5     0.00000    4.69009    3.29199    1.70973
     118      444        5     0.00000    4.72232    2.87195    9.84571
     119      444        6     0.00000   10.85484    8.49412    5.95672
     120      444        5     0.00000   10.66905    9.62376    6.85091
     121      444        5     0.00000   10.45981    9.14533    4.71934
     122      444        6     0.00000    9.46487    4.16601    3.77422
     123      444        5     0.00000   10.31665    3.01748    4.03018
     124      444        5     0.00000    8.50075    3.51583    2.90304

Bonds

       1        1        1        4
       2        1        1        6
       3        1        1        8
       4        1        1       10
       5        2        1       11
       6        2        1       13
       7        1        2        5
       8        1        2        7
       9        2        2       14
      10        1        2       52
      11        1        2       58
      12        2        2       61
      13        3        3       48
      14        1        3       51
      15        3        4       49
      16        3        5       46
      17        3        6       47
      18        3        7       99
      19        3        8       49
      20        1        9       51
      21        3        9       97
      22        3       10       47
      23        4       11       33
      24        4       11       35
      25        4       12       34
      26        4       12       36
      27        2       12       51
      28        4       13       29
      29        4       13       38
      30        4       14       30
      31        4       14       39
      32        6       15       17
      33        5       15       19
      34        5       15       33
      35        5       16       20
      36        5       16       34
      37        6       16       67
      38        6       18       65
      39        5       19       21
      40        7       19       46
      41        5       20       22
      42        7       20       47
      43        5       21       35
      44        6       21       72
      45        6       22       24
      46        5       22       36
      47        6       23       70
      48        6       25       27
      49        5       25       29
      50        5       25       44
      51        5       26       30
      52        5       26       45
      53        6       26       77
      54        6       28       75
      55        6       29       31
      56        6       30       80
      57        6       32       79
      58        8       33      101
      59        6       34       83
      60        6       35       37
      61        8       36      104
      62        5       38       40
      63        8       38      107
      64        5       39       41
      65        8       39      110
      66        5       40       44
      67        6       40       93
      68        6       41       43
      69        5       41       45
      70        6       42       91
      71        7       44       48
      72        7       45       49
      73        3       46       58
      74        3       48       56
      75        1       50       53
      76        1       50       55
      77        1       50       57
      78        1       50       59
      79        2       50       60
      80        2       50       62
      81        1       51       54
      82        1       51       56
      83        2       51       63
      84        3       52       99
      85        3       53      100
      86        3       54       97
      87        3       55       98
      88        3       57      100
      89        3       59       98
      90        4       60       81
      91        4       60       84
      92        4       61       82
      93        4       61       85
      94        4       62       78
      95        4       62       88
      96        4       63       79
      97        4       63       89
      98        6       64       66
      99        5       64       68
     100        5       64       81
     101        5       65       69
     102        5       65       82
     103        5       68       70
     104        7       68       97
     105        5       69       71
     106        7       69       98
     107        5       70       84
     108        6       71       73
     109        5       71       85
     110        6       74       76
     111        5       74       78
     112        5       74       95
     113        5       75       79
     114        5       75       96
     115        8       78      119
     116        8       81      113
     117        8       82      116
     118        6       84       86
     119        6       85       87
     120        6       88       90
     121        5       88       91
     122        5       89       92
     123        8       89      122
     124        5       91       95
     125        6       92       94
     126        5       92       96
     127        7       95       99
     128        7       96      100
     129        9      101      102
     130        9      101      103
     131        9      104      105
     132        9      104      106
     133        9      107      108
     134        9      107      109
     135        9      110      111
     136        9      110      112
     137        9      113      114
     138        9      113      115
     139        9      116      117
     140        9      116      118
     141        9      119      120
     142        9      119      121
     143        9      122      123
     144        9      122      124

Angles

       1        1        4        1        6
       2        1        4        1        8
       3        1        4        1       10
       4        2        4        1       11
       5        2        4        1       13
       6        1        6        1        8
       7        1        6        1       10
       8        2        6        1       11
       9        2        6        1       13
      10        1        8        1       10
      11        2        8        1       11
      12        2        8        1       13
      13        2       10        1       11
      14        2       10        1       13
      15        3       11        1       13
      16        2       14        2        5
      17        2       14        2        7
      18        2       14        2       52
      19        2       14        2       58
      20        3       14        2       61
      21        1        5        2        7
      22        1        5        2       52
      23        1        5        2       58
      24        2        5        2       61
      25        1        7        2       52
      26        1        7        2       58
      27        2        7        2       61
      28        1       52        2       58
      29        2       52        2       61
      30        2       58        2       61
      31        4       48        3       51
      32        4        1        4       49
      33        4        2        5       46
      34        4        1        6       47
      35        4        2        7       99
      36        4        1        8       49
      37        4       51        9       97
      38        4        1       10       47
      39        5        1       11       33
      40        5        1       11       35
      41        6       33       11       35
      42        6       34       12       36
      43        5       34       12       51
      44        5       36       12       51
      45        5        1       13       29
      46        5        1       13       38
      47        6       29       13       38
      48        5        2       14       30
      49        5        2       14       39
      50        6       30       14       39
      51        7       19       15       17
      52        8       19       15       33
      53        7       17       15       33
      54        8       20       16       34
      55        7       20       16       67
      56        7       34       16       67
      57        8       15       19       21
      58        9       15       19       46
      59        9       21       19       46
      60        8       16       20       22
      61        9       16       20       47
      62        9       22       20       47
      63        8       19       21       35
      64        7       19       21       72
      65        7       35       21       72
      66        8       20       22       36
      67        7       20       22       24
      68        7       36       22       24
      69        8       29       25       44
      70        7       29       25       27
      71        7       44       25       27
      72        8       30       26       45
      73        7       30       26       77
      74        7       45       26       77
      75       10       13       29       25
      76       11       13       29       31
      77        7       25       29       31
      78       10       14       30       26
      79       11       14       30       80
      80        7       26       30       80
      81       12      101       33       11
      82       13      101       33       15
      83       10       11       33       15
      84       10       12       34       16
      85       11       12       34       83
      86        7       16       34       83
      87       10       21       35       11
      88        7       21       35       37
      89       11       11       35       37
      90       10       12       36       22
      91       12       12       36      104
      92       13       22       36      104
      93       10       13       38       40
      94       12       13       38      107
      95       13       40       38      107
      96       10       14       39       41
      97       12       14       39      110
      98       13       41       39      110
      99        8       38       40       44
     100        7       38       40       93
     101        7       44       40       93
     102        8       39       41       45
     103        7       39       41       43
     104        7       45       41       43
     105        8       25       44       40
     106        9       25       44       48
     107        9       40       44       48
     108        8       26       45       41
     109        9       26       45       49
     110        9       41       45       49
     111       14        5       46       19
     112       15        5       46       58
     113       14       19       46       58
     114       14       10       47       20
     115       15       10       47        6
     116       14       20       47        6
     117       14        3       48       44
     118       15        3       48       56
     119       14       44       48       56
     120       14        8       49       45
     121       15        8       49        4
     122       14       45       49        4
     123        1       53       50       55
     124        1       53       50       57
     125        1       53       50       59
     126        2       53       50       60
     127        2       53       50       62
     128        1       55       50       57
     129        1       55       50       59
     130        2       55       50       60
     131        2       55       50       62
     132        1       57       50       59
     133        2       57       50       60
     134        2       57       50       62
     135        2       59       50       60
     136        2       59       50       62
     137        3       60       50       62
     138        2        9       51       12
     139        1        9       51       54
     140        1        9       51        3
     141        1        9       51       56
     142        2        9       51       63
     143        2       12       51       54
     144        2       12       51        3
     145        2       12       51       56
     146        3       12       51       63
     147        1       54       51        3
     148        1       54       51       56
     149        2       54       51       63
     150        1        3       51       56
     151        2        3       51       63
     152        2       56       51       63
     153        4        2       52       99
     154        4       50       53      100
     155        4       51       54       97
     156        4       50       55       98
     157        4       48       56       51
     158        4       50       57      100
     159        4        2       58       46
     160        4       50       59       98
     161        5       50       60       81
     162        5       50       60       84
     163        6       81       60       84
     164        5        2       61       82
     165        5        2       61       85
     166        6       82       61       85
     167        5       50       62       78
     168        5       50       62       88
     169        6       78       62       88
     170        6       79       63       89
     171        5       79       63       51
     172        5       89       63       51
     173        7       68       64       66
     174        8       68       64       81
     175        7       66       64       81
     176        7       69       65       18
     177        8       69       65       82
     178        7       18       65       82
     179        9       64       68       97
     180        8       64       68       70
     181        9       97       68       70
     182        8       65       69       71
     183        9       65       69       98
     184        9       71       69       98
     185        7       84       70       23
     186        8       84       70       68
     187        7       23       70       68
     188        7       69       71       73
     189        8       69       71       85
     190        7       73       71       85
     191        8       78       74       95
     192        7       78       74       76
     193        7       95       74       76
     194        7       79       75       28
     195        8       79       75       96
     196        7       28       75       96
     197       10       62       78       74
     198       12       62       78      119
     199       13       74       78      119
     200       10       63       79       75
     201       11       63       79       32
     202        7       75       79       32
     203       12      113       81       60
     204       13      113       81       64
     205       10       60       81       64
     206       10       61       82       65
     207       12       61       82      116
     208       13       65       82      116
     209       10       70       84       60
     210        7       70       84       86
     211       11       60       84       86
     212       10       61       85       71
     213       11       61       85       87
     214        7       71       85       87
     215       11       62       88       90
     216       10       62       88       91
     217        7       90       88       91
     218       10       63       89       92
     219       12       63       89      122
     220       13       92       89      122
     221        7       95       91       42
     222        8       95       91       88
     223        7       42       91       88
     224        8       89       92       96
     225        7       89       92       94
     226        7       96       92       94
     227        8       74       95       91
     228        9       74       95       99
     229        9       91       95       99
     230        8       92       96       75
     231        9       92       96      100
     232        9       75       96      100
     233       14       68       97        9
     234       14       68       97       54
     235       15        9       97       54
     236       14       59       98       69
     237       15       59       98       55
     238       14       69       98       55
     239       14       52       99       95
     240       15       52       99        7
     241       14       95       99        7
     242       14       57      100       96
     243       15       57      100       53
     244       14       96      100       53
     245       16       33      101      102
     246       16       33      101      103
     247       17      102      101      103
     248       16       36      104      105
     249       16       36      104      106
     250       17      105      104      106
     251       16       38      107      108
     252       16       38      107      109
     253       17      108      107      109
     254       16       39      110      111
     255       16       39      110      112
     256       17      111      110      112
     257       16       81      113      114
     258       16       81      113      115
     259       17      114      113      115
     260       16       82      116      117
     261       16       82      116      118
     262       17      117      116      118
     263       16       78      119      120
     264       16       78      119      121
     265       17      120      119      121
     266       16       89      122      123
     267       16       89      122      124
     268       17      123      122      124

Dihedrals

       1        1       51        3       48       44
       2        1       51        3       48       56
       3        1        1        4       49        8
       4        1        1        4       49       45