124
Atoms. Timestep: 0
Ni 2.89857 9.41116 8.59265
Ni 6.17525 3.10579 3.48481
O 1.44827 4.35425 3.93374
O 4.4416 8.15245 9.05464
O 4.63665 1.84729 3.87523
O 1.36499 10.6744 9.00295
O 5.80609 4.46033 4.96242
O 2.54244 8.0327 10.0675
O 0.25117 1.69264 4.94273
O 3.23722 10.8047 10.0626
N 3.69677 10.6606 7.2416
N 0.71256 1.8642 2.11704
N 2.17217 8.14409 7.25198
N 5.44023 4.39481 2.13747
C 3.48546 12.1483 5.36301
C 0.47488 0.38955 0.2292
H 5.86971 0.03371 9.69377
C 4.76073 0.1474 5.61481
C 1.74333 12.3699 0.47412
C 5.50345 12.1502 6.68209
C 2.49852 0.35508 1.54004
H 3.49155 12.5067 1.77336
C 2.48363 6.6337 5.40822
C 5.72803 5.90364 0.28669
H 3.13294 6.27291 4.61605
C 2.92756 7.68099 6.23068
C 6.1883 4.86756 1.11596
H 3.89994 8.14655 6.0889
H 0.91589 4.41889 0.97634
C 2.98256 11.1359 6.19748
C -0.01036 1.40553 1.07106
H 1.99392 10.709 6.04703
H 5.26093 1.85011 0.92351
C 4.93641 11.1381 7.47507
C 1.94823 1.3719 2.3406
H 5.48559 10.7097 8.30944
H 2.50886 1.79214 3.17267
C 0.94573 7.62654 7.47302
C 4.21083 4.90458 2.35686
H 0.36328 8.05184 8.28732
H 3.63605 4.47744 3.17528
C 0.43859 6.57577 6.69176
C 3.68763 5.945 1.56944
H 2.69824 6.32683 1.80071
C 1.22745 6.06471 5.65205
C 4.46338 6.45777 0.52027
C 5.3126 1.24381 4.79419
C 2.0502 11.2675 9.92158
C 0.73548 4.94016 4.83586
C 3.73174 7.56629 9.95688
Ni 9.15137 9.41116 8.59265
Ni 12.4281 3.10579 3.48481
O 7.70109 4.35425 3.93374
O 10.6944 8.15245 9.05464
O 10.8895 1.84729 3.87523
O 7.61779 10.6744 9.00295
O 12.0589 4.46033 4.96242
O 8.79524 8.0327 10.0675
O 6.50397 1.69264 4.94273
O 9.49002 10.8047 10.0626
N 9.94957 10.6606 7.2416
N 6.96536 1.8642 2.11704
N 8.42499 8.14409 7.25198
N 11.693 4.39481 2.13747
C 9.73826 12.1483 5.36301
C 6.72768 0.38955 0.2292
H 9.11733 12.5181 4.55267
C 11.0135 0.1474 5.61481
C 7.99613 12.3699 0.47412
C 11.7562 12.1502 6.68209
C 8.75132 0.35508 1.54004
H 6.50047 12.5084 6.91993
C 8.73644 6.6337 5.40822
C 11.9808 5.90364 0.28669
H 9.38574 6.27291 4.61605
C 9.18036 7.68099 6.23068
C 12.4411 4.86756 1.11596
H 10.1527 8.14655 6.0889
H 7.16869 4.41889 0.97634
C 9.23536 11.1359 6.19748
C 6.24244 1.40553 1.07106
H 8.24672 10.709 6.04703
H 11.5137 1.85011 0.92351
C 11.1892 11.1381 7.47507
C 8.20102 1.3719 2.3406
H 11.7384 10.7097 8.30944
H 8.76167 1.79214 3.17267
C 7.19853 7.62654 7.47302
C 10.4636 4.90458 2.35686
H 6.61608 8.05184 8.28732
H 9.88885 4.47744 3.17528
C 6.69139 6.57577 6.69176
C 9.94043 5.945 1.56944
H 8.95104 6.32683 1.80071
C 7.48025 6.06471 5.65205
C 10.7162 6.45777 0.52027
C 11.5654 1.24381 4.79419
C 8.303 11.2675 9.92158
C 6.98827 4.94016 4.83586
C 9.98454 7.56629 9.95688
P 2.40393 0.19897 3.96514
H 1.17457 12.0621 4.36876
H 2.14365 1.49836 4.561
P 11.6551 12.3574 9.11104
H 10.6656 0.89456 9.19039
H -0.01039 0.41469 8.07745
P 11.2485 5.9407 7.09842
H 11.0708 6.62221 8.36889
H 11.7328 4.67112 7.61308
P 6.62749 6.47159 9.19576
H 7.60302 5.3979 9.27127
H 5.79736 5.92001 8.13847
P 0.95991 0.20472 7.11906
H 1.29677 11.6821 8.06905
H 1.5736 12.1399 5.94067
P 10.4589 12.2838 1.96049
H 10.5953 0.41456 3.25033
H 10.0045 10.9879 2.43513
P 4.99571 5.9407 7.09842
H 4.81795 6.62221 8.36889
H 5.47997 4.67112 7.61308
P 0.37151 6.46633 9.19096
H 1.57466 5.76781 9.60889
H 0.6551 7.75041 9.80898
124
Atoms. Timestep: 131
Ni 2.96981 9.47677 8.89105
Ni 6.25956 2.94343 3.55953
O 1.29657 4.31648 3.88032
O 4.46793 8.44186 9.09049
O 4.78409 1.91868 3.70618
O 1.48025 10.5171 9.04094
O 5.83656 4.07066 4.83696
O 2.55369 8.28035 10.2013
O 0.158307 2.14502 4.90491
O 3.37771 10.7047 10.1825
N 3.73372 10.7431 7.47822
N 0.612054 2.05054 2.26179
N 2.19836 8.17888 7.51544
N 5.52154 4.22452 2.24095
C 4.09108 11.5654 5.17784
C 0.353212 0.332235 0.515806
H 6.58141 0.823718 9.18428
C 4.83159 0.160078 5.61459
C 1.73373 12.4705 0.571465
C 5.04893 0.248413 6.99155
C 2.54415 0.764438 1.40178
H 3.61925 0.633402 1.38915
C 2.08555 7.04265 5.32574
C 5.87959 5.83744 0.434866
H 2.46204 6.97964 4.31426
C 2.70157 7.95939 6.24595
C 6.31362 4.75034 1.26669
H 3.65492 8.36785 5.96898
H 1.08673 5.51788 1.84824
C 3.41327 10.7301 6.13252
C 12.3128 1.27 1.46466
H 2.52001 10.2458 5.80153
H 5.58154 2.21036 0.606807
C 4.61543 11.7303 7.88053
C 1.97185 1.82122 2.21257
H 4.97647 11.7376 8.89045
H 2.62545 2.447 2.79019
C 1.13098 7.38385 7.89795
C 4.31666 4.84818 2.49723
H 0.667696 7.55263 8.85446
H 3.77354 4.58017 3.38955
C 0.684863 6.26674 7.10531
C 3.85302 5.97021 1.71725
H 2.97706 6.50123 2.03656
C 1.12236 6.11734 5.76247
C 4.60243 6.4854 0.639247
C 5.46871 1.20093 4.64035
C 2.1266 11.2347 10.0101
C 0.560986 5.00829 4.79774
C 3.80606 7.74457 10.0622
Ni 9.07432 9.43731 8.50574
Ni 12.3217 3.31631 3.60228
O 7.75344 3.96615 3.73124
O 10.5909 8.44797 8.73799
O 10.8094 2.30367 3.69423
O 7.55294 10.4205 8.67175
O 11.8046 4.51457 4.84095
O 8.63998 8.25792 9.78919
O 6.70213 1.73544 4.80871
O 9.47531 10.6234 9.76965
N 9.75687 10.7084 7.0926
N 6.97284 1.73053 2.15283
N 8.44159 8.16081 7.08808
N 11.7185 4.56275 2.14774
C 9.4578 0.295618 5.83662
C 6.74447 0.667529 10.2237
H 8.82367 1.14405 5.66303
C 10.8222 0.390369 5.51157
C 7.84014 12.1539 0.366402
C 11.652 11.911 6.0687
C 8.29738 12.2375 1.70302
H 5.56626 1.11135 7.37549
C 8.91702 6.29056 5.5425
C 12.0071 6.72483 0.973647
H 9.65151 5.73455 4.98229
C 9.34342 7.39758 6.36751
C 0.0373667 5.5591 1.64937
H 10.3974 7.63043 6.41728
H 7.26193 4.27152 1.06339
C 8.93003 11.6794 6.54392
C 6.41626 1.59269 0.900168
H 7.86199 11.6096 6.66644
H 11.2509 1.46173 1.45077
C 11.0954 10.7707 6.76867
C 7.99386 0.86676 2.49184
H 11.7662 10.0114 7.14627
H 8.51874 1.01019 3.41368
C 7.09735 7.91794 6.8787
C 10.3897 4.61474 1.79326
H 6.37006 8.55199 7.36034
H 9.71214 3.8669 2.16406
C 6.6446 6.72312 6.18783
C 9.86275 5.69306 1.00416
H 8.81154 5.88658 1.05145
C 7.55632 5.91384 5.47108
C 10.7092 6.6642 0.419777
C 11.4209 1.62941 4.71211
C 8.23235 11.1247 9.63361
C 7.07305 4.61508 4.71124
C 9.90201 7.77689 9.71793
P 4.07114 11.1042 3.44477
H 5.24974 10.4246 3.09092
H 2.93324 10.3284 3.14632
P 11.7147 0.127856 9.29503
H 10.363 0.412531 9.55979
H 12.0588 1.22456 8.48681
P 12.2565 4.95806 7.90684
H 10.9596 4.84917 7.37403
H 0.450879 3.74291 7.77867
P 6.56109 6.05248 9.23633
H 7.94406 5.89802 9.27659
H 6.3586 4.82631 8.58019
P 0.873435 12.2341 6.21084
H 1.22212 0.792694 7.03761
H 1.3995 12.4227 4.92055
P 9.03031 10.8064 2.50406
H 10.1457 11.1685 3.28323
H 8.0484 10.1549 3.27907
P 4.97683 6.10816 6.46092
H 4.38775 6.62484 7.60271
H 4.90476 4.75945 6.85598
P 0.134027 8.33743 1.44949
H 1.19943 8.3041 2.37222
H 0.1745 9.28985 0.416718
124
Atoms. Timestep: 132
Ni 2.96981 9.47677 8.89105
Ni 6.25956 2.94343 3.55953
O 1.29657 4.31648 3.88032
O 4.46793 8.44186 9.09049
O 4.78409 1.91868 3.70618
O 1.48025 10.5171 9.04094
O 5.83656 4.07066 4.83696
O 2.55369 8.28035 10.2013
O 0.158307 2.14502 4.90491
O 3.37771 10.7047 10.1825
N 3.73372 10.7431 7.47822
N 0.612054 2.05054 2.26179
N 2.19836 8.17888 7.51544
N 5.52154 4.22452 2.24095
C 4.09108 11.5654 5.17784
C 0.353212 0.332235 0.515806
H 6.58141 0.823718 9.18428
C 4.83159 0.160078 5.61459
C 1.73373 12.4705 0.571465
C 5.04893 0.248413 6.99155
C 2.54415 0.764438 1.40178
H 3.61925 0.633402 1.38915
C 2.08555 7.04265 5.32574
C 5.87959 5.83744 0.434866
H 2.46204 6.97964 4.31426
C 2.70157 7.95939 6.24595
C 6.31362 4.75034 1.26669
H 3.65492 8.36785 5.96898
H 1.08673 5.51788 1.84824
C 3.41327 10.7301 6.13252
C 12.3128 1.27 1.46466
H 2.52001 10.2458 5.80153
H 5.58154 2.21036 0.606807
C 4.61543 11.7303 7.88053
C 1.97185 1.82122 2.21257
H 4.97647 11.7376 8.89045
H 2.62545 2.447 2.79019
C 1.13098 7.38385 7.89795
C 4.31666 4.84818 2.49723
H 0.667696 7.55263 8.85446
H 3.77354 4.58017 3.38955
C 0.684863 6.26674 7.10531
C 3.85302 5.97021 1.71725
H 2.97706 6.50123 2.03656
C 1.12236 6.11734 5.76247
C 4.60243 6.4854 0.639247
C 5.46871 1.20093 4.64035
C 2.1266 11.2347 10.0101
C 0.560986 5.00829 4.79774
C 3.80606 7.74457 10.0622
Ni 9.07432 9.43731 8.50574
Ni 12.3217 3.31631 3.60228
O 7.75344 3.96615 3.73124
O 10.5909 8.44797 8.73799
O 10.8094 2.30367 3.69423
O 7.55294 10.4205 8.67175
O 11.8046 4.51457 4.84095
O 8.63998 8.25792 9.78919
O 6.70213 1.73544 4.80871
O 9.47531 10.6234 9.76965
N 9.75687 10.7084 7.0926
N 6.97284 1.73053 2.15283
N 8.44159 8.16081 7.08808
N 11.7185 4.56275 2.14774
C 9.4578 0.295618 5.83662
C 6.74447 0.667529 10.2237
H 8.82367 1.14405 5.66303
C 10.8222 0.390369 5.51157
C 7.84014 12.1539 0.366402
C 11.652 11.911 6.0687
C 8.29738 12.2375 1.70302
H 5.56626 1.11135 7.37549
C 8.91702 6.29056 5.5425
C 12.0071 6.72483 0.973647
H 9.65151 5.73455 4.98229
C 9.34342 7.39758 6.36751
C 0.0373667 5.5591 1.64937
H 10.3974 7.63043 6.41728
H 7.26193 4.27152 1.06339
C 8.93003 11.6794 6.54392
C 6.41626 1.59269 0.900168
H 7.86199 11.6096 6.66644
H 11.2509 1.46173 1.45077
C 11.0954 10.7707 6.76867
C 7.99386 0.86676 2.49184
H 11.7662 10.0114 7.14627
H 8.51874 1.01019 3.41368
C 7.09735 7.91794 6.8787
C 10.3897 4.61474 1.79326
H 6.37006 8.55199 7.36034
H 9.71214 3.8669 2.16406
C 6.6446 6.72312 6.18783
C 9.86275 5.69306 1.00416
H 8.81154 5.88658 1.05145
C 7.55632 5.91384 5.47108
C 10.7092 6.6642 0.419777
C 11.4209 1.62941 4.71211
C 8.23235 11.1247 9.63361
C 7.07305 4.61508 4.71124
C 9.90201 7.77689 9.71793
P 4.07114 11.1042 3.44477
H 5.24974 10.4246 3.09092
H 2.93324 10.3284 3.14632
P 11.7147 0.127856 9.29503
H 10.363 0.412531 9.55979
H 12.0588 1.22456 8.48681
P 12.2565 4.95806 7.90684
H 10.9596 4.84917 7.37403
H 0.450879 3.74291 7.77867
P 6.56109 6.05248 9.23633
H 7.94406 5.89802 9.27659
H 6.3586 4.82631 8.58019
P 0.873435 12.2341 6.21084
H 1.22212 0.792694 7.03761
H 1.3995 12.4227 4.92055
P 9.03031 10.8064 2.50406
H 10.1457 11.1685 3.28323
H 8.0484 10.1549 3.27907
P 4.97683 6.10816 6.46092
H 4.38775 6.62484 7.60271
H 4.90476 4.75945 6.85598
P 0.134027 8.33743 1.44949
H 1.19943 8.3041 2.37222
H 0.1745 9.28985 0.416718
