units           real
atom_style      full
boundary        p p p

pair_style      lj/cut 5.000
bond_style      harmonic
angle_style     hybrid cosine/periodic fourier
dihedral_style  harmonic
improper_style  fourier

dielectric      1.0
special_bonds   lj/coul 0.0 0.0 1.0
pair_modify     tail yes mix arithmetic
box tilt        large
read_data       data.NiPyC2_relax_sc211_ortho_functionalized_CH2-CH3
  triclinic box = (0 0 0) to (12.5056 12.5234 10.2743) with tilt (0 -0.227594 0)
  1 by 1 by 1 MPI processor grid
  reading atoms ...
  156 atoms
  scanning bonds ...
  6 = max bonds/atom
  scanning angles ...
  15 = max angles/atom
  scanning dihedrals ...
  10 = max dihedrals/atom
  scanning impropers ...
  3 = max impropers/atom
  reading bonds ...
  176 bonds
  reading angles ...
  340 angles
  reading dihedrals ...
  376 dihedrals
  reading impropers ...
  168 impropers
  6 = max # of 1-2 neighbors
  9 = max # of 1-3 neighbors
  12 = max # of special neighbors
  special bonds CPU = 0.000211238 secs
  read_data CPU = 0.0269475 secs

#### Atom Groupings ####
group           fram     id   1:156
156 atoms in group fram
#### END Atom Groupings ####

dump            NiPyC2_relax_sc211_ortho_functionalized_CH2-CH3_xyzmov all xyz 20000 NiPyC2_relax_sc211_ortho_functionalized_CH2-CH3_mov.xyz
dump_modify     NiPyC2_relax_sc211_ortho_functionalized_CH2-CH3_xyzmov element Ni O N C H C
min_style       cg
print           "MinStep,CellMinStep,AtomMinStep,FinalStep,Energy,EDiff,vol,lx,ly,lz,xy,xz,yz" file NiPyC2_relax_sc211_ortho_functionalized_CH2-CH3.min.csv screen no
variable        min_eval   equal 1.00e-06
variable        prev_E     equal 50000.00
variable        iter       loop 100000
label           loop_min
min_style       cg
variable        tempstp    equal $(step)
variable        tempstp    equal 0
variable        CellMinStep equal ${tempstp}
variable        CellMinStep equal 0
minimize        1.0e-15 1.0e-15 10000 100000
WARNING: Using 'neigh_modify every 1 delay 0 check yes' setting during minimization (src/min.cpp:190)
Neighbor list info ...
  update every 1 steps, delay 0 steps, check yes
  max neighbors/atom: 2000, page size: 100000
  master list distance cutoff = 7
  ghost atom cutoff = 7
  binsize = 3.5, bins = 4 4 3
  1 neighbor lists, perpetual/occasional/extra = 1 0 0
  (1) pair lj/cut, perpetual
      attributes: half, newton on
      pair build: half/bin/newton/tri
      stencil: half/bin/3d/newton/tri
      bin: standard
WARNING: Inconsistent image flags (src/domain.cpp:785)
WARNING: Bond/angle/dihedral extent > half of periodic box length (src/domain.cpp:906)
Per MPI rank memory allocation (min/avg/max) = 17.54 | 17.54 | 17.54 Mbytes
Step Temp E_pair E_mol TotEng Press 
       0            0     58075077    2232.6074     58077310 9.9002247e+09 
     308            0    160.00274    2004.2367    2164.2394   -51644.672 
WARNING: Bond/angle/dihedral extent > half of periodic box length (src/domain.cpp:906)
Loop time of 0.13164 on 1 procs for 308 steps with 156 atoms

100.0% CPU use with 1 MPI tasks x 1 OpenMP threads

Minimization stats:
  Stopping criterion = linesearch alpha is zero
  Energy initial, next-to-last, final = 
         58077309.6188      2164.23939264      2164.23939264
  Force two-norm initial, final = 4.86798e+08 14.5819
  Force max component initial, final = 1.57624e+08 3.9917
  Final line search alpha, max atom move = 3.80149e-11 1.51744e-10
  Iterations, force evaluations = 308 622

MPI task timing breakdown:
Section |  min time  |  avg time  |  max time  |%varavg| %total
---------------------------------------------------------------
Pair    | 0.072317   | 0.072317   | 0.072317   |   0.0 | 54.94
Bond    | 0.039879   | 0.039879   | 0.039879   |   0.0 | 30.29
Neigh   | 0.012392   | 0.012392   | 0.012392   |   0.0 |  9.41
Comm    | 0.0042027  | 0.0042027  | 0.0042027  |   0.0 |  3.19
Output  | 0          | 0          | 0          |   0.0 |  0.00
Modify  | 0          | 0          | 0          |   0.0 |  0.00
Other   |            | 0.00285    |            |       |  2.16

Nlocal:    156 ave 156 max 156 min
Histogram: 1 0 0 0 0 0 0 0 0 0
Nghost:    1502 ave 1502 max 1502 min
Histogram: 1 0 0 0 0 0 0 0 0 0
Neighs:    10307 ave 10307 max 10307 min
Histogram: 1 0 0 0 0 0 0 0 0 0

Total # of neighbors = 10307
Ave neighs/atom = 66.0705
Ave special neighs/atom = 6.41026
Neighbor list builds = 15
Dangerous builds = 0
variable        AtomMinStep equal ${tempstp}
variable        AtomMinStep equal 0
variable        temppe     equal $(pe)
variable        temppe     equal 2164.2393926370646113
variable        min_E      equal abs(${prev_E}-${temppe})
variable        min_E      equal abs(50000-${temppe})
variable        min_E      equal abs(50000-2164.23939263706)
print           "${iter},${CellMinStep},${AtomMinStep},${AtomMinStep},$(pe),${min_E},$(vol),$(lx),$(ly),$(lz),$(xy),$(xz),$(yz)" append NiPyC2_relax_sc211_ortho_functionalized_CH2-CH3.min.csv screen no
if              "${min_E} < ${min_eval}" then "jump SELF break_min"
variable        prev_E     equal ${temppe}
variable        prev_E     equal 2164.23939263706
next            iter
jump            SELF loop_min
min_style       cg
variable        tempstp    equal $(step)
variable        tempstp    equal 308
variable        CellMinStep equal ${tempstp}
variable        CellMinStep equal 308
minimize        1.0e-15 1.0e-15 10000 100000
WARNING: Using 'neigh_modify every 1 delay 0 check yes' setting during minimization (src/min.cpp:190)
WARNING: Inconsistent image flags (src/domain.cpp:785)
WARNING: Bond/angle/dihedral extent > half of periodic box length (src/domain.cpp:906)
Per MPI rank memory allocation (min/avg/max) = 17.54 | 17.54 | 17.54 Mbytes
Step Temp E_pair E_mol TotEng Press 
     308            0    160.00274    2004.2367    2164.2394   -51644.672 
     337            0    160.54425    2002.7782    2163.3224       -51242 
WARNING: Bond/angle/dihedral extent > half of periodic box length (src/domain.cpp:906)
Loop time of 0.0251199 on 1 procs for 29 steps with 156 atoms

100.0% CPU use with 1 MPI tasks x 1 OpenMP threads

Minimization stats:
  Stopping criterion = linesearch alpha is zero
  Energy initial, next-to-last, final = 
         2164.23939264      2163.32243635      2163.32243635
  Force two-norm initial, final = 14.5819 7.03446
  Force max component initial, final = 3.9917 1.45174
  Final line search alpha, max atom move = 2.36782e-10 3.43746e-10
  Iterations, force evaluations = 29 133

MPI task timing breakdown:
Section |  min time  |  avg time  |  max time  |%varavg| %total
---------------------------------------------------------------
Pair    | 0.015288   | 0.015288   | 0.015288   |   0.0 | 60.86
Bond    | 0.0084453  | 0.0084453  | 0.0084453  |   0.0 | 33.62
Neigh   | 0          | 0          | 0          |   0.0 |  0.00
Comm    | 0.00079476 | 0.00079476 | 0.00079476 |   0.0 |  3.16
Output  | 0          | 0          | 0          |   0.0 |  0.00
Modify  | 0          | 0          | 0          |   0.0 |  0.00
Other   |            | 0.0005915  |            |       |  2.35

Nlocal:    156 ave 156 max 156 min
Histogram: 1 0 0 0 0 0 0 0 0 0
Nghost:    1500 ave 1500 max 1500 min
Histogram: 1 0 0 0 0 0 0 0 0 0
Neighs:    10284 ave 10284 max 10284 min
Histogram: 1 0 0 0 0 0 0 0 0 0

Total # of neighbors = 10284
Ave neighs/atom = 65.9231
Ave special neighs/atom = 6.41026
Neighbor list builds = 0
Dangerous builds = 0
variable        AtomMinStep equal ${tempstp}
variable        AtomMinStep equal 308
variable        temppe     equal $(pe)
variable        temppe     equal 2163.322436353388639
variable        min_E      equal abs(${prev_E}-${temppe})
variable        min_E      equal abs(2164.23939263706-${temppe})
variable        min_E      equal abs(2164.23939263706-2163.32243635339)
print           "${iter},${CellMinStep},${AtomMinStep},${AtomMinStep},$(pe),${min_E},$(vol),$(lx),$(ly),$(lz),$(xy),$(xz),$(yz)" append NiPyC2_relax_sc211_ortho_functionalized_CH2-CH3.min.csv screen no
if              "${min_E} < ${min_eval}" then "jump SELF break_min"
variable        prev_E     equal ${temppe}
variable        prev_E     equal 2163.32243635339
next            iter
jump            SELF loop_min
min_style       cg
variable        tempstp    equal $(step)
variable        tempstp    equal 337
variable        CellMinStep equal ${tempstp}
variable        CellMinStep equal 337
minimize        1.0e-15 1.0e-15 10000 100000
WARNING: Using 'neigh_modify every 1 delay 0 check yes' setting during minimization (src/min.cpp:190)
WARNING: Inconsistent image flags (src/domain.cpp:785)
WARNING: Bond/angle/dihedral extent > half of periodic box length (src/domain.cpp:906)
Per MPI rank memory allocation (min/avg/max) = 17.54 | 17.54 | 17.54 Mbytes
Step Temp E_pair E_mol TotEng Press 
     337            0    160.54425    2002.7782    2163.3224       -51242 
     339            0    160.54959    2002.7666    2163.3162   -51236.169 
WARNING: Bond/angle/dihedral extent > half of periodic box length (src/domain.cpp:906)
Loop time of 0.0116095 on 1 procs for 2 steps with 156 atoms

100.0% CPU use with 1 MPI tasks x 1 OpenMP threads

Minimization stats:
  Stopping criterion = linesearch alpha is zero
  Energy initial, next-to-last, final = 
         2163.32243635      2163.31619173      2163.31619173
  Force two-norm initial, final = 7.03446 3.98761
  Force max component initial, final = 1.45174 0.735013
  Final line search alpha, max atom move = 5.06833e-10 3.72529e-10
  Iterations, force evaluations = 2 62

MPI task timing breakdown:
Section |  min time  |  avg time  |  max time  |%varavg| %total
---------------------------------------------------------------
Pair    | 0.0070129  | 0.0070129  | 0.0070129  |   0.0 | 60.41
Bond    | 0.0039323  | 0.0039323  | 0.0039323  |   0.0 | 33.87
Neigh   | 0          | 0          | 0          |   0.0 |  0.00
Comm    | 0.00036528 | 0.00036528 | 0.00036528 |   0.0 |  3.15
Output  | 0          | 0          | 0          |   0.0 |  0.00
Modify  | 0          | 0          | 0          |   0.0 |  0.00
Other   |            | 0.000299   |            |       |  2.58

Nlocal:    156 ave 156 max 156 min
Histogram: 1 0 0 0 0 0 0 0 0 0
Nghost:    1500 ave 1500 max 1500 min
Histogram: 1 0 0 0 0 0 0 0 0 0
Neighs:    10290 ave 10290 max 10290 min
Histogram: 1 0 0 0 0 0 0 0 0 0

Total # of neighbors = 10290
Ave neighs/atom = 65.9615
Ave special neighs/atom = 6.41026
Neighbor list builds = 0
Dangerous builds = 0
variable        AtomMinStep equal ${tempstp}
variable        AtomMinStep equal 337
variable        temppe     equal $(pe)
variable        temppe     equal 2163.3161917287516189
variable        min_E      equal abs(${prev_E}-${temppe})
variable        min_E      equal abs(2163.32243635339-${temppe})
variable        min_E      equal abs(2163.32243635339-2163.31619172875)
print           "${iter},${CellMinStep},${AtomMinStep},${AtomMinStep},$(pe),${min_E},$(vol),$(lx),$(ly),$(lz),$(xy),$(xz),$(yz)" append NiPyC2_relax_sc211_ortho_functionalized_CH2-CH3.min.csv screen no
if              "${min_E} < ${min_eval}" then "jump SELF break_min"
variable        prev_E     equal ${temppe}
variable        prev_E     equal 2163.31619172875
next            iter
jump            SELF loop_min
min_style       cg
variable        tempstp    equal $(step)
variable        tempstp    equal 339
variable        CellMinStep equal ${tempstp}
variable        CellMinStep equal 339
minimize        1.0e-15 1.0e-15 10000 100000
WARNING: Using 'neigh_modify every 1 delay 0 check yes' setting during minimization (src/min.cpp:190)
WARNING: Inconsistent image flags (src/domain.cpp:785)
WARNING: Bond/angle/dihedral extent > half of periodic box length (src/domain.cpp:906)
Per MPI rank memory allocation (min/avg/max) = 17.54 | 17.54 | 17.54 Mbytes
Step Temp E_pair E_mol TotEng Press 
     339            0    160.54959    2002.7666    2163.3162   -51236.169 
     340            0    160.54959    2002.7666    2163.3162   -51236.169 
WARNING: Bond/angle/dihedral extent > half of periodic box length (src/domain.cpp:906)
Loop time of 0.0105819 on 1 procs for 1 steps with 156 atoms

100.0% CPU use with 1 MPI tasks x 1 OpenMP threads

Minimization stats:
  Stopping criterion = linesearch alpha is zero
  Energy initial, next-to-last, final = 
         2163.31619173      2163.31619173      2163.31619173
  Force two-norm initial, final = 3.98761 3.98761
  Force max component initial, final = 0.735013 0.735013
  Final line search alpha, max atom move = 5.06833e-10 3.72529e-10
  Iterations, force evaluations = 1 57

MPI task timing breakdown:
Section |  min time  |  avg time  |  max time  |%varavg| %total
---------------------------------------------------------------
Pair    | 0.0064006  | 0.0064006  | 0.0064006  |   0.0 | 60.49
Bond    | 0.0035703  | 0.0035703  | 0.0035703  |   0.0 | 33.74
Neigh   | 0          | 0          | 0          |   0.0 |  0.00
Comm    | 0.00032646 | 0.00032646 | 0.00032646 |   0.0 |  3.09
Output  | 0          | 0          | 0          |   0.0 |  0.00
Modify  | 0          | 0          | 0          |   0.0 |  0.00
Other   |            | 0.0002845  |            |       |  2.69

Nlocal:    156 ave 156 max 156 min
Histogram: 1 0 0 0 0 0 0 0 0 0
Nghost:    1500 ave 1500 max 1500 min
Histogram: 1 0 0 0 0 0 0 0 0 0
Neighs:    10290 ave 10290 max 10290 min
Histogram: 1 0 0 0 0 0 0 0 0 0

Total # of neighbors = 10290
Ave neighs/atom = 65.9615
Ave special neighs/atom = 6.41026
Neighbor list builds = 0
Dangerous builds = 0
variable        AtomMinStep equal ${tempstp}
variable        AtomMinStep equal 339
variable        temppe     equal $(pe)
variable        temppe     equal 2163.3161917287507094
variable        min_E      equal abs(${prev_E}-${temppe})
variable        min_E      equal abs(2163.31619172875-${temppe})
variable        min_E      equal abs(2163.31619172875-2163.31619172875)
print           "${iter},${CellMinStep},${AtomMinStep},${AtomMinStep},$(pe),${min_E},$(vol),$(lx),$(ly),$(lz),$(xy),$(xz),$(yz)" append NiPyC2_relax_sc211_ortho_functionalized_CH2-CH3.min.csv screen no
if              "${min_E} < ${min_eval}" then "jump SELF break_min"
jump SELF break_min
undump          NiPyC2_relax_sc211_ortho_functionalized_CH2-CH3_xyzmov

# Dump last snapshot for restart
variable curr_lx equal lx
variable curr_ly equal ly
variable curr_lz equal lz
change_box all x final 0 ${curr_lx} y final 0 ${curr_ly} z final 0 ${curr_lz}
change_box all x final 0 12.5056 y final 0 ${curr_ly} z final 0 ${curr_lz}
change_box all x final 0 12.5056 y final 0 12.5234 z final 0 ${curr_lz}
change_box all x final 0 12.5056 y final 0 12.5234 z final 0 10.274279
  triclinic box = (0 0 0) to (12.5056 12.5234 10.2743) with tilt (0 -0.227594 0)
  triclinic box = (0 0 0) to (12.5056 12.5234 10.2743) with tilt (0 -0.227594 0)
  triclinic box = (0 0 0) to (12.5056 12.5234 10.2743) with tilt (0 -0.227594 0)

reset_timestep 0
dump            NiPyC2_relax_sc211_ortho_functionalized_CH2-CH3_restart all atom 1 NiPyC2_relax_sc211_ortho_functionalized_CH2-CH3_restart.lammpstrj
dump_modify     NiPyC2_relax_sc211_ortho_functionalized_CH2-CH3_restart scale no sort id
run 0
WARNING: No fixes defined, atoms won't move (src/verlet.cpp:52)
WARNING: Inconsistent image flags (src/domain.cpp:785)
WARNING: Bond/angle/dihedral extent > half of periodic box length (src/domain.cpp:906)
Per MPI rank memory allocation (min/avg/max) = 16.41 | 16.41 | 16.41 Mbytes
Step Temp E_pair E_mol TotEng Press 
       0            0    160.54959    2002.7666    2163.3162   -51236.169 
WARNING: Bond/angle/dihedral extent > half of periodic box length (src/domain.cpp:906)
Loop time of 7.82999e-07 on 1 procs for 0 steps with 156 atoms

255.4% CPU use with 1 MPI tasks x 1 OpenMP threads

MPI task timing breakdown:
Section |  min time  |  avg time  |  max time  |%varavg| %total
---------------------------------------------------------------
Pair    | 0          | 0          | 0          |   0.0 |  0.00
Bond    | 0          | 0          | 0          |   0.0 |  0.00
Neigh   | 0          | 0          | 0          |   0.0 |  0.00
Comm    | 0          | 0          | 0          |   0.0 |  0.00
Output  | 0          | 0          | 0          |   0.0 |  0.00
Modify  | 0          | 0          | 0          |   0.0 |  0.00
Other   |            | 7.83e-07   |            |       |100.00

Nlocal:    156 ave 156 max 156 min
Histogram: 1 0 0 0 0 0 0 0 0 0
Nghost:    1500 ave 1500 max 1500 min
Histogram: 1 0 0 0 0 0 0 0 0 0
Neighs:    10290 ave 10290 max 10290 min
Histogram: 1 0 0 0 0 0 0 0 0 0

Total # of neighbors = 10290
Ave neighs/atom = 65.9615
Ave special neighs/atom = 6.41026
Neighbor list builds = 0
Dangerous builds = 0
undump          NiPyC2_relax_sc211_ortho_functionalized_CH2-CH3_restart
Total wall time: 0:00:00
units           real
atom_style      full
boundary        p p p

pair_style      lj/cut 5.000
bond_style      harmonic
angle_style     hybrid fourier cosine/periodic
dihedral_style  harmonic
improper_style  fourier

pair_modify     tail yes mix arithmetic
special_bonds   lj/coul 0.0 0.0 1.0
dielectric      1.0
box tilt        large
read_data       data.NiPyC2_relax_sc211_ortho_functionalized_CH2-CH3
  triclinic box = (0 0 0) to (12.5056 12.5234 10.2743) with tilt (0 -0.227594 0)
  1 by 1 by 1 MPI processor grid
  reading atoms ...
  156 atoms
  scanning bonds ...
  6 = max bonds/atom
  scanning angles ...
  15 = max angles/atom
  scanning dihedrals ...
  10 = max dihedrals/atom
  scanning impropers ...
  3 = max impropers/atom
  reading bonds ...
  176 bonds
  reading angles ...
  340 angles
  reading dihedrals ...
  376 dihedrals
  reading impropers ...
  168 impropers
  6 = max # of 1-2 neighbors
  9 = max # of 1-3 neighbors
  12 = max # of special neighbors
  special bonds CPU = 0.000141994 secs
  read_data CPU = 0.00506643 secs

#### Atom Groupings ####
group           fram     id   1:156
156 atoms in group fram
#### END Atom Groupings ####

dump            NiPyC2_relax_sc211_ortho_functionalized_CH2-CH3_xyzmov all xyz 20000 NiPyC2_relax_sc211_ortho_functionalized_CH2-CH3_mov.xyz
dump_modify     NiPyC2_relax_sc211_ortho_functionalized_CH2-CH3_xyzmov element Ni O N C H C
min_style       cg
print           "MinStep,CellMinStep,AtomMinStep,FinalStep,Energy,EDiff,vol,lx,ly,lz,xy,xz,yz" file NiPyC2_relax_sc211_ortho_functionalized_CH2-CH3.min.csv screen no
variable        min_eval   equal 1.00e-06
variable        prev_E     equal 50000.00
variable        iter       loop 100000
label           loop_min
min_style       cg
variable        tempstp    equal $(step)
variable        tempstp    equal 0
variable        CellMinStep equal ${tempstp}
variable        CellMinStep equal 0
minimize        1.0e-15 1.0e-15 10000 100000
WARNING: Using 'neigh_modify every 1 delay 0 check yes' setting during minimization (src/min.cpp:190)
Neighbor list info ...
  update every 1 steps, delay 0 steps, check yes
  max neighbors/atom: 2000, page size: 100000
  master list distance cutoff = 7
  ghost atom cutoff = 7
  binsize = 3.5, bins = 4 4 3
  1 neighbor lists, perpetual/occasional/extra = 1 0 0
  (1) pair lj/cut, perpetual
      attributes: half, newton on
      pair build: half/bin/newton/tri
      stencil: half/bin/3d/newton/tri
      bin: standard
WARNING: Inconsistent image flags (src/domain.cpp:785)
WARNING: Bond/angle/dihedral extent > half of periodic box length (src/domain.cpp:906)
Per MPI rank memory allocation (min/avg/max) = 17.54 | 17.54 | 17.54 Mbytes
Step Temp E_pair E_mol TotEng Press 
       0            0     58075077    2232.6074     58077310 9.9002247e+09 
     308            0    160.00274    2004.2367    2164.2394   -51644.673 
WARNING: Bond/angle/dihedral extent > half of periodic box length (src/domain.cpp:906)
Loop time of 0.134241 on 1 procs for 308 steps with 156 atoms

100.0% CPU use with 1 MPI tasks x 1 OpenMP threads

Minimization stats:
  Stopping criterion = linesearch alpha is zero
  Energy initial, next-to-last, final = 
         58077309.6188      2164.23939072      2164.23939072
  Force two-norm initial, final = 4.86798e+08 14.5819
  Force max component initial, final = 1.57624e+08 3.99168
  Final line search alpha, max atom move = 3.80149e-11 1.51743e-10
  Iterations, force evaluations = 308 622

MPI task timing breakdown:
Section |  min time  |  avg time  |  max time  |%varavg| %total
---------------------------------------------------------------
Pair    | 0.073478   | 0.073478   | 0.073478   |   0.0 | 54.74
Bond    | 0.040728   | 0.040728   | 0.040728   |   0.0 | 30.34
Neigh   | 0.012659   | 0.012659   | 0.012659   |   0.0 |  9.43
Comm    | 0.0043686  | 0.0043686  | 0.0043686  |   0.0 |  3.25
Output  | 0          | 0          | 0          |   0.0 |  0.00
Modify  | 0          | 0          | 0          |   0.0 |  0.00
Other   |            | 0.003008   |            |       |  2.24

Nlocal:    156 ave 156 max 156 min
Histogram: 1 0 0 0 0 0 0 0 0 0
Nghost:    1502 ave 1502 max 1502 min
Histogram: 1 0 0 0 0 0 0 0 0 0
Neighs:    10307 ave 10307 max 10307 min
Histogram: 1 0 0 0 0 0 0 0 0 0

Total # of neighbors = 10307
Ave neighs/atom = 66.0705
Ave special neighs/atom = 6.41026
Neighbor list builds = 15
Dangerous builds = 0
variable        AtomMinStep equal ${tempstp}
variable        AtomMinStep equal 0
variable        temppe     equal $(pe)
variable        temppe     equal 2164.2393907183723059
variable        min_E      equal abs(${prev_E}-${temppe})
variable        min_E      equal abs(50000-${temppe})
variable        min_E      equal abs(50000-2164.23939071837)
print           "${iter},${CellMinStep},${AtomMinStep},${AtomMinStep},$(pe),${min_E},$(vol),$(lx),$(ly),$(lz),$(xy),$(xz),$(yz)" append NiPyC2_relax_sc211_ortho_functionalized_CH2-CH3.min.csv screen no
if              "${min_E} < ${min_eval}" then "jump SELF break_min"
variable        prev_E     equal ${temppe}
variable        prev_E     equal 2164.23939071837
next            iter
jump            SELF loop_min
min_style       cg
variable        tempstp    equal $(step)
variable        tempstp    equal 308
variable        CellMinStep equal ${tempstp}
variable        CellMinStep equal 308
minimize        1.0e-15 1.0e-15 10000 100000
WARNING: Using 'neigh_modify every 1 delay 0 check yes' setting during minimization (src/min.cpp:190)
WARNING: Inconsistent image flags (src/domain.cpp:785)
WARNING: Bond/angle/dihedral extent > half of periodic box length (src/domain.cpp:906)
Per MPI rank memory allocation (min/avg/max) = 17.54 | 17.54 | 17.54 Mbytes
Step Temp E_pair E_mol TotEng Press 
     308            0    160.00274    2004.2367    2164.2394   -51644.673 
     337            0    160.54425    2002.7782    2163.3224   -51242.001 
WARNING: Bond/angle/dihedral extent > half of periodic box length (src/domain.cpp:906)
Loop time of 0.0255605 on 1 procs for 29 steps with 156 atoms

100.0% CPU use with 1 MPI tasks x 1 OpenMP threads

Minimization stats:
  Stopping criterion = linesearch alpha is zero
  Energy initial, next-to-last, final = 
         2164.23939072      2163.32243369      2163.32243369
  Force two-norm initial, final = 14.5819 7.03449
  Force max component initial, final = 3.99168 1.45176
  Final line search alpha, max atom move = 2.36781e-10 3.43748e-10
  Iterations, force evaluations = 29 133

MPI task timing breakdown:
Section |  min time  |  avg time  |  max time  |%varavg| %total
---------------------------------------------------------------
Pair    | 0.015423   | 0.015423   | 0.015423   |   0.0 | 60.34
Bond    | 0.0086393  | 0.0086393  | 0.0086393  |   0.0 | 33.80
Neigh   | 0          | 0          | 0          |   0.0 |  0.00
Comm    | 0.00085829 | 0.00085829 | 0.00085829 |   0.0 |  3.36
Output  | 0          | 0          | 0          |   0.0 |  0.00
Modify  | 0          | 0          | 0          |   0.0 |  0.00
Other   |            | 0.0006398  |            |       |  2.50

Nlocal:    156 ave 156 max 156 min
Histogram: 1 0 0 0 0 0 0 0 0 0
Nghost:    1500 ave 1500 max 1500 min
Histogram: 1 0 0 0 0 0 0 0 0 0
Neighs:    10284 ave 10284 max 10284 min
Histogram: 1 0 0 0 0 0 0 0 0 0

Total # of neighbors = 10284
Ave neighs/atom = 65.9231
Ave special neighs/atom = 6.41026
Neighbor list builds = 0
Dangerous builds = 0
variable        AtomMinStep equal ${tempstp}
variable        AtomMinStep equal 308
variable        temppe     equal $(pe)
variable        temppe     equal 2163.3224336858465904
variable        min_E      equal abs(${prev_E}-${temppe})
variable        min_E      equal abs(2164.23939071837-${temppe})
variable        min_E      equal abs(2164.23939071837-2163.32243368585)
print           "${iter},${CellMinStep},${AtomMinStep},${AtomMinStep},$(pe),${min_E},$(vol),$(lx),$(ly),$(lz),$(xy),$(xz),$(yz)" append NiPyC2_relax_sc211_ortho_functionalized_CH2-CH3.min.csv screen no
if              "${min_E} < ${min_eval}" then "jump SELF break_min"
variable        prev_E     equal ${temppe}
variable        prev_E     equal 2163.32243368585
next            iter
jump            SELF loop_min
min_style       cg
variable        tempstp    equal $(step)
variable        tempstp    equal 337
variable        CellMinStep equal ${tempstp}
variable        CellMinStep equal 337
minimize        1.0e-15 1.0e-15 10000 100000
WARNING: Using 'neigh_modify every 1 delay 0 check yes' setting during minimization (src/min.cpp:190)
WARNING: Inconsistent image flags (src/domain.cpp:785)
WARNING: Bond/angle/dihedral extent > half of periodic box length (src/domain.cpp:906)
Per MPI rank memory allocation (min/avg/max) = 17.54 | 17.54 | 17.54 Mbytes
Step Temp E_pair E_mol TotEng Press 
     337            0    160.54425    2002.7782    2163.3224   -51242.001 
     339            0    160.54959    2002.7666    2163.3162    -51236.17 
WARNING: Bond/angle/dihedral extent > half of periodic box length (src/domain.cpp:906)
Loop time of 0.0120535 on 1 procs for 2 steps with 156 atoms

100.0% CPU use with 1 MPI tasks x 1 OpenMP threads

Minimization stats:
  Stopping criterion = linesearch alpha is zero
  Energy initial, next-to-last, final = 
         2163.32243369      2163.31618902      2163.31618902
  Force two-norm initial, final = 7.03449 3.98761
  Force max component initial, final = 1.45176 0.735015
  Final line search alpha, max atom move = 5.06832e-10 3.72529e-10
  Iterations, force evaluations = 2 62

MPI task timing breakdown:
Section |  min time  |  avg time  |  max time  |%varavg| %total
---------------------------------------------------------------
Pair    | 0.0072989  | 0.0072989  | 0.0072989  |   0.0 | 60.55
Bond    | 0.0040464  | 0.0040464  | 0.0040464  |   0.0 | 33.57
Neigh   | 0          | 0          | 0          |   0.0 |  0.00
Comm    | 0.00036753 | 0.00036753 | 0.00036753 |   0.0 |  3.05
Output  | 0          | 0          | 0          |   0.0 |  0.00
Modify  | 0          | 0          | 0          |   0.0 |  0.00
Other   |            | 0.0003407  |            |       |  2.83

Nlocal:    156 ave 156 max 156 min
Histogram: 1 0 0 0 0 0 0 0 0 0
Nghost:    1500 ave 1500 max 1500 min
Histogram: 1 0 0 0 0 0 0 0 0 0
Neighs:    10290 ave 10290 max 10290 min
Histogram: 1 0 0 0 0 0 0 0 0 0

Total # of neighbors = 10290
Ave neighs/atom = 65.9615
Ave special neighs/atom = 6.41026
Neighbor list builds = 0
Dangerous builds = 0
variable        AtomMinStep equal ${tempstp}
variable        AtomMinStep equal 337
variable        temppe     equal $(pe)
variable        temppe     equal 2163.3161890226760988
variable        min_E      equal abs(${prev_E}-${temppe})
variable        min_E      equal abs(2163.32243368585-${temppe})
variable        min_E      equal abs(2163.32243368585-2163.31618902268)
print           "${iter},${CellMinStep},${AtomMinStep},${AtomMinStep},$(pe),${min_E},$(vol),$(lx),$(ly),$(lz),$(xy),$(xz),$(yz)" append NiPyC2_relax_sc211_ortho_functionalized_CH2-CH3.min.csv screen no
if              "${min_E} < ${min_eval}" then "jump SELF break_min"
variable        prev_E     equal ${temppe}
variable        prev_E     equal 2163.31618902268
next            iter
jump            SELF loop_min
min_style       cg
variable        tempstp    equal $(step)
variable        tempstp    equal 339
variable        CellMinStep equal ${tempstp}
variable        CellMinStep equal 339
minimize        1.0e-15 1.0e-15 10000 100000
WARNING: Using 'neigh_modify every 1 delay 0 check yes' setting during minimization (src/min.cpp:190)
WARNING: Inconsistent image flags (src/domain.cpp:785)
WARNING: Bond/angle/dihedral extent > half of periodic box length (src/domain.cpp:906)
Per MPI rank memory allocation (min/avg/max) = 17.54 | 17.54 | 17.54 Mbytes
Step Temp E_pair E_mol TotEng Press 
     339            0    160.54959    2002.7666    2163.3162    -51236.17 
     340            0    160.54959    2002.7666    2163.3162    -51236.17 
WARNING: Bond/angle/dihedral extent > half of periodic box length (src/domain.cpp:906)
Loop time of 0.0118078 on 1 procs for 1 steps with 156 atoms

100.0% CPU use with 1 MPI tasks x 1 OpenMP threads

Minimization stats:
  Stopping criterion = linesearch alpha is zero
  Energy initial, next-to-last, final = 
         2163.31618902      2163.31618902      2163.31618902
  Force two-norm initial, final = 3.98761 3.98761
  Force max component initial, final = 0.735015 0.735015
  Final line search alpha, max atom move = 5.06832e-10 3.72529e-10
  Iterations, force evaluations = 1 57

MPI task timing breakdown:
Section |  min time  |  avg time  |  max time  |%varavg| %total
---------------------------------------------------------------
Pair    | 0.0071367  | 0.0071367  | 0.0071367  |   0.0 | 60.44
Bond    | 0.0039376  | 0.0039376  | 0.0039376  |   0.0 | 33.35
Neigh   | 0          | 0          | 0          |   0.0 |  0.00
Comm    | 0.00038689 | 0.00038689 | 0.00038689 |   0.0 |  3.28
Output  | 0          | 0          | 0          |   0.0 |  0.00
Modify  | 0          | 0          | 0          |   0.0 |  0.00
Other   |            | 0.0003465  |            |       |  2.93

Nlocal:    156 ave 156 max 156 min
Histogram: 1 0 0 0 0 0 0 0 0 0
Nghost:    1500 ave 1500 max 1500 min
Histogram: 1 0 0 0 0 0 0 0 0 0
Neighs:    10290 ave 10290 max 10290 min
Histogram: 1 0 0 0 0 0 0 0 0 0

Total # of neighbors = 10290
Ave neighs/atom = 65.9615
Ave special neighs/atom = 6.41026
Neighbor list builds = 0
Dangerous builds = 0
variable        AtomMinStep equal ${tempstp}
variable        AtomMinStep equal 339
variable        temppe     equal $(pe)
variable        temppe     equal 2163.3161890226779178
variable        min_E      equal abs(${prev_E}-${temppe})
variable        min_E      equal abs(2163.31618902268-${temppe})
variable        min_E      equal abs(2163.31618902268-2163.31618902268)
print           "${iter},${CellMinStep},${AtomMinStep},${AtomMinStep},$(pe),${min_E},$(vol),$(lx),$(ly),$(lz),$(xy),$(xz),$(yz)" append NiPyC2_relax_sc211_ortho_functionalized_CH2-CH3.min.csv screen no
if              "${min_E} < ${min_eval}" then "jump SELF break_min"
jump SELF break_min
undump          NiPyC2_relax_sc211_ortho_functionalized_CH2-CH3_xyzmov

# Dump last snapshot for restart
variable curr_lx equal lx
variable curr_ly equal ly
variable curr_lz equal lz
change_box all x final 0 ${curr_lx} y final 0 ${curr_ly} z final 0 ${curr_lz}
change_box all x final 0 12.5056 y final 0 ${curr_ly} z final 0 ${curr_lz}
change_box all x final 0 12.5056 y final 0 12.5234 z final 0 ${curr_lz}
change_box all x final 0 12.5056 y final 0 12.5234 z final 0 10.274279
  triclinic box = (0 0 0) to (12.5056 12.5234 10.2743) with tilt (0 -0.227594 0)
  triclinic box = (0 0 0) to (12.5056 12.5234 10.2743) with tilt (0 -0.227594 0)
  triclinic box = (0 0 0) to (12.5056 12.5234 10.2743) with tilt (0 -0.227594 0)

reset_timestep 0
dump            NiPyC2_relax_sc211_ortho_functionalized_CH2-CH3_restart all atom 1 NiPyC2_relax_sc211_ortho_functionalized_CH2-CH3_restart.lammpstrj
dump_modify     NiPyC2_relax_sc211_ortho_functionalized_CH2-CH3_restart scale no sort id
run 0
WARNING: No fixes defined, atoms won't move (src/verlet.cpp:52)
WARNING: Inconsistent image flags (src/domain.cpp:785)
WARNING: Bond/angle/dihedral extent > half of periodic box length (src/domain.cpp:906)
Per MPI rank memory allocation (min/avg/max) = 16.41 | 16.41 | 16.41 Mbytes
Step Temp E_pair E_mol TotEng Press 
       0            0    160.54959    2002.7666    2163.3162    -51236.17 
WARNING: Bond/angle/dihedral extent > half of periodic box length (src/domain.cpp:906)
Loop time of 7.54997e-07 on 1 procs for 0 steps with 156 atoms

264.9% CPU use with 1 MPI tasks x 1 OpenMP threads

MPI task timing breakdown:
Section |  min time  |  avg time  |  max time  |%varavg| %total
---------------------------------------------------------------
Pair    | 0          | 0          | 0          |   0.0 |  0.00
Bond    | 0          | 0          | 0          |   0.0 |  0.00
Neigh   | 0          | 0          | 0          |   0.0 |  0.00
Comm    | 0          | 0          | 0          |   0.0 |  0.00
Output  | 0          | 0          | 0          |   0.0 |  0.00
Modify  | 0          | 0          | 0          |   0.0 |  0.00
Other   |            | 7.55e-07   |            |       |100.00

Nlocal:    156 ave 156 max 156 min
Histogram: 1 0 0 0 0 0 0 0 0 0
Nghost:    1500 ave 1500 max 1500 min
Histogram: 1 0 0 0 0 0 0 0 0 0
Neighs:    10290 ave 10290 max 10290 min
Histogram: 1 0 0 0 0 0 0 0 0 0

Total # of neighbors = 10290
Ave neighs/atom = 65.9615
Ave special neighs/atom = 6.41026
Neighbor list builds = 0
Dangerous builds = 0
undump          NiPyC2_relax_sc211_ortho_functionalized_CH2-CH3_restart
Total wall time: 0:00:00
