156
Atoms. Timestep: 0
Ni 2.89857 9.41116 8.59265
Ni 6.17525 3.10579 3.48481
O 1.44827 4.35425 3.93374
O 4.4416 8.15245 9.05464
O 4.63665 1.84729 3.87523
O 1.36499 10.6744 9.00295
O 5.80609 4.46033 4.96242
O 2.54244 8.0327 10.0675
O 0.25117 1.69264 4.94273
O 3.23722 10.8047 10.0626
N 3.69677 10.6606 7.2416
N 0.71256 1.8642 2.11704
N 2.17217 8.14409 7.25198
N 5.44023 4.39481 2.13747
C 3.48546 12.1483 5.36301
C 0.47488 0.38955 0.2292
H 2.86453 12.5181 4.55267
C 4.76073 0.1474 5.61481
C 1.74333 12.3699 0.47412
C 5.50345 12.1502 6.68209
C 2.49852 0.35508 1.54004
H 3.49155 12.5067 1.77336
C 2.48363 6.6337 5.40822
C 5.72803 5.90364 0.28669
C 2.92756 7.68099 6.23068
C 6.1883 4.86756 1.11596
H 3.89994 8.14655 6.0889
H 0.91589 4.41889 0.97634
C 2.98256 11.1359 6.19748
C -0.01036 1.40553 1.07106
H 1.99392 10.709 6.04703
H 5.26093 1.85011 0.92351
C 4.93641 11.1381 7.47507
C 1.94823 1.3719 2.3406
H 5.48559 10.7097 8.30944
H 2.50886 1.79214 3.17267
C 0.94573 7.62654 7.47302
C 4.21083 4.90458 2.35686
H 0.36328 8.05184 8.28732
H 3.63605 4.47744 3.17528
C 0.43859 6.57577 6.69176
C 3.68763 5.945 1.56944
H 2.69824 6.32683 1.80071
C 1.22745 6.06471 5.65205
C 4.46338 6.45777 0.52027
C 5.3126 1.24381 4.79419
C 2.0502 11.2675 9.92158
C 0.73548 4.94016 4.83586
C 3.73174 7.56629 9.95688
Ni 9.15137 9.41116 8.59265
Ni 12.4281 3.10579 3.48481
O 7.70109 4.35425 3.93374
O 10.6944 8.15245 9.05464
O 10.8895 1.84729 3.87523
O 7.61779 10.6744 9.00295
O 12.0589 4.46033 4.96242
O 8.79524 8.0327 10.0675
O 6.50397 1.69264 4.94273
O 9.49002 10.8047 10.0626
N 9.94957 10.6606 7.2416
N 6.96536 1.8642 2.11704
N 8.42499 8.14409 7.25198
N 11.693 4.39481 2.13747
C 9.73826 12.1483 5.36301
C 6.72768 0.38955 0.2292
H 9.11733 12.5181 4.55267
C 11.0135 0.1474 5.61481
C 7.99613 12.3699 0.47412
C 11.7562 12.1502 6.68209
C 8.75132 0.35508 1.54004
H 9.74435 12.5067 1.77336
C 8.73644 6.6337 5.40822
C 11.9808 5.90364 0.28669
H 9.38574 6.27291 4.61605
C 9.18036 7.68099 6.23068
C 12.4411 4.86756 1.11596
H 10.1527 8.14655 6.0889
H 7.16869 4.41889 0.97634
C 9.23536 11.1359 6.19748
C 6.24244 1.40553 1.07106
H 8.24672 10.709 6.04703
H 11.5137 1.85011 0.92351
C 11.1892 11.1381 7.47507
C 8.20102 1.3719 2.3406
H 11.7384 10.7097 8.30944
H 8.76167 1.79214 3.17267
C 7.19853 7.62654 7.47302
C 10.4636 4.90458 2.35686
H 6.61608 8.05184 8.28732
H 9.88885 4.47744 3.17528
C 6.69139 6.57577 6.69176
C 9.94043 5.945 1.56944
H 11.9605 6.17693 6.91975
H 8.95104 6.32683 1.80071
C 7.48025 6.06471 5.65205
C 10.7162 6.45777 0.52027
C 11.5654 1.24381 4.79419
C 8.303 11.2675 9.92158
C 6.98827 4.94016 4.83586
C 9.98454 7.56629 9.95688
C 6.9192 0.14363 6.99516
C 7.64093 12.028 8.1843
H 6.85525 1.233 7.20481
H 7.55838 12.4984 6.10197
H 7.07365 12.2005 9.12362
H 8.64467 12.4896 8.29763
H 7.779 10.9385 8.01729
C 11.8876 12.414 9.33006
C 10.5182 0.55098 9.15155
H 11.7053 11.3265 9.46783
H -0.05541 0.05534 8.38605
H 9.88442 0.3836 10.0483
H 10.0034 0.10113 8.27631
H 10.6317 1.6398 8.9631
C 3.37658 6.12948 4.25918
C 4.7302 6.82192 4.08154
H 2.82242 6.25578 3.30433
H 3.58594 5.05105 4.42631
H 4.5903 7.90233 3.86457
H 5.26839 6.3647 3.22436
H 5.35626 6.69377 4.99013
C 6.39084 6.41385 9.41001
C 7.75505 5.74028 9.24105
H 5.84162 6.27315 8.45431
H 6.58379 7.49632 9.57066
H 7.63176 4.65653 9.03078
H 8.28916 6.19975 8.38252
H 8.37631 5.88358 10.1507
C 0.6664 0.14363 6.99516
C 1.38813 12.028 8.1843
H 0.60245 1.233 7.20481
H 1.30558 12.4984 6.10197
H 0.82085 12.2005 9.12362
H 2.39187 12.4896 8.29763
H 1.5262 10.9385 8.01729
C 5.63482 12.414 9.33007
C 4.26545 0.55104 9.1515
H 6.19742 0.0553 8.38606
H 5.45243 11.3265 9.46785
H 4.37898 1.63985 8.96302
H 3.75061 0.10119 8.27626
H 3.63161 0.3837 10.0483
C 5.29232 6.00627 6.98457
C 4.51779 6.63933 8.1433
H 4.66711 6.12894 6.07416
H 5.39678 4.92523 7.21951
H 4.3383 7.71826 7.94934
H 3.53182 6.13832 8.24487
H 5.07029 6.51073 9.09836
C 0.13806 6.41386 9.41001
C 1.50227 5.74029 9.24107
H 12.0944 6.27316 8.45432
H 0.331 7.49632 9.57068
H 1.37897 4.65654 9.03079
H 2.03637 6.19976 8.38254
H 2.12351 5.88359 10.1507
156
Atoms. Timestep: 425
Ni 3.14039 9.45146 9.01398
Ni 6.44659 2.81249 3.53145
O 1.57768 4.59434 3.61544
O 4.62486 8.49612 9.2672
O 4.89824 1.88261 3.73092
O 1.61589 10.4338 9.14875
O 6.08551 3.96262 4.77328
O 2.67047 8.22388 10.2802
O 0.306391 2.46305 4.61194
O 3.69372 10.6774 0.0596222
N 3.92272 10.7075 7.61888
N 0.854241 2.32995 2.05085
N 2.52182 8.19892 7.57443
N 5.78902 4.15744 2.1785
C 4.22491 11.5463 5.30404
C 0.51695 0.559897 0.369955
H 4.01952 11.4181 4.24914
C 4.89158 0.183415 5.74427
C 1.81065 12.4651 0.634134
C 5.07799 0.299867 7.15475
C 2.54604 0.558766 1.67173
H 3.4973 0.13609 1.96962
C 2.85541 6.85901 5.51272
C 6.1364 6.3029 1.05674
C 3.36291 7.66237 6.61827
C 6.53316 5.29255 1.96706
H 4.39992 7.96601 6.61102
H 0.81743 4.30867 0.331527
C 3.69416 10.5929 6.2452
C 0.118829 1.78476 1.04854
H 2.92117 9.94535 5.87965
H 6.82748 12.2877 3.23974
C 4.79519 11.6955 8.00963
C 2.01566 1.67781 2.41385
H 5.22519 11.6578 8.99677
H 2.51522 1.9817 3.3174
C 1.18832 7.92102 7.47058
C 4.47707 4.19544 1.738
H 0.536479 8.27623 8.24022
H 3.84008 3.35875 1.91918
C 0.654779 7.14675 6.38415
C 3.92793 5.36697 1.06371
H 2.87855 5.38991 0.813402
C 1.48905 6.43504 5.51005
C 4.75672 6.47031 0.708713
C 5.54175 1.19503 4.72989
C 2.20169 11.1629 10.1462
C 0.877807 5.33665 4.52004
C 3.95176 7.76355 10.2055
Ni 9.24718 9.57373 8.07115
Ni 0.0546585 3.64001 3.32675
O 8.02278 3.73493 3.72577
O 10.7795 8.61895 8.23074
O 10.9927 2.67175 3.37015
O 7.71163 10.5347 8.27001
O 12.0983 4.87198 4.57204
O 8.90982 8.41916 9.38192
O 6.82438 1.60653 4.80541
O 9.64827 10.7728 9.30994
N 9.91652 10.85 6.61196
N 7.06685 1.5387 2.08596
N 8.53948 8.2444 6.74386
N 11.9973 4.9251 1.88045
C 9.60207 0.231712 5.02769
C 7.41329 11.7509 1.23088
H 8.95275 0.737111 4.33848
C 10.9649 0.632418 5.09347
C 7.96618 12.2244 0.0109346
C 11.7916 12.3469 5.89849
C 7.82309 1.10848 10.1436
H 8.21771 1.52382 9.23012
C 9.08387 6.33827 5.28409
C 11.6818 5.82161 9.86118
H 9.89539 5.71481 4.98749
C 9.37953 7.63964 5.83646
C 12.519 4.97319 0.606307
H 10.3136 8.11616 5.5875
H 7.55466 5.32964 2.28646
C 9.08 11.6529 5.84629
C 7.04243 0.161457 2.27291
H 8.01597 11.4583 5.8436
H 11.6457 2.19726 0.875714
C 11.2736 11.1303 6.54272
C 7.60211 2.00359 0.906751
H 11.9463 10.4964 7.09039
H 7.72402 3.06314 0.763135
C 7.30358 7.64278 6.96742
C 11.0117 5.84315 2.17798
H 6.59374 8.15204 7.59199
H 10.3654 5.66089 2.99837
C 6.97798 6.32664 6.4164
C 10.7288 6.96082 1.33409
H 12.1024 7.08045 6.25523
H 10.0828 7.74643 1.70215
C 7.81195 5.75192 5.43685
C 10.8637 6.9385 10.2522
C 11.5587 1.96499 4.38956
C 8.388 11.2503 9.21962
C 7.35045 4.42559 4.7007
C 10.1643 7.93262 9.23124
C 5.33115 1.656 7.77305
C 4.57397 1.86407 9.09532
H 4.99088 2.45304 7.08086
H 6.41698 1.79163 7.91548
H 3.47901 1.78575 8.92805
H 4.79481 2.86026 9.50815
H 4.88154 1.1384 9.8737
C 11.6995 12.3603 9.93935
C 11.0105 0.765379 8.92123
H 11.1955 12.09 0.456003
H 12.0231 11.4279 9.45211
H 10.4258 1.55047 9.42032
H 10.2904 0.261405 8.27413
H 11.7458 1.23444 8.25835
C 3.63141 6.87624 4.2231
C 2.99389 7.84951 3.22777
H 3.69599 5.85634 3.80454
H 4.68106 7.20018 4.40254
H 2.25657 7.31722 2.5905
H 3.77768 8.29757 2.58962
H 2.47788 8.68997 3.73995
C 7.25037 6.88547 0.261795
C 7.84352 5.75572 9.84969
H 6.70341 7.64867 9.82599
H 7.90433 7.40875 0.985941
H 7.24655 4.86643 9.59453
H 8.31455 6.08438 8.91024
H 8.85732 5.38087 0.256517
C 0.69821 0.313005 6.11171
C 1.4569 12.2475 7.20374
H 0.661031 1.36304 6.46065
H 1.28108 0.205234 5.17022
H 1.02213 12.5218 8.15692
H 2.44982 0.194625 7.20656
H 1.4615 11.1696 7.02478
C 7.31732 10.253 1.47106
C 6.34291 9.81753 2.57227
H 6.96556 9.7786 0.532595
H 8.32863 9.85785 1.70524
H 6.73778 10.0701 3.57974
H 5.34885 10.2898 2.41966
H 6.21614 8.71642 2.54464
C 5.79526 5.46037 6.88984
C 5.06585 5.66746 8.1656
H 5.02578 5.4665 6.10358
H 6.19493 4.43281 7.02373
H 5.42904 6.58198 8.53826
H 3.96592 5.66634 8.03381
H 5.25687 4.86233 8.88673
C 11.7206 5.37011 8.43161
C 11.2035 3.96212 8.25666
H 11.0882 6.00736 7.79123
H 0.273494 5.36734 8.11163
H 10.1765 3.86051 8.6694
H 11.1947 3.69226 7.17813
H 11.9063 3.29178 8.77892
156
Atoms. Timestep: 437
Ni 3.14264 9.45307 9.01949
Ni 6.45654 2.81516 3.53028
O 1.57255 4.58648 3.62687
O 4.6251 8.49455 9.26632
O 4.91043 1.88079 3.73089
O 1.62271 10.437 9.15838
O 6.08898 3.96286 4.76889
O 2.9 8.22428 0.00925039
O 0.298266 2.46091 4.62154
O 3.70133 10.6754 0.0684049
N 3.92856 10.7121 7.62694
N 0.8533 2.32251 2.06304
N 2.51535 8.20133 7.57731
N 5.80032 4.1602 2.17579
C 4.24403 11.5437 5.31071
C 0.520186 0.549181 0.384457
H 4.03634 11.4169 4.25557
C 4.90812 0.182411 5.74863
C 1.81935 12.4632 0.644839
C 5.08413 0.306272 7.15958
C 2.55565 0.564092 1.67929
H 3.51332 0.152667 1.97017
C 2.84469 6.85471 5.51758
C 6.14238 6.31269 1.06029
C 3.35483 7.65478 6.62534
C 6.54275 5.29881 1.96663
H 4.38972 7.95718 6.61418
H 0.813855 4.28636 0.328577
C 3.70982 10.5925 6.25264
C 0.112542 1.76622 1.07089
H 2.94519 9.93858 5.88346
H 6.82974 12.2901 3.23245
C 4.79476 11.706 8.01942
C 2.02017 1.67925 2.42295
H 5.21439 11.677 9.01169
H 2.51803 1.98508 3.32782
C 1.17981 7.92663 7.47229
C 4.48976 4.1949 1.73328
H 0.528228 8.28071 8.24164
H 3.85717 3.35181 1.9047
C 0.644131 7.15397 6.38356
C 3.93833 5.3643 1.0586
H 2.89251 5.37724 0.792683
C 1.47809 6.43425 5.51447
C 4.76154 6.47376 0.711415
C 5.55526 1.1957 4.73117
C 2.21025 11.1634 10.1568
C 0.869003 5.33116 4.52758
C 3.9536 7.76256 10.2056
Ni 9.24203 9.57223 8.06613
Ni 0.0517906 3.63432 3.33331
O 8.02987 3.74219 3.72564
O 10.7733 8.61554 8.22414
O 10.9894 2.66791 3.37265
O 7.70665 10.5365 8.26548
O 12.0893 4.86904 4.57439
O 8.90827 8.41781 9.3807
O 6.83746 1.61041 4.80531
O 9.6451 10.7741 9.3022
N 9.91193 10.8459 6.60641
N 7.08016 1.5424 2.0855
N 8.52994 8.24336 6.74169
N 12.0031 4.91781 1.88023
C 9.59884 0.224855 5.02112
C 7.41186 11.7554 1.22083
H 8.9559 0.71677 4.31597
C 10.9598 0.629591 5.09438
C 7.96294 12.2301 0.00111085
C 11.787 12.3432 5.89807
C 7.82562 1.11523 10.138
H 8.21887 1.53363 9.22521
C 9.06998 6.35056 5.26939
C 11.7006 5.82354 9.86014
H 9.88225 5.73083 4.97095
C 9.36327 7.64881 5.82484
C 0.0244694 4.96711 0.607263
H 10.2957 8.12847 5.57781
H 7.56661 5.3349 2.27983
C 9.0763 11.6446 5.83673
C 7.04745 0.165058 2.26746
H 8.01611 11.4346 5.81435
H 11.6337 2.1712 0.904191
C 11.2691 11.1249 6.53683
C 7.61715 2.00994 0.907696
H 11.9432 10.4854 7.07682
H 7.74956 3.06854 0.772799
C 7.29428 7.64001 6.9656
C 11.0137 5.83138 2.17225
H 6.58101 8.14925 7.58936
H 10.3659 5.64735 2.98967
C 6.96894 6.32675 6.41121
C 10.7343 6.95173 1.33117
H 12.0902 7.10302 6.24156
H 10.0942 7.74068 1.70335
C 7.80384 5.75793 5.42729
C 10.8704 6.93425 10.25
C 11.552 1.96277 4.39509
C 8.38515 11.2549 9.20981
C 7.35187 4.43046 4.69784
C 10.1629 7.92905 9.22752
C 5.31722 1.66894 7.76957
C 4.56283 1.87513 9.09221
H 4.95773 2.45247 7.07195
H 6.40051 1.82689 7.90857
H 3.46669 1.78642 8.93245
H 4.77979 2.87433 9.50046
H 4.87918 1.15503 9.87247
C 11.7116 12.3484 9.94215
C 11.0166 0.758375 8.93035
H 11.2116 12.053 0.452916
H 12.0449 11.4298 9.43993
H 10.4289 1.53858 9.43316
H 10.3015 0.255037 8.27641
H 11.7475 1.23653 8.26844
C 3.61599 6.87669 4.22571
C 2.98301 7.86021 3.23695
H 3.66953 5.8613 3.79459
H 4.66891 7.18751 4.407
H 2.22841 7.33793 2.61266
H 3.76681 8.28499 2.58502
H 2.49158 8.71315 3.75309
C 7.2527 6.89342 0.25724
C 7.8413 5.76016 9.84425
H 6.70196 7.65324 9.81866
H 7.91253 7.42031 0.973537
H 7.24212 4.86811 9.61057
H 8.30259 6.07712 8.8948
H 8.86015 5.38697 0.244952
C 0.692603 0.311749 6.11734
C 1.4533 12.2401 7.20454
H 0.647919 1.36004 6.47386
H 1.27641 0.222927 5.17352
H 1.01478 12.5107 8.15633
H 2.44434 0.190254 7.21801
H 1.46441 11.1612 7.02513
C 7.32348 10.2567 1.46388
C 6.35016 9.8242 2.56522
H 6.98015 9.76984 0.527925
H 8.33534 9.86776 1.70717
H 6.75622 10.0745 3.56893
H 5.35676 10.3023 2.42179
H 6.22066 8.72488 2.53028
C 5.78729 5.45765 6.88667
C 5.06807 5.65827 8.16949
H 5.01348 5.466 6.10336
H 6.18584 4.42815 7.01303
H 5.42283 6.57702 8.53848
H 3.96635 5.64375 8.05035
H 5.2772 4.85969 8.89176
C 11.7335 5.3662 8.43041
C 11.1913 3.96753 8.26806
H 11.1092 6.01057 7.78847
H 0.284531 5.34424 8.10073
H 10.168 3.88349 8.6944
H 11.1657 3.6963 7.19026
H 11.8905 3.29136 8.78779
156
Atoms. Timestep: 443
Ni 3.14344 9.45263 9.01899
Ni 6.4558 2.81586 3.53006
O 1.5726 4.58986 3.62484
O 4.62542 8.49374 9.26702
O 4.91007 1.88217 3.73098
O 1.62334 10.4367 9.15783
O 6.08899 3.96217 4.76963
O 2.90052 8.22346 0.0102794
O 0.29697 2.46145 4.62025
O 3.70177 10.6754 0.0680165
N 3.92905 10.7117 7.62591
N 0.854071 2.32385 2.06245
N 2.5163 8.2018 7.57724
N 5.79923 4.15991 2.17667
C 4.24306 11.5436 5.30999
C 0.519273 0.546779 0.387755
H 4.03837 11.4133 4.25569
C 4.90751 0.183299 5.74803
C 1.8188 12.4629 0.645918
C 5.081 0.308264 7.15893
C 2.55649 0.565159 1.67749
H 3.51329 0.151774 1.9689
C 2.84478 6.85533 5.51821
C 6.1421 6.30909 1.05823
C 3.35582 7.65468 6.62512
C 6.54185 5.29824 1.96702
H 4.39278 7.95541 6.61501
H 0.815211 4.28825 0.330025
C 3.71033 10.5921 6.25175
C 0.113668 1.76683 1.06945
H 2.94433 9.93968 5.88282
H 6.83029 12.2892 3.23182
C 4.79394 11.7061 8.01871
C 2.02005 1.67913 2.42406
H 5.21313 11.6767 9.01062
H 2.52137 1.9865 3.32704
C 1.18074 7.9283 7.47288
C 4.49005 4.19312 1.73099
H 0.529614 8.28395 8.24202
H 3.85811 3.35086 1.90347
C 0.6445 7.15481 6.38486
C 3.93714 5.3643 1.05917
H 2.89185 5.37722 0.791169
C 1.47819 6.43529 5.51571
C 4.76149 6.47178 0.710991
C 5.55583 1.19701 4.73164
C 2.21061 11.1632 10.1562
C 0.869815 5.33235 4.52799
C 3.95373 7.76068 10.2059
Ni 9.24296 9.57238 8.06644
Ni 0.0510139 3.63541 3.33181
O 8.02865 3.74079 3.72473
O 10.7751 8.61511 8.22426
O 10.9875 2.66722 3.37171
O 7.70859 10.5362 8.26587
O 12.0899 4.86989 4.57388
O 8.90941 8.41744 9.37958
O 6.83737 1.60978 4.80447
O 9.64679 10.7734 9.30271
N 9.91202 10.8455 6.60639
N 7.07931 1.54241 2.08431
N 8.53009 8.24529 6.74166
N 12.0001 4.91737 1.87937
C 9.5982 0.22238 5.01891
C 7.41559 11.756 1.22182
H 8.95514 0.715099 4.31539
C 10.9589 0.628015 5.09298
C 7.96548 12.2301 0.00139129
C 11.7865 12.3433 5.89771
C 7.82589 1.11482 10.1364
H 8.21789 1.53332 9.22253
C 9.07103 6.35146 5.2706
C 11.698 5.82237 9.86049
H 9.88355 5.73344 4.96886
C 9.3646 7.64914 5.82493
C 0.0233534 4.96851 0.608056
H 10.2967 8.12985 5.5734
H 7.566 5.33426 2.28032
C 9.07587 11.6421 5.83374
C 7.04814 0.165222 2.26636
H 8.01407 11.4344 5.81292
H 11.6338 2.16648 0.907256
C 11.2692 11.1258 6.53787
C 7.62003 2.0095 0.907093
H 11.9442 10.4857 7.07658
H 7.75322 3.06777 0.770154
C 7.29465 7.64119 6.96697
C 11.0122 5.83253 2.17289
H 6.58059 8.1497 7.58986
H 10.3616 5.64632 2.98916
C 6.96953 6.32677 6.41273
C 10.735 6.95408 1.33175
H 12.0916 7.10491 6.24447
H 10.0921 7.7414 1.70117
C 7.80433 5.75746 5.42959
C 10.8694 6.93423 10.2497
C 11.5497 1.96338 4.39561
C 8.38688 11.2542 9.21066
C 7.35181 4.42911 4.69773
C 10.1638 7.928 9.22587
C 5.31663 1.67185 7.76984
C 4.56146 1.87596 9.09283
H 4.95392 2.45609 7.07219
H 6.40208 1.82889 7.909
H 3.46622 1.78658 8.9331
H 4.77425 2.87434 9.50139
H 4.87882 1.15838 9.87408
C 11.7114 12.3469 9.94235
C 11.0169 0.757368 8.93122
H 11.2122 12.0556 0.454717
H 12.0423 11.4261 9.44018
H 10.4303 1.53717 9.43586
H 10.302 0.25446 8.27638
H 11.7496 1.23649 8.27279
C 3.61581 6.87609 4.2265
C 2.98268 7.86008 3.2384
H 3.66961 5.86083 3.79637
H 4.66873 7.18801 4.40523
H 2.22464 7.34126 2.61405
H 3.76588 8.28616 2.58552
H 2.49465 8.71402 3.756
C 7.25265 6.89069 0.257707
C 7.84216 5.75911 9.84475
H 6.70246 7.65079 9.82038
H 7.91051 7.41873 0.975261
H 7.24531 4.86508 9.60996
H 8.30101 6.07944 8.89609
H 8.86312 5.39051 0.245246
C 0.691802 0.311494 6.1182
C 1.45373 12.2388 7.20431
H 0.648411 1.3591 6.47567
H 1.27576 0.219525 5.1748
H 1.01762 12.5084 8.15838
H 2.445 0.190508 7.21363
H 1.4622 11.1596 7.02251
C 7.32494 10.259 1.46382
C 6.35168 9.82424 2.56452
H 6.98064 9.7749 0.528214
H 8.3365 9.87085 1.70501
H 6.75403 10.0714 3.56922
H 5.35987 10.3017 2.42086
H 6.21888 8.72529 2.53216
C 5.78741 5.45792 6.88673
C 5.06756 5.65875 8.16826
H 5.01429 5.46482 6.10292
H 6.18644 4.42906 7.01312
H 5.42153 6.57764 8.53757
H 3.96642 5.64459 8.04751
H 5.27584 4.85991 8.89011
C 11.7329 5.36625 8.43147
C 11.1896 3.96832 8.26823
H 11.111 6.01011 7.78854
H 0.284205 5.3444 8.1045
H 10.1678 3.88459 8.69521
H 11.1618 3.69395 7.19207
H 11.8861 3.29024 8.78696
156
Atoms. Timestep: 446
Ni 3.14368 9.45261 9.01928
Ni 6.45636 2.81559 3.52982
O 1.57206 4.5891 3.62507
O 4.62546 8.4938 9.26704
O 4.91011 1.88177 3.73095
O 1.62334 10.4368 9.15793
O 6.08916 3.9624 4.76964
O 2.90046 8.22363 0.00989321
O 0.297123 2.46144 4.62075
O 3.702 10.6751 0.0680766
N 3.92902 10.7118 7.62615
N 0.854201 2.32333 2.06242
N 2.51689 8.20173 7.57744
N 5.79901 4.15964 2.17643
C 4.24355 11.5437 5.30984
C 0.519764 0.546728 0.387173
H 4.03889 11.4132 4.25534
C 4.9072 0.183471 5.74808
C 1.81884 12.4626 0.645697
C 5.08116 0.308342 7.15909
C 2.55644 0.564957 1.67757
H 3.51365 0.151985 1.96899
C 2.84497 6.85518 5.51829
C 6.14193 6.30923 1.05853
C 3.35617 7.65498 6.62525
C 6.54166 5.29795 1.96686
H 4.39239 7.95516 6.61525
H 0.814942 4.28894 0.330235
C 3.71008 10.592 6.25172
C 0.113742 1.76645 1.07014
H 2.9443 9.93956 5.8829
H 6.83019 12.2896 3.23194
C 4.79371 11.7065 8.0189
C 2.02027 1.67923 2.42333
H 5.21327 11.6772 9.01062
H 2.52106 1.98686 3.32666
C 1.18119 7.92832 7.47281
C 4.48987 4.19323 1.73128
H 0.529829 8.2844 8.24196
H 3.85781 3.35032 1.9031
C 0.644491 7.155 6.3853
C 3.93748 5.36386 1.05903
H 2.89176 5.37691 0.791193
C 1.47769 6.43532 5.51591
C 4.76159 6.47178 0.710835
C 5.55509 1.19662 4.7311
C 2.2107 11.1632 10.1564
C 0.869214 5.3326 4.52755
C 3.95385 7.7611 10.2058
Ni 9.24317 9.57229 8.06623
Ni 0.0510611 3.63532 3.33213
O 8.02907 3.74107 3.72493
O 10.7747 8.61489 8.22393
O 10.9879 2.66756 3.37189
O 7.70878 10.5363 8.26609
O 12.0895 4.87023 4.57407
O 8.90908 8.41747 9.37979
O 6.83725 1.60981 4.80451
O 9.64669 10.7732 9.30257
N 9.91207 10.8456 6.60642
N 7.0796 1.54252 2.08412
N 8.53045 8.24492 6.74166
N 12.0005 4.91768 1.87984
C 9.59827 0.222096 5.01852
C 7.41576 11.7559 1.22147
H 8.9549 0.71495 4.31497
C 10.959 0.627936 5.093
C 7.96572 12.2299 0.00161739
C 11.7865 12.3433 5.89804
C 7.82593 1.11479 10.1369
H 8.21788 1.53308 9.22207
C 9.07156 6.35085 5.27019
C 11.6982 5.82239 9.86042
H 9.8834 5.73371 4.96874
C 9.36472 7.64931 5.82459
C 0.0231865 4.96818 0.607982
H 10.296 8.13026 5.57347
H 7.56578 5.33423 2.28041
C 9.07586 11.6419 5.83366
C 7.04836 0.165485 2.26604
H 8.0146 11.4339 5.81298
H 11.6331 2.16638 0.907581
C 11.2693 11.1256 6.53779
C 7.61998 2.00981 0.906906
H 11.9437 10.4858 7.07658
H 7.75358 3.06779 0.770463
C 7.29442 7.64128 6.96708
C 11.0118 5.83277 2.17286
H 6.58119 8.14976 7.58969
H 10.3613 5.64642 2.98818
C 6.96945 6.32691 6.41298
C 10.7346 6.95406 1.33158
H 12.0916 7.105 6.24449
H 10.0918 7.74151 1.70118
C 7.80459 5.75724 5.42951
C 10.8697 6.93429 10.2496
C 11.5502 1.96325 4.3954
C 8.38724 11.2543 9.21056
C 7.35201 4.42961 4.69812
C 10.1637 7.92815 9.22608
C 5.31635 1.67176 7.76944
C 4.56111 1.87635 9.09315
H 4.95387 2.4561 7.0727
H 6.40104 1.82924 7.90877
H 3.46584 1.7863 8.93306
H 4.77368 2.87504 9.50146
H 4.87894 1.15841 9.87418
C 11.7117 12.3466 9.94249
C 11.0174 0.756891 8.93161
H 11.2116 12.0554 0.455091
H 12.0421 11.4261 9.44078
H 10.4301 1.53704 9.43613
H 10.3023 0.254698 8.27647
H 11.75 1.23634 8.27314
C 3.61618 6.87642 4.22581
C 2.98236 7.86048 3.23892
H 3.66956 5.86067 3.79646
H 4.66865 7.18794 4.40534
H 2.22425 7.34166 2.61449
H 3.7658 8.28612 2.58546
H 2.49509 8.71416 3.75635
C 7.25241 6.89049 0.257614
C 7.84243 5.75943 9.84467
H 6.70237 7.65075 9.8202
H 7.91043 7.41847 0.975543
H 7.24561 4.86472 9.60997
H 8.30093 6.07949 8.89609
H 8.86358 5.39066 0.245234
C 0.691235 0.312202 6.1179
C 1.45383 12.238 7.2044
H 0.648262 1.35914 6.47535
H 1.2756 0.219398 5.17477
H 1.01799 12.5083 8.15813
H 2.4448 0.190085 7.21316
H 1.46245 11.1599 7.02243
C 7.32474 10.2586 1.46384
C 6.35174 9.82475 2.56484
H 6.98072 9.77516 0.527896
H 8.33746 9.87063 1.705
H 6.75421 10.0714 3.56952
H 5.3597 10.302 2.42062
H 6.21897 8.72474 2.5317
C 5.78819 5.45754 6.88608
C 5.06735 5.65893 8.16842
H 5.01437 5.4649 6.10279
H 6.18641 4.42931 7.01331
H 5.42153 6.57761 8.53742
H 3.96621 5.6446 8.04718
H 5.27589 4.8598 8.89017
C 11.7329 5.36636 8.4317
C 11.1889 3.96774 8.26807
H 11.111 6.01023 7.78842
H 0.284543 5.34424 8.10476
H 10.167 3.88484 8.69561
H 11.1613 3.69401 7.19196
H 11.886 3.29012 8.78738
156
Atoms. Timestep: 449
Ni 3.14374 9.45265 9.01916
Ni 6.4562 2.81566 3.5298
O 1.5719 4.58909 3.62542
O 4.62565 8.49401 9.26701
O 4.91 1.8817 3.7306
O 1.62345 10.4367 9.15792
O 6.08926 3.96245 4.76959
O 2.90057 8.22366 0.00988642
O 0.297207 2.4615 4.62081
O 3.70196 10.6751 0.0681662
N 3.92916 10.7119 7.62615
N 0.854026 2.32336 2.0625
N 2.51678 8.20176 7.57749
N 5.7991 4.15953 2.17636
C 4.24361 11.5434 5.30987
C 0.519799 0.546769 0.387034
H 4.03934 11.4132 4.2552
C 4.90693 0.183534 5.74798
C 1.81909 12.4626 0.645765
C 5.08106 0.308382 7.15887
C 2.5566 0.56473 1.67758
H 3.51381 0.152111 1.96897
C 2.84501 6.85523 5.5182
C 6.14188 6.30921 1.05851
C 3.3561 7.6548 6.62513
C 6.54175 5.29789 1.96681
H 4.39258 7.95511 6.61541
H 0.815043 4.28911 0.330385
C 3.71019 10.5921 6.25187
C 0.113343 1.76603 1.07011
H 2.94427 9.93953 5.88292
H 6.8302 12.2899 3.23174
C 4.79355 11.7067 8.01896
C 2.02049 1.6795 2.42331
H 5.21333 11.6776 9.01069
H 2.52104 1.98699 3.32629
C 1.18124 7.9285 7.4731
C 4.48976 4.19302 1.73148
H 0.530102 8.28479 8.24189
H 3.85776 3.3501 1.90279
C 0.644636 7.15491 6.38527
C 3.93722 5.3638 1.05875
H 2.89184 5.37668 0.791209
C 1.47797 6.43529 5.51584
C 4.76146 6.47169 0.710818
C 5.55546 1.19654 4.7312
C 2.2109 11.163 10.1564
C 0.869062 5.33286 4.52747
C 3.95393 7.761 10.2059
Ni 9.24309 9.57225 8.06639
Ni 0.0509964 3.63546 3.33228
O 8.02915 3.74121 3.72507
O 10.7746 8.61478 8.22389
O 10.988 2.66761 3.37198
O 7.70878 10.5363 8.26601
O 12.0892 4.87019 4.57414
O 8.90915 8.41741 9.37985
O 6.83704 1.60968 4.80445
O 9.64694 10.7731 9.30255
N 9.9121 10.8454 6.60636
N 7.07973 1.54267 2.0842
N 8.53025 8.24478 6.74159
N 12.0004 4.91786 1.87976
C 9.5983 0.221868 5.01826
C 7.41576 11.7559 1.22167
H 8.95486 0.714765 4.31471
C 10.9589 0.627967 5.09288
C 7.96607 12.23 0.00152749
C 11.7864 12.3435 5.89805
C 7.82621 1.11482 10.1365
H 8.21775 1.53292 9.22199
C 9.07136 6.3513 5.27038
C 11.6981 5.82248 9.86057
H 9.88367 5.73357 4.9684
C 9.36444 7.6493 5.82459
C 0.0228624 4.96827 0.608115
H 10.2959 8.13055 5.57324
H 7.56557 5.33413 2.28047
C 9.07609 11.6418 5.83362
C 7.04843 0.165398 2.26617
H 8.01475 11.4336 5.81292
H 11.6329 2.16608 0.907983
C 11.2692 11.1257 6.53767
C 7.62001 2.00969 0.906819
H 11.9436 10.4857 7.07668
H 7.75391 3.06791 0.770605
C 7.29485 7.6412 6.96687
C 11.0119 5.83276 2.17261
H 6.58136 8.14986 7.58973
H 10.3608 5.64638 2.98781
C 6.9699 6.32674 6.41261
C 10.7345 6.954 1.33148
H 12.0916 7.10525 6.24469
H 10.0916 7.74157 1.70107
C 7.80476 5.75732 5.42969
C 10.8697 6.93457 10.2497
C 11.5503 1.96312 4.39538
C 8.38733 11.2543 9.21056
C 7.3523 4.42942 4.69789
C 10.1637 7.92816 9.22597
C 5.31583 1.67193 7.76985
C 4.56093 1.87644 9.09311
H 4.95368 2.45625 7.0728
H 6.4006 1.82954 7.90864
H 3.46561 1.7861 8.93312
H 4.77315 2.87546 9.50149
H 4.87897 1.15862 9.87423
C 11.7116 12.3465 9.94296
C 11.0175 0.756942 8.93179
H 11.2115 12.0554 0.455225
H 12.0421 11.4258 9.4411
H 10.4302 1.53672 9.43628
H 10.3025 0.254758 8.27655
H 11.7503 1.23617 8.27349
C 3.61593 6.87627 4.22616
C 2.98245 7.86063 3.23876
H 3.66952 5.86068 3.79641
H 4.66878 7.18798 4.4053
H 2.22392 7.34203 2.6149
H 3.76558 8.2861 2.58549
H 2.49531 8.71452 3.75682
C 7.25242 6.89056 0.257711
C 7.84244 5.75918 9.84477
H 6.70232 7.65067 9.82013
H 7.91026 7.41823 0.975639
H 7.24598 4.86465 9.61003
H 8.30092 6.0796 8.89598
H 8.86386 5.39086 0.24515
C 0.691463 0.311717 6.11824
C 1.4536 12.2384 7.20397
H 0.648141 1.35939 6.47532
H 1.27536 0.219356 5.17473
H 1.01825 12.5082 8.1581
H 2.44474 0.189733 7.21282
H 1.46254 11.1596 7.02229
C 7.32528 10.2587 1.46382
C 6.35166 9.8244 2.56481
H 6.98072 9.77525 0.527719
H 8.33768 9.87058 1.7049
H 6.75436 10.0714 3.56976
H 5.35968 10.3022 2.4205
H 6.21906 8.72489 2.53144
C 5.78776 5.45786 6.88658
C 5.06748 5.65875 8.16803
H 5.01459 5.46494 6.10265
H 6.18662 4.42917 7.01338
H 5.42152 6.57768 8.53735
H 3.96611 5.64461 8.04695
H 5.27588 4.85987 8.89017
C 11.7328 5.366 8.43152
C 11.1887 3.96787 8.26837
H 11.1111 6.0103 7.78842
H 0.284589 5.34408 8.10501
H 10.1666 3.88497 8.69585
H 11.1608 3.69395 7.19184
H 11.8857 3.29004 8.78755
156
Atoms. Timestep: 450
Ni 3.14374 9.45265 9.01916
Ni 6.4562 2.81566 3.5298
O 1.5719 4.58909 3.62542
O 4.62565 8.49401 9.26701
O 4.91 1.8817 3.7306
O 1.62345 10.4367 9.15792
O 6.08926 3.96245 4.76959
O 2.90057 8.22366 0.00988642
O 0.297207 2.4615 4.62081
O 3.70196 10.6751 0.0681662
N 3.92916 10.7119 7.62615
N 0.854026 2.32336 2.0625
N 2.51678 8.20176 7.57749
N 5.7991 4.15953 2.17636
C 4.24361 11.5434 5.30987
C 0.519799 0.546769 0.387034
H 4.03934 11.4132 4.2552
C 4.90693 0.183534 5.74798
C 1.81909 12.4626 0.645765
C 5.08106 0.308382 7.15887
C 2.5566 0.56473 1.67758
H 3.51381 0.152111 1.96897
C 2.84501 6.85523 5.5182
C 6.14188 6.30921 1.05851
C 3.3561 7.6548 6.62513
C 6.54175 5.29789 1.96681
H 4.39258 7.95511 6.61541
H 0.815043 4.28911 0.330385
C 3.71019 10.5921 6.25187
C 0.113343 1.76603 1.07011
H 2.94427 9.93953 5.88292
H 6.8302 12.2899 3.23174
C 4.79355 11.7067 8.01896
C 2.02049 1.6795 2.42331
H 5.21333 11.6776 9.01069
H 2.52104 1.98699 3.32629
C 1.18124 7.9285 7.4731
C 4.48976 4.19302 1.73148
H 0.530102 8.28479 8.24189
H 3.85776 3.3501 1.90279
C 0.644636 7.15491 6.38527
C 3.93722 5.3638 1.05875
H 2.89184 5.37668 0.791209
C 1.47797 6.43529 5.51584
C 4.76146 6.47169 0.710818
C 5.55546 1.19654 4.7312
C 2.2109 11.163 10.1564
C 0.869062 5.33286 4.52747
C 3.95393 7.761 10.2059
Ni 9.24309 9.57225 8.06639
Ni 0.0509964 3.63546 3.33228
O 8.02915 3.74121 3.72507
O 10.7746 8.61478 8.22389
O 10.988 2.66761 3.37198
O 7.70878 10.5363 8.26601
O 12.0892 4.87019 4.57414
O 8.90915 8.41741 9.37985
O 6.83704 1.60968 4.80445
O 9.64694 10.7731 9.30255
N 9.9121 10.8454 6.60636
N 7.07973 1.54267 2.0842
N 8.53025 8.24478 6.74159
N 12.0004 4.91786 1.87976
C 9.5983 0.221868 5.01826
C 7.41576 11.7559 1.22167
H 8.95486 0.714765 4.31471
C 10.9589 0.627967 5.09288
C 7.96607 12.23 0.00152749
C 11.7864 12.3435 5.89805
C 7.82621 1.11482 10.1365
H 8.21775 1.53292 9.22199
C 9.07136 6.3513 5.27038
C 11.6981 5.82248 9.86057
H 9.88367 5.73357 4.9684
C 9.36444 7.6493 5.82459
C 0.0228624 4.96827 0.608115
H 10.2959 8.13055 5.57324
H 7.56557 5.33413 2.28047
C 9.07609 11.6418 5.83362
C 7.04843 0.165398 2.26617
H 8.01475 11.4336 5.81292
H 11.6329 2.16608 0.907983
C 11.2692 11.1257 6.53767
C 7.62001 2.00969 0.906819
H 11.9436 10.4857 7.07668
H 7.75391 3.06791 0.770605
C 7.29485 7.6412 6.96687
C 11.0119 5.83276 2.17261
H 6.58136 8.14986 7.58973
H 10.3608 5.64638 2.98781
C 6.9699 6.32674 6.41261
C 10.7345 6.954 1.33148
H 12.0916 7.10525 6.24469
H 10.0916 7.74157 1.70107
C 7.80476 5.75732 5.42969
C 10.8697 6.93457 10.2497
C 11.5503 1.96312 4.39538
C 8.38733 11.2543 9.21056
C 7.3523 4.42942 4.69789
C 10.1637 7.92816 9.22597
C 5.31583 1.67193 7.76985
C 4.56093 1.87644 9.09311
H 4.95368 2.45625 7.0728
H 6.4006 1.82954 7.90864
H 3.46561 1.7861 8.93312
H 4.77315 2.87546 9.50149
H 4.87897 1.15862 9.87423
C 11.7116 12.3465 9.94296
C 11.0175 0.756942 8.93179
H 11.2115 12.0554 0.455225
H 12.0421 11.4258 9.4411
H 10.4302 1.53672 9.43628
H 10.3025 0.254758 8.27655
H 11.7503 1.23617 8.27349
C 3.61593 6.87627 4.22616
C 2.98245 7.86063 3.23876
H 3.66952 5.86068 3.79641
H 4.66878 7.18798 4.4053
H 2.22392 7.34203 2.6149
H 3.76558 8.2861 2.58549
H 2.49531 8.71452 3.75682
C 7.25242 6.89056 0.257711
C 7.84244 5.75918 9.84477
H 6.70232 7.65067 9.82013
H 7.91026 7.41823 0.975639
H 7.24598 4.86465 9.61003
H 8.30092 6.0796 8.89598
H 8.86386 5.39086 0.24515
C 0.691463 0.311717 6.11824
C 1.4536 12.2384 7.20397
H 0.648141 1.35939 6.47532
H 1.27536 0.219356 5.17473
H 1.01825 12.5082 8.1581
H 2.44474 0.189733 7.21282
H 1.46254 11.1596 7.02229
C 7.32528 10.2587 1.46382
C 6.35166 9.8244 2.56481
H 6.98072 9.77525 0.527719
H 8.33768 9.87058 1.7049
H 6.75436 10.0714 3.56976
H 5.35968 10.3022 2.4205
H 6.21906 8.72489 2.53144
C 5.78776 5.45786 6.88658
C 5.06748 5.65875 8.16803
H 5.01459 5.46494 6.10265
H 6.18662 4.42917 7.01338
H 5.42152 6.57768 8.53735
H 3.96611 5.64461 8.04695
H 5.27588 4.85987 8.89017
C 11.7328 5.366 8.43152
C 11.1887 3.96787 8.26837
H 11.1111 6.0103 7.78842
H 0.284589 5.34408 8.10501
H 10.1666 3.88497 8.69585
H 11.1608 3.69395 7.19184
H 11.8857 3.29004 8.78755
