ITEM: TIMESTEP
0
ITEM: NUMBER OF ATOMS
156
ITEM: BOX BOUNDS xy xz yz pp pp pp
-2.2759399999999999e-01 1.2505599999999999e+01 0.0000000000000000e+00
0.0000000000000000e+00 1.2523400000000001e+01 -2.2759399999999999e-01
0.0000000000000000e+00 1.0274279000000000e+01 0.0000000000000000e+00
ITEM: ATOMS id type x y z
1 1 3.37798 9.72963 8.54594
2 1 5.79857 3.37878 3.48244
3 2 1.91251 3.99137 4.08995
4 2 4.92342 8.79401 8.70916
5 2 4.26503 2.42561 3.64479
6 2 1.87881 10.7062 8.73078
7 2 5.38485 4.60696 4.75036
8 2 3.14155 8.82744 9.99766
9 2 0.773376 1.66279 5.12621
10 2 3.85658 11.141 9.56959
11 3 3.82103 10.7246 6.92156
12 3 0.97149 1.85656 2.36008
13 3 2.66088 8.20555 7.44188
14 3 5.19071 4.71843 2.01183
15 4 3.23346 0.265984 5.89627
16 4 1.2748 1.15315 0.000971684
17 5 2.70389 1.10736 6.3125
18 5 5.54342 0.101969 9.8321
19 4 4.49469 0.453138 5.32202
20 4 2.16463 0.076573 0.32994
21 4 5.46716 11.9993 5.65502
22 4 2.44819 12.4809 1.69644
23 5 -0.129614 0.544562 7.71265
24 5 3.12514 11.7056 2.033
25 4 2.71988 6.80854 5.41478
26 4 4.40738 5.78957 10.1246
27 5 2.81478 6.85279 4.34396
28 5 11.8744 5.57218 9.7686
29 4 3.23329 7.88623 6.21987
30 4 5.02775 4.62588 0.599854
31 5 4.03553 8.4883 5.8258
32 5 1.05804 4.47239 1.20837
33 4 2.86529 11.4688 6.25287
34 4 0.507938 1.8598 1.03727
35 5 4.63264 1.28246 1.54552
36 4 5.13135 10.9364 6.55684
37 4 1.96191 0.927325 2.64745
38 5 5.90595 10.2874 6.93034
39 5 2.38079 0.910091 3.61843
40 4 1.7464 7.29696 7.95643
41 4 4.99603 6.01116 2.49385
42 5 4.6173 6.18344 3.46856
43 4 1.59505 5.99196 7.35004
44 4 5.17646 7.14954 1.68924
45 5 8.15484 4.6632 6.868
46 5 5.2361 8.12434 2.15922
47 4 1.95277 5.78514 6.00255
48 4 4.93941 7.05973 0.332055
49 4 4.90546 1.77942 4.67023
50 4 2.58058 11.5915 9.51367
51 4 1.34639 4.59348 5.17447
52 4 4.32916 8.30164 9.84214
53 1 8.9142 9.31537 9.04287
54 1 0.364014 3.0413 3.94055
55 2 7.2953 4.3562 3.66175
56 2 10.432 8.36973 9.3206
57 2 11.3934 2.07406 4.12962
58 2 7.32574 10.2694 9.1073
59 2 0.108864 4.09397 5.36922
60 2 8.73021 8.03707 0.0286733
61 2 6.13077 2.25488 4.79078
62 2 9.32709 10.4421 0.108807
63 3 9.77348 10.7548 7.78487
64 3 6.53047 1.97746 2.19411
65 3 8.37779 8.00217 7.50702
66 3 12.062 4.52809 2.72251
67 4 10.0412 11.9339 5.60353
68 4 6.21221 0.174793 0.531786
69 5 9.71269 11.973 4.57536
70 5 0.962001 1.46162 9.25087
71 4 11.1784 0.179655 6.00424
72 4 7.47255 12.119 0.752787
73 4 11.5135 0.0155996 7.3635
74 4 8.1808 0.153256 1.82527
75 5 6.46939 12.0774 5.26534
76 5 9.04129 12.152 2.21288
77 4 7.34947 7.51975 5.30513
78 4 11.8433 5.65879 0.529951
79 5 7.01111 7.89815 4.34922
80 5 4.01492 5.68387 9.11917
81 4 8.09746 8.39196 6.19769
82 4 0.103068 4.88432 1.50326
83 5 8.75828 9.06138 5.70457
84 4 9.23819 11.188 6.58231
85 4 5.68304 1.13239 1.49059
86 5 8.19565 11.0195 6.3768
87 4 10.8492 11.5406 8.25103
88 4 7.79789 1.43389 2.40632
89 4 8.11649 6.63717 7.76135
90 4 10.9154 5.2618 3.10184
91 4 8.03469 5.72258 6.67645
92 4 10.2699 6.22755 2.21408
93 5 0.99604 5.24185 7.85182
94 5 9.4206 6.79697 2.57505
95 4 7.32067 6.12555 5.5553
96 4 10.725 6.46837 0.917425
97 4 11.9837 1.2269 5.00337
98 4 7.87531 10.9357 10.1667
99 4 6.64767 5.08495 4.60528
100 4 9.79743 7.59659 10.2332
101 6 1.98228 10.7565 5.23027
102 6 0.721338 10.0904 5.76701
103 5 2.5872 10.0225 4.65923
104 5 1.63361 11.4772 4.46661
105 5 0.823855 8.99154 5.78251
106 5 12.3703 10.2984 5.09254
107 5 0.470025 10.4621 6.76722
108 6 11.5647 2.21452 0.723489
109 6 11.1141 2.78631 9.59581
110 5 10.9338 1.33785 0.796997
111 5 11.0908 2.85077 1.46978
112 5 12.0063 3.31957 9.20855
113 5 10.8409 1.98087 8.89461
114 5 10.2568 3.47766 9.61105
115 6 0.563108 7.82248 8.67789
116 6 0.728884 8.05145 10.1975
117 5 12.2144 7.16057 8.47015
118 5 0.29035 8.72674 8.13652
119 5 0.024344 8.06916 0.47323
120 5 1.61695 7.2877 0.38836
121 5 1.24836 9.08599 0.164249
122 6 5.02764 3.41221 10.0427
123 6 3.70799 2.70361 9.78106
124 5 6.16511 2.86878 0.00593442
125 5 5.33706 3.73555 9.02417
126 5 3.89162 1.69797 9.35748
127 5 3.09801 3.27369 9.04659
128 5 3.34785 2.65276 0.444011
129 6 11.6554 11.0946 9.46595
130 6 11.626 11.2086 0.709856
131 5 0.0265652 11.6653 9.3711
132 5 11.9392 10.0953 9.2886
133 5 10.8166 11.8818 0.966599
134 5 0.00325807 11.5436 1.27244
135 5 11.4234 10.2061 1.14544
136 6 8.83152 2.15256 3.20357
137 6 8.67481 2.04663 4.74645
138 5 9.73216 1.62964 2.89536
139 5 9.0182 3.17182 2.8272
140 5 8.14117 1.12228 5.03345
141 5 9.57329 2.06918 5.34975
142 5 8.22763 2.93866 5.19685
143 6 7.20131 6.23753 8.86147
144 6 7.82661 5.1614 9.75168
145 5 6.79927 7.103 9.37452
146 5 6.2901 5.8033 8.401
147 5 7.57636 4.1535 9.37259
148 5 8.92008 5.19866 9.7086
149 5 7.72243 5.27427 0.529727
150 6 10.4023 5.23622 4.49874
151 6 10.9628 6.40801 5.31707
152 5 10.44 4.25741 4.99614
153 5 9.33578 5.38297 4.41026
154 5 12.0196 6.61893 5.06309
155 5 10.8861 6.19055 6.40252
156 5 10.3987 7.33375 5.08927
