units           real
atom_style      full
boundary        p p p

pair_style      lj/cut 5.000
bond_style      harmonic
angle_style     hybrid cosine/periodic fourier
dihedral_style  harmonic
improper_style  fourier

special_bonds   lj/coul 0.0 0.0 1.0
dielectric      1.0
pair_modify     tail yes mix arithmetic
box tilt        large
read_data       data.NiPyC2_relax_sc211_ortho_functionalized_PH2
  triclinic box = (0 0 0) to (12.5056 12.5234 10.2743) with tilt (0 -0.227594 0)
  1 by 1 by 1 MPI processor grid
  reading atoms ...
  124 atoms
  scanning bonds ...
  6 = max bonds/atom
  scanning angles ...
  15 = max angles/atom
  scanning dihedrals ...
  8 = max dihedrals/atom
  scanning impropers ...
  3 = max impropers/atom
  reading bonds ...
  144 bonds
  reading angles ...
  268 angles
  reading dihedrals ...
  288 dihedrals
  reading impropers ...
  168 impropers
  6 = max # of 1-2 neighbors
  9 = max # of 1-3 neighbors
  12 = max # of special neighbors
  special bonds CPU = 0.000118277 secs
  read_data CPU = 0.00554041 secs

#### Atom Groupings ####
group           fram     id   1:124
124 atoms in group fram
#### END Atom Groupings ####

dump            NiPyC2_relax_sc211_ortho_functionalized_PH2_xyzmov all xyz 20000 NiPyC2_relax_sc211_ortho_functionalized_PH2_mov.xyz
dump_modify     NiPyC2_relax_sc211_ortho_functionalized_PH2_xyzmov element Ni O N C H P
min_style       cg
print           "MinStep,CellMinStep,AtomMinStep,FinalStep,Energy,EDiff" file NiPyC2_relax_sc211_ortho_functionalized_PH2.min.csv screen no
variable        min_eval   equal 1.00e-06
variable        prev_E     equal 50000.00
variable        iter       loop 100000
label           loop_min
min_style       cg
fix             1 all box/relax aniso 0.0 vmax 0.01
minimize        1.0e-15 1.0e-15 10000 100000
WARNING: Using 'neigh_modify every 1 delay 0 check yes' setting during minimization (src/min.cpp:190)
Neighbor list info ...
  update every 1 steps, delay 0 steps, check yes
  max neighbors/atom: 2000, page size: 100000
  master list distance cutoff = 7
  ghost atom cutoff = 7
  binsize = 3.5, bins = 4 4 3
  1 neighbor lists, perpetual/occasional/extra = 1 0 0
  (1) pair lj/cut, perpetual
      attributes: half, newton on
      pair build: half/bin/newton/tri
      stencil: half/bin/3d/newton/tri
      bin: standard
WARNING: Inconsistent image flags (src/domain.cpp:785)
WARNING: Bond/angle/dihedral extent > half of periodic box length (src/domain.cpp:906)
Per MPI rank memory allocation (min/avg/max) = 16.89 | 16.89 | 16.89 Mbytes
Step Temp E_pair E_mol TotEng Press Volume 
       0            0    97298.454    2273.0479    99571.502     16544984    1609.0819 
     232            0    110.30206    1585.2833    1695.5854    644.28817    1635.0537 
WARNING: Bond/angle/dihedral extent > half of periodic box length (src/domain.cpp:906)
Loop time of 0.0709097 on 1 procs for 232 steps with 124 atoms

99.9% CPU use with 1 MPI tasks x 1 OpenMP threads

Minimization stats:
  Stopping criterion = linesearch alpha is zero
  Energy initial, next-to-last, final = 
         99571.5018713      1695.58539888      1695.58539888
  Force two-norm initial, final = 1.36966e+06 83.01
  Force max component initial, final = 986865 38.5662
  Final line search alpha, max atom move = 9.48422e-13 3.65771e-11
  Iterations, force evaluations = 232 427

MPI task timing breakdown:
Section |  min time  |  avg time  |  max time  |%varavg| %total
---------------------------------------------------------------
Pair    | 0.029747   | 0.029747   | 0.029747   |   0.0 | 41.95
Bond    | 0.024752   | 0.024752   | 0.024752   |   0.0 | 34.91
Neigh   | 0.0060475  | 0.0060475  | 0.0060475  |   0.0 |  8.53
Comm    | 0.0023269  | 0.0023269  | 0.0023269  |   0.0 |  3.28
Output  | 0          | 0          | 0          |   0.0 |  0.00
Modify  | 0          | 0          | 0          |   0.0 |  0.00
Other   |            | 0.008037   |            |       | 11.33

Nlocal:    124 ave 124 max 124 min
Histogram: 1 0 0 0 0 0 0 0 0 0
Nghost:    1263 ave 1263 max 1263 min
Histogram: 1 0 0 0 0 0 0 0 0 0
Neighs:    6147 ave 6147 max 6147 min
Histogram: 1 0 0 0 0 0 0 0 0 0

Total # of neighbors = 6147
Ave neighs/atom = 49.5726
Ave special neighs/atom = 6.3871
Neighbor list builds = 11
Dangerous builds = 0
unfix           1
min_style       fire
variable        tempstp    equal $(step)
variable        tempstp    equal 232
variable        CellMinStep equal ${tempstp}
variable        CellMinStep equal 232
minimize        1.0e-15 1.0e-15 10000 100000
WARNING: Using 'neigh_modify every 1 delay 0 check yes' setting during minimization (src/min.cpp:190)
  Parameters for fire: 
    dmax delaystep dtgrow dtshrink alpha0 alphashrink tmax tmin    integrator halfstepback 
     0.1        20    1.1      0.5   0.25        0.99   10 0.02 eulerimplicit          yes 
WARNING: Inconsistent image flags (src/domain.cpp:785)
WARNING: Bond/angle/dihedral extent > half of periodic box length (src/domain.cpp:906)
Per MPI rank memory allocation (min/avg/max) = 15.76 | 15.76 | 15.76 Mbytes
Step Temp E_pair E_mol TotEng Press 
     232            0    110.30206    1585.2833    1695.5854    644.28817 
    8228 1.9311763e-10    119.91557    1562.6825    1682.5981       5553.4 
WARNING: Bond/angle/dihedral extent > half of periodic box length (src/domain.cpp:906)
Loop time of 0.974223 on 1 procs for 7996 steps with 124 atoms

99.9% CPU use with 1 MPI tasks x 1 OpenMP threads

Minimization stats:
  Stopping criterion = energy tolerance
  Energy initial, next-to-last, final = 
         1695.58539888      1682.59806663      1682.59806663
  Force two-norm initial, final = 54.8831 4.97894e-05
  Force max component initial, final = 10.7337 8.10599e-06
  Final line search alpha, max atom move = 0 0
  Iterations, force evaluations = 7996 7996

MPI task timing breakdown:
Section |  min time  |  avg time  |  max time  |%varavg| %total
---------------------------------------------------------------
Pair    | 0.50122    | 0.50122    | 0.50122    |   0.0 | 51.45
Bond    | 0.40723    | 0.40723    | 0.40723    |   0.0 | 41.80
Neigh   | 0          | 0          | 0          |   0.0 |  0.00
Comm    | 0.037628   | 0.037628   | 0.037628   |   0.0 |  3.86
Output  | 0          | 0          | 0          |   0.0 |  0.00
Modify  | 0          | 0          | 0          |   0.0 |  0.00
Other   |            | 0.02815    |            |       |  2.89

Nlocal:    124 ave 124 max 124 min
Histogram: 1 0 0 0 0 0 0 0 0 0
Nghost:    1263 ave 1263 max 1263 min
Histogram: 1 0 0 0 0 0 0 0 0 0
Neighs:    6174 ave 6174 max 6174 min
Histogram: 1 0 0 0 0 0 0 0 0 0

Total # of neighbors = 6174
Ave neighs/atom = 49.7903
Ave special neighs/atom = 6.3871
Neighbor list builds = 0
Dangerous builds = 0
variable        AtomMinStep equal ${tempstp}
variable        AtomMinStep equal 232
variable        temppe     equal $(pe)
variable        temppe     equal 1682.5980666314492282
variable        min_E      equal abs(${prev_E}-${temppe})
variable        min_E      equal abs(50000-${temppe})
variable        min_E      equal abs(50000-1682.59806663145)
print           "${iter},${CellMinStep},${AtomMinStep},${AtomMinStep},$(pe),${min_E}" append NiPyC2_relax_sc211_ortho_functionalized_PH2.min.csv screen no
if              "${min_E} < ${min_eval}" then "jump SELF break_min"
variable        prev_E     equal ${temppe}
variable        prev_E     equal 1682.59806663145
next            iter
jump            SELF loop_min
min_style       cg
fix             1 all box/relax aniso 0.0 vmax 0.01
minimize        1.0e-15 1.0e-15 10000 100000
WARNING: Using 'neigh_modify every 1 delay 0 check yes' setting during minimization (src/min.cpp:190)
WARNING: Inconsistent image flags (src/domain.cpp:785)
WARNING: Bond/angle/dihedral extent > half of periodic box length (src/domain.cpp:906)
Per MPI rank memory allocation (min/avg/max) = 16.89 | 16.89 | 16.89 Mbytes
Step Temp E_pair E_mol TotEng Press Volume 
    8228 1.9311763e-10    119.91557    1562.6825    1682.5981       5553.4    1635.0537 
    8237 1.9311763e-10    114.94604     1566.864      1681.81    674.58924    1643.1218 
WARNING: Bond/angle/dihedral extent > half of periodic box length (src/domain.cpp:906)
Loop time of 0.0103192 on 1 procs for 9 steps with 124 atoms

99.9% CPU use with 1 MPI tasks x 1 OpenMP threads

Minimization stats:
  Stopping criterion = linesearch alpha is zero
  Energy initial, next-to-last, final = 
         1682.59806663       1681.8100412       1681.8100412
  Force two-norm initial, final = 294.278 38.441
  Force max component initial, final = 281.064 23.9916
  Final line search alpha, max atom move = 6.81683e-12 1.63546e-10
  Iterations, force evaluations = 9 69

MPI task timing breakdown:
Section |  min time  |  avg time  |  max time  |%varavg| %total
---------------------------------------------------------------
Pair    | 0.0047731  | 0.0047731  | 0.0047731  |   0.0 | 46.25
Bond    | 0.0038958  | 0.0038958  | 0.0038958  |   0.0 | 37.75
Neigh   | 0          | 0          | 0          |   0.0 |  0.00
Comm    | 0.00033906 | 0.00033906 | 0.00033906 |   0.0 |  3.29
Output  | 0          | 0          | 0          |   0.0 |  0.00
Modify  | 0          | 0          | 0          |   0.0 |  0.00
Other   |            | 0.001311   |            |       | 12.71

Nlocal:    124 ave 124 max 124 min
Histogram: 1 0 0 0 0 0 0 0 0 0
Nghost:    1281 ave 1281 max 1281 min
Histogram: 1 0 0 0 0 0 0 0 0 0
Neighs:    6151 ave 6151 max 6151 min
Histogram: 1 0 0 0 0 0 0 0 0 0

Total # of neighbors = 6151
Ave neighs/atom = 49.6048
Ave special neighs/atom = 6.3871
Neighbor list builds = 0
Dangerous builds = 0
unfix           1
min_style       fire
variable        tempstp    equal $(step)
variable        tempstp    equal 8237
variable        CellMinStep equal ${tempstp}
variable        CellMinStep equal 8237
minimize        1.0e-15 1.0e-15 10000 100000
WARNING: Using 'neigh_modify every 1 delay 0 check yes' setting during minimization (src/min.cpp:190)
  Parameters for fire: 
    dmax delaystep dtgrow dtshrink alpha0 alphashrink tmax tmin    integrator halfstepback 
     0.1        20    1.1      0.5   0.25        0.99   10 0.02 eulerimplicit          yes 
WARNING: Inconsistent image flags (src/domain.cpp:785)
WARNING: Bond/angle/dihedral extent > half of periodic box length (src/domain.cpp:906)
Per MPI rank memory allocation (min/avg/max) = 15.76 | 15.76 | 15.76 Mbytes
Step Temp E_pair E_mol TotEng Press 
    8237            0    114.94604     1566.864      1681.81    674.58924 
   14823 1.4108411e-10    78.099738    1570.1413    1648.2411   -10457.447 
WARNING: Bond/angle/dihedral extent > half of periodic box length (src/domain.cpp:906)
Loop time of 0.800082 on 1 procs for 6586 steps with 124 atoms

99.8% CPU use with 1 MPI tasks x 1 OpenMP threads

Minimization stats:
  Stopping criterion = energy tolerance
  Energy initial, next-to-last, final = 
          1681.8100412      1648.24105502      1648.24105502
  Force two-norm initial, final = 23.798 2.99949e-05
  Force max component initial, final = 3.47243 1.27491e-05
  Final line search alpha, max atom move = 0 0
  Iterations, force evaluations = 6586 6586

MPI task timing breakdown:
Section |  min time  |  avg time  |  max time  |%varavg| %total
---------------------------------------------------------------
Pair    | 0.40991    | 0.40991    | 0.40991    |   0.0 | 51.23
Bond    | 0.33328    | 0.33328    | 0.33328    |   0.0 | 41.66
Neigh   | 0.0026488  | 0.0026488  | 0.0026488  |   0.0 |  0.33
Comm    | 0.031239   | 0.031239   | 0.031239   |   0.0 |  3.90
Output  | 0          | 0          | 0          |   0.0 |  0.00
Modify  | 0          | 0          | 0          |   0.0 |  0.00
Other   |            | 0.02301    |            |       |  2.88

Nlocal:    124 ave 124 max 124 min
Histogram: 1 0 0 0 0 0 0 0 0 0
Nghost:    1273 ave 1273 max 1273 min
Histogram: 1 0 0 0 0 0 0 0 0 0
Neighs:    6129 ave 6129 max 6129 min
Histogram: 1 0 0 0 0 0 0 0 0 0

Total # of neighbors = 6129
Ave neighs/atom = 49.4274
Ave special neighs/atom = 6.3871
Neighbor list builds = 5
Dangerous builds = 0
variable        AtomMinStep equal ${tempstp}
variable        AtomMinStep equal 8237
variable        temppe     equal $(pe)
variable        temppe     equal 1648.2410550204504034
variable        min_E      equal abs(${prev_E}-${temppe})
variable        min_E      equal abs(1682.59806663145-${temppe})
variable        min_E      equal abs(1682.59806663145-1648.24105502045)
print           "${iter},${CellMinStep},${AtomMinStep},${AtomMinStep},$(pe),${min_E}" append NiPyC2_relax_sc211_ortho_functionalized_PH2.min.csv screen no
if              "${min_E} < ${min_eval}" then "jump SELF break_min"
variable        prev_E     equal ${temppe}
variable        prev_E     equal 1648.24105502045
next            iter
jump            SELF loop_min
min_style       cg
fix             1 all box/relax aniso 0.0 vmax 0.01
minimize        1.0e-15 1.0e-15 10000 100000
WARNING: Using 'neigh_modify every 1 delay 0 check yes' setting during minimization (src/min.cpp:190)
WARNING: Inconsistent image flags (src/domain.cpp:785)
WARNING: Bond/angle/dihedral extent > half of periodic box length (src/domain.cpp:906)
Per MPI rank memory allocation (min/avg/max) = 16.89 | 16.89 | 16.89 Mbytes
Step Temp E_pair E_mol TotEng Press Volume 
   14823 1.4108411e-10    78.099738    1570.1413    1648.2411   -10457.447    1643.1218 
   14837 1.4108411e-10    91.821626    1553.7042    1645.5259   -170.26131    1614.6668 
WARNING: Bond/angle/dihedral extent > half of periodic box length (src/domain.cpp:906)
Loop time of 0.0157367 on 1 procs for 14 steps with 124 atoms

99.9% CPU use with 1 MPI tasks x 1 OpenMP threads

Minimization stats:
  Stopping criterion = linesearch alpha is zero
  Energy initial, next-to-last, final = 
         1648.24105502      1645.52585331      1645.52585331
  Force two-norm initial, final = 474.791 34.8624
  Force max component initial, final = 352.738 19.6819
  Final line search alpha, max atom move = 6.75312e-12 1.32914e-10
  Iterations, force evaluations = 14 79

MPI task timing breakdown:
Section |  min time  |  avg time  |  max time  |%varavg| %total
---------------------------------------------------------------
Pair    | 0.0073173  | 0.0073173  | 0.0073173  |   0.0 | 46.50
Bond    | 0.0059402  | 0.0059402  | 0.0059402  |   0.0 | 37.75
Neigh   | 0          | 0          | 0          |   0.0 |  0.00
Comm    | 0.0005185  | 0.0005185  | 0.0005185  |   0.0 |  3.29
Output  | 0          | 0          | 0          |   0.0 |  0.00
Modify  | 0          | 0          | 0          |   0.0 |  0.00
Other   |            | 0.001961   |            |       | 12.46

Nlocal:    124 ave 124 max 124 min
Histogram: 1 0 0 0 0 0 0 0 0 0
Nghost:    1279 ave 1279 max 1279 min
Histogram: 1 0 0 0 0 0 0 0 0 0
Neighs:    6141 ave 6141 max 6141 min
Histogram: 1 0 0 0 0 0 0 0 0 0

Total # of neighbors = 6141
Ave neighs/atom = 49.5242
Ave special neighs/atom = 6.3871
Neighbor list builds = 0
Dangerous builds = 0
unfix           1
min_style       fire
variable        tempstp    equal $(step)
variable        tempstp    equal 14837
variable        CellMinStep equal ${tempstp}
variable        CellMinStep equal 14837
minimize        1.0e-15 1.0e-15 10000 100000
WARNING: Using 'neigh_modify every 1 delay 0 check yes' setting during minimization (src/min.cpp:190)
  Parameters for fire: 
    dmax delaystep dtgrow dtshrink alpha0 alphashrink tmax tmin    integrator halfstepback 
     0.1        20    1.1      0.5   0.25        0.99   10 0.02 eulerimplicit          yes 
WARNING: Inconsistent image flags (src/domain.cpp:785)
WARNING: Bond/angle/dihedral extent > half of periodic box length (src/domain.cpp:906)
Per MPI rank memory allocation (min/avg/max) = 15.76 | 15.76 | 15.76 Mbytes
Step Temp E_pair E_mol TotEng Press 
   14837            0    91.821626    1553.7042    1645.5259   -170.26131 
   17938 3.0509397e-10    86.882755    1557.4042     1644.287   -1750.4226 
WARNING: Bond/angle/dihedral extent > half of periodic box length (src/domain.cpp:906)
Loop time of 0.384075 on 1 procs for 3101 steps with 124 atoms

99.8% CPU use with 1 MPI tasks x 1 OpenMP threads

Minimization stats:
  Stopping criterion = energy tolerance
  Energy initial, next-to-last, final = 
         1645.52585331       1644.2869731       1644.2869731
  Force two-norm initial, final = 27.9461 5.00643e-05
  Force max component initial, final = 8.55707 1.3433e-05
  Final line search alpha, max atom move = 0 0
  Iterations, force evaluations = 3101 3101

MPI task timing breakdown:
Section |  min time  |  avg time  |  max time  |%varavg| %total
---------------------------------------------------------------
Pair    | 0.19919    | 0.19919    | 0.19919    |   0.0 | 51.86
Bond    | 0.15896    | 0.15896    | 0.15896    |   0.0 | 41.39
Neigh   | 0          | 0          | 0          |   0.0 |  0.00
Comm    | 0.014845   | 0.014845   | 0.014845   |   0.0 |  3.87
Output  | 0          | 0          | 0          |   0.0 |  0.00
Modify  | 0          | 0          | 0          |   0.0 |  0.00
Other   |            | 0.01108    |            |       |  2.88

Nlocal:    124 ave 124 max 124 min
Histogram: 1 0 0 0 0 0 0 0 0 0
Nghost:    1273 ave 1273 max 1273 min
Histogram: 1 0 0 0 0 0 0 0 0 0
Neighs:    6260 ave 6260 max 6260 min
Histogram: 1 0 0 0 0 0 0 0 0 0

Total # of neighbors = 6260
Ave neighs/atom = 50.4839
Ave special neighs/atom = 6.3871
Neighbor list builds = 0
Dangerous builds = 0
variable        AtomMinStep equal ${tempstp}
variable        AtomMinStep equal 14837
variable        temppe     equal $(pe)
variable        temppe     equal 1644.2869730951570091
variable        min_E      equal abs(${prev_E}-${temppe})
variable        min_E      equal abs(1648.24105502045-${temppe})
variable        min_E      equal abs(1648.24105502045-1644.28697309516)
print           "${iter},${CellMinStep},${AtomMinStep},${AtomMinStep},$(pe),${min_E}" append NiPyC2_relax_sc211_ortho_functionalized_PH2.min.csv screen no
if              "${min_E} < ${min_eval}" then "jump SELF break_min"
variable        prev_E     equal ${temppe}
variable        prev_E     equal 1644.28697309516
next            iter
jump            SELF loop_min
min_style       cg
fix             1 all box/relax aniso 0.0 vmax 0.01
minimize        1.0e-15 1.0e-15 10000 100000
WARNING: Using 'neigh_modify every 1 delay 0 check yes' setting during minimization (src/min.cpp:190)
WARNING: Inconsistent image flags (src/domain.cpp:785)
WARNING: Bond/angle/dihedral extent > half of periodic box length (src/domain.cpp:906)
Per MPI rank memory allocation (min/avg/max) = 16.89 | 16.89 | 16.89 Mbytes
Step Temp E_pair E_mol TotEng Press Volume 
   17938 3.0509397e-10    86.882755    1557.4042     1644.287   -1750.4226    1614.6668 
   17941 3.0509397e-10    88.808779    1555.3107    1644.1194   -163.43186    1611.7531 
WARNING: Bond/angle/dihedral extent > half of periodic box length (src/domain.cpp:906)
Loop time of 0.00954181 on 1 procs for 3 steps with 124 atoms

100.0% CPU use with 1 MPI tasks x 1 OpenMP threads

Minimization stats:
  Stopping criterion = linesearch alpha is zero
  Energy initial, next-to-last, final = 
          1644.2869731      1644.11943907      1644.11943907
  Force two-norm initial, final = 199.406 18.496
  Force max component initial, final = 134.162 6.91844
  Final line search alpha, max atom move = 2.93281e-11 2.02905e-10
  Iterations, force evaluations = 3 57

MPI task timing breakdown:
Section |  min time  |  avg time  |  max time  |%varavg| %total
---------------------------------------------------------------
Pair    | 0.0044602  | 0.0044602  | 0.0044602  |   0.0 | 46.74
Bond    | 0.003543   | 0.003543   | 0.003543   |   0.0 | 37.13
Neigh   | 0          | 0          | 0          |   0.0 |  0.00
Comm    | 0.00031639 | 0.00031639 | 0.00031639 |   0.0 |  3.32
Output  | 0          | 0          | 0          |   0.0 |  0.00
Modify  | 0          | 0          | 0          |   0.0 |  0.00
Other   |            | 0.001222   |            |       | 12.81

Nlocal:    124 ave 124 max 124 min
Histogram: 1 0 0 0 0 0 0 0 0 0
Nghost:    1273 ave 1273 max 1273 min
Histogram: 1 0 0 0 0 0 0 0 0 0
Neighs:    6263 ave 6263 max 6263 min
Histogram: 1 0 0 0 0 0 0 0 0 0

Total # of neighbors = 6263
Ave neighs/atom = 50.5081
Ave special neighs/atom = 6.3871
Neighbor list builds = 0
Dangerous builds = 0
unfix           1
min_style       fire
variable        tempstp    equal $(step)
variable        tempstp    equal 17941
variable        CellMinStep equal ${tempstp}
variable        CellMinStep equal 17941
minimize        1.0e-15 1.0e-15 10000 100000
WARNING: Using 'neigh_modify every 1 delay 0 check yes' setting during minimization (src/min.cpp:190)
  Parameters for fire: 
    dmax delaystep dtgrow dtshrink alpha0 alphashrink tmax tmin    integrator halfstepback 
     0.1        20    1.1      0.5   0.25        0.99   10 0.02 eulerimplicit          yes 
WARNING: Inconsistent image flags (src/domain.cpp:785)
WARNING: Bond/angle/dihedral extent > half of periodic box length (src/domain.cpp:906)
Per MPI rank memory allocation (min/avg/max) = 15.76 | 15.76 | 15.76 Mbytes
Step Temp E_pair E_mol TotEng Press 
   17941            0    88.808779    1555.3107    1644.1194   -163.43186 
   20244 1.5804268e-10    87.823953    1556.0923    1643.9162   -1029.3063 
WARNING: Bond/angle/dihedral extent > half of periodic box length (src/domain.cpp:906)
Loop time of 0.2831 on 1 procs for 2303 steps with 124 atoms

99.9% CPU use with 1 MPI tasks x 1 OpenMP threads

Minimization stats:
  Stopping criterion = energy tolerance
  Energy initial, next-to-last, final = 
         1644.11943907      1643.91621844      1643.91621844
  Force two-norm initial, final = 16.1088 4.31383e-05
  Force max component initial, final = 2.43423 1.06158e-05
  Final line search alpha, max atom move = 0 0
  Iterations, force evaluations = 2303 2303

MPI task timing breakdown:
Section |  min time  |  avg time  |  max time  |%varavg| %total
---------------------------------------------------------------
Pair    | 0.14717    | 0.14717    | 0.14717    |   0.0 | 51.99
Bond    | 0.11669    | 0.11669    | 0.11669    |   0.0 | 41.22
Neigh   | 0          | 0          | 0          |   0.0 |  0.00
Comm    | 0.010987   | 0.010987   | 0.010987   |   0.0 |  3.88
Output  | 0.00012684 | 0.00012684 | 0.00012684 |   0.0 |  0.04
Modify  | 0          | 0          | 0          |   0.0 |  0.00
Other   |            | 0.008125   |            |       |  2.87

Nlocal:    124 ave 124 max 124 min
Histogram: 1 0 0 0 0 0 0 0 0 0
Nghost:    1273 ave 1273 max 1273 min
Histogram: 1 0 0 0 0 0 0 0 0 0
Neighs:    6282 ave 6282 max 6282 min
Histogram: 1 0 0 0 0 0 0 0 0 0

Total # of neighbors = 6282
Ave neighs/atom = 50.6613
Ave special neighs/atom = 6.3871
Neighbor list builds = 0
Dangerous builds = 0
variable        AtomMinStep equal ${tempstp}
variable        AtomMinStep equal 17941
variable        temppe     equal $(pe)
variable        temppe     equal 1643.9162184436170264
variable        min_E      equal abs(${prev_E}-${temppe})
variable        min_E      equal abs(1644.28697309516-${temppe})
variable        min_E      equal abs(1644.28697309516-1643.91621844362)
print           "${iter},${CellMinStep},${AtomMinStep},${AtomMinStep},$(pe),${min_E}" append NiPyC2_relax_sc211_ortho_functionalized_PH2.min.csv screen no
if              "${min_E} < ${min_eval}" then "jump SELF break_min"
variable        prev_E     equal ${temppe}
variable        prev_E     equal 1643.91621844362
next            iter
jump            SELF loop_min
min_style       cg
fix             1 all box/relax aniso 0.0 vmax 0.01
minimize        1.0e-15 1.0e-15 10000 100000
WARNING: Using 'neigh_modify every 1 delay 0 check yes' setting during minimization (src/min.cpp:190)
WARNING: Inconsistent image flags (src/domain.cpp:785)
WARNING: Bond/angle/dihedral extent > half of periodic box length (src/domain.cpp:906)
Per MPI rank memory allocation (min/avg/max) = 16.89 | 16.89 | 16.89 Mbytes
Step Temp E_pair E_mol TotEng Press Volume 
   20244 1.5804268e-10    87.823953    1556.0923    1643.9162   -1029.3063    1611.7531 
   20246 1.5804268e-10    88.709044    1555.0311    1643.7401    -281.8339     1610.503 
WARNING: Bond/angle/dihedral extent > half of periodic box length (src/domain.cpp:906)
Loop time of 0.00836907 on 1 procs for 2 steps with 124 atoms

99.9% CPU use with 1 MPI tasks x 1 OpenMP threads

Minimization stats:
  Stopping criterion = linesearch alpha is zero
  Energy initial, next-to-last, final = 
         1643.91621844      1643.74014585      1643.74014585
  Force two-norm initial, final = 178.731 43.2708
  Force max component initial, final = 116.83 35.2305
  Final line search alpha, max atom move = 3.74508e-12 1.31941e-10
  Iterations, force evaluations = 2 55

MPI task timing breakdown:
Section |  min time  |  avg time  |  max time  |%varavg| %total
---------------------------------------------------------------
Pair    | 0.0038876  | 0.0038876  | 0.0038876  |   0.0 | 46.45
Bond    | 0.0031504  | 0.0031504  | 0.0031504  |   0.0 | 37.64
Neigh   | 0          | 0          | 0          |   0.0 |  0.00
Comm    | 0.00026665 | 0.00026665 | 0.00026665 |   0.0 |  3.19
Output  | 0          | 0          | 0          |   0.0 |  0.00
Modify  | 0          | 0          | 0          |   0.0 |  0.00
Other   |            | 0.001064   |            |       | 12.72

Nlocal:    124 ave 124 max 124 min
Histogram: 1 0 0 0 0 0 0 0 0 0
Nghost:    1269 ave 1269 max 1269 min
Histogram: 1 0 0 0 0 0 0 0 0 0
Neighs:    6287 ave 6287 max 6287 min
Histogram: 1 0 0 0 0 0 0 0 0 0

Total # of neighbors = 6287
Ave neighs/atom = 50.7016
Ave special neighs/atom = 6.3871
Neighbor list builds = 0
Dangerous builds = 0
unfix           1
min_style       fire
variable        tempstp    equal $(step)
variable        tempstp    equal 20246
variable        CellMinStep equal ${tempstp}
variable        CellMinStep equal 20246
minimize        1.0e-15 1.0e-15 10000 100000
WARNING: Using 'neigh_modify every 1 delay 0 check yes' setting during minimization (src/min.cpp:190)
  Parameters for fire: 
    dmax delaystep dtgrow dtshrink alpha0 alphashrink tmax tmin    integrator halfstepback 
     0.1        20    1.1      0.5   0.25        0.99   10 0.02 eulerimplicit          yes 
WARNING: Inconsistent image flags (src/domain.cpp:785)
WARNING: Bond/angle/dihedral extent > half of periodic box length (src/domain.cpp:906)
Per MPI rank memory allocation (min/avg/max) = 15.76 | 15.76 | 15.76 Mbytes
Step Temp E_pair E_mol TotEng Press 
   20246            0    88.709044    1555.0311    1643.7401    -281.8339 
   22122 1.7206167e-10    88.283451    1555.3325     1643.616   -846.14532 
WARNING: Bond/angle/dihedral extent > half of periodic box length (src/domain.cpp:906)
Loop time of 0.233694 on 1 procs for 1876 steps with 124 atoms

99.9% CPU use with 1 MPI tasks x 1 OpenMP threads

Minimization stats:
  Stopping criterion = energy tolerance
  Energy initial, next-to-last, final = 
         1643.74014585      1643.61600063      1643.61600063
  Force two-norm initial, final = 13.8417 3.16314e-05
  Force max component initial, final = 2.17621 1.08445e-05
  Final line search alpha, max atom move = 0 0
  Iterations, force evaluations = 1876 1876

MPI task timing breakdown:
Section |  min time  |  avg time  |  max time  |%varavg| %total
---------------------------------------------------------------
Pair    | 0.1218     | 0.1218     | 0.1218     |   0.0 | 52.12
Bond    | 0.096096   | 0.096096   | 0.096096   |   0.0 | 41.12
Neigh   | 0          | 0          | 0          |   0.0 |  0.00
Comm    | 0.0089905  | 0.0089905  | 0.0089905  |   0.0 |  3.85
Output  | 0          | 0          | 0          |   0.0 |  0.00
Modify  | 0          | 0          | 0          |   0.0 |  0.00
Other   |            | 0.006803   |            |       |  2.91

Nlocal:    124 ave 124 max 124 min
Histogram: 1 0 0 0 0 0 0 0 0 0
Nghost:    1265 ave 1265 max 1265 min
Histogram: 1 0 0 0 0 0 0 0 0 0
Neighs:    6297 ave 6297 max 6297 min
Histogram: 1 0 0 0 0 0 0 0 0 0

Total # of neighbors = 6297
Ave neighs/atom = 50.7823
Ave special neighs/atom = 6.3871
Neighbor list builds = 0
Dangerous builds = 0
variable        AtomMinStep equal ${tempstp}
variable        AtomMinStep equal 20246
variable        temppe     equal $(pe)
variable        temppe     equal 1643.6160006342688575
variable        min_E      equal abs(${prev_E}-${temppe})
variable        min_E      equal abs(1643.91621844362-${temppe})
variable        min_E      equal abs(1643.91621844362-1643.61600063427)
print           "${iter},${CellMinStep},${AtomMinStep},${AtomMinStep},$(pe),${min_E}" append NiPyC2_relax_sc211_ortho_functionalized_PH2.min.csv screen no
if              "${min_E} < ${min_eval}" then "jump SELF break_min"
variable        prev_E     equal ${temppe}
variable        prev_E     equal 1643.61600063427
next            iter
jump            SELF loop_min
min_style       cg
fix             1 all box/relax aniso 0.0 vmax 0.01
minimize        1.0e-15 1.0e-15 10000 100000
WARNING: Using 'neigh_modify every 1 delay 0 check yes' setting during minimization (src/min.cpp:190)
WARNING: Inconsistent image flags (src/domain.cpp:785)
WARNING: Bond/angle/dihedral extent > half of periodic box length (src/domain.cpp:906)
Per MPI rank memory allocation (min/avg/max) = 16.89 | 16.89 | 16.89 Mbytes
Step Temp E_pair E_mol TotEng Press Volume 
   22122 1.7206167e-10    88.283451    1555.3325     1643.616   -846.14532     1610.503 
   22125 1.7206167e-10    89.485922    1553.9369    1643.4228    5.2610744    1608.5153 
WARNING: Bond/angle/dihedral extent > half of periodic box length (src/domain.cpp:906)
Loop time of 0.00912952 on 1 procs for 3 steps with 124 atoms

99.9% CPU use with 1 MPI tasks x 1 OpenMP threads

Minimization stats:
  Stopping criterion = linesearch alpha is zero
  Energy initial, next-to-last, final = 
         1643.61600063      1643.42283233      1643.42283233
  Force two-norm initial, final = 161.265 13.9369
  Force max component initial, final = 108.575 2.62613
  Final line search alpha, max atom move = 5.50846e-11 1.4466e-10
  Iterations, force evaluations = 3 59

MPI task timing breakdown:
Section |  min time  |  avg time  |  max time  |%varavg| %total
---------------------------------------------------------------
Pair    | 0.0043056  | 0.0043056  | 0.0043056  |   0.0 | 47.16
Bond    | 0.00343    | 0.00343    | 0.00343    |   0.0 | 37.57
Neigh   | 0          | 0          | 0          |   0.0 |  0.00
Comm    | 0.00029304 | 0.00029304 | 0.00029304 |   0.0 |  3.21
Output  | 0          | 0          | 0          |   0.0 |  0.00
Modify  | 0          | 0          | 0          |   0.0 |  0.00
Other   |            | 0.001101   |            |       | 12.06

Nlocal:    124 ave 124 max 124 min
Histogram: 1 0 0 0 0 0 0 0 0 0
Nghost:    1265 ave 1265 max 1265 min
Histogram: 1 0 0 0 0 0 0 0 0 0
Neighs:    6294 ave 6294 max 6294 min
Histogram: 1 0 0 0 0 0 0 0 0 0

Total # of neighbors = 6294
Ave neighs/atom = 50.7581
Ave special neighs/atom = 6.3871
Neighbor list builds = 0
Dangerous builds = 0
unfix           1
min_style       fire
variable        tempstp    equal $(step)
variable        tempstp    equal 22125
variable        CellMinStep equal ${tempstp}
variable        CellMinStep equal 22125
minimize        1.0e-15 1.0e-15 10000 100000
WARNING: Using 'neigh_modify every 1 delay 0 check yes' setting during minimization (src/min.cpp:190)
  Parameters for fire: 
    dmax delaystep dtgrow dtshrink alpha0 alphashrink tmax tmin    integrator halfstepback 
     0.1        20    1.1      0.5   0.25        0.99   10 0.02 eulerimplicit          yes 
WARNING: Inconsistent image flags (src/domain.cpp:785)
WARNING: Bond/angle/dihedral extent > half of periodic box length (src/domain.cpp:906)
Per MPI rank memory allocation (min/avg/max) = 15.76 | 15.76 | 15.76 Mbytes
Step Temp E_pair E_mol TotEng Press 
   22125            0    89.485922    1553.9369    1643.4228    5.2610744 
   24328 1.7799487e-10    88.815866    1554.4868    1643.3027    -418.8394 
WARNING: Bond/angle/dihedral extent > half of periodic box length (src/domain.cpp:906)
Loop time of 0.274279 on 1 procs for 2203 steps with 124 atoms

99.9% CPU use with 1 MPI tasks x 1 OpenMP threads

Minimization stats:
  Stopping criterion = energy tolerance
  Energy initial, next-to-last, final = 
         1643.42283233      1643.30269482      1643.30269482
  Force two-norm initial, final = 13.447 4.32979e-05
  Force max component initial, final = 2.13971 1.03213e-05
  Final line search alpha, max atom move = 0 0
  Iterations, force evaluations = 2203 2203

MPI task timing breakdown:
Section |  min time  |  avg time  |  max time  |%varavg| %total
---------------------------------------------------------------
Pair    | 0.14266    | 0.14266    | 0.14266    |   0.0 | 52.01
Bond    | 0.11303    | 0.11303    | 0.11303    |   0.0 | 41.21
Neigh   | 0          | 0          | 0          |   0.0 |  0.00
Comm    | 0.010615   | 0.010615   | 0.010615   |   0.0 |  3.87
Output  | 0          | 0          | 0          |   0.0 |  0.00
Modify  | 0          | 0          | 0          |   0.0 |  0.00
Other   |            | 0.007975   |            |       |  2.91

Nlocal:    124 ave 124 max 124 min
Histogram: 1 0 0 0 0 0 0 0 0 0
Nghost:    1265 ave 1265 max 1265 min
Histogram: 1 0 0 0 0 0 0 0 0 0
Neighs:    6305 ave 6305 max 6305 min
Histogram: 1 0 0 0 0 0 0 0 0 0

Total # of neighbors = 6305
Ave neighs/atom = 50.8468
Ave special neighs/atom = 6.3871
Neighbor list builds = 0
Dangerous builds = 0
variable        AtomMinStep equal ${tempstp}
variable        AtomMinStep equal 22125
variable        temppe     equal $(pe)
variable        temppe     equal 1643.3026948153683406
variable        min_E      equal abs(${prev_E}-${temppe})
variable        min_E      equal abs(1643.61600063427-${temppe})
variable        min_E      equal abs(1643.61600063427-1643.30269481537)
print           "${iter},${CellMinStep},${AtomMinStep},${AtomMinStep},$(pe),${min_E}" append NiPyC2_relax_sc211_ortho_functionalized_PH2.min.csv screen no
if              "${min_E} < ${min_eval}" then "jump SELF break_min"
variable        prev_E     equal ${temppe}
variable        prev_E     equal 1643.30269481537
next            iter
jump            SELF loop_min
min_style       cg
fix             1 all box/relax aniso 0.0 vmax 0.01
minimize        1.0e-15 1.0e-15 10000 100000
WARNING: Using 'neigh_modify every 1 delay 0 check yes' setting during minimization (src/min.cpp:190)
WARNING: Inconsistent image flags (src/domain.cpp:785)
WARNING: Bond/angle/dihedral extent > half of periodic box length (src/domain.cpp:906)
Per MPI rank memory allocation (min/avg/max) = 16.89 | 16.89 | 16.89 Mbytes
Step Temp E_pair E_mol TotEng Press Volume 
   24328 1.7799487e-10    88.815866    1554.4868    1643.3027    -418.8394    1608.5153 
   24333 1.7799487e-10    90.142861    1552.9604    1643.1032   -18.958525    1606.5523 
WARNING: Bond/angle/dihedral extent > half of periodic box length (src/domain.cpp:906)
Loop time of 0.00912961 on 1 procs for 5 steps with 124 atoms

99.9% CPU use with 1 MPI tasks x 1 OpenMP threads

Minimization stats:
  Stopping criterion = linesearch alpha is zero
  Energy initial, next-to-last, final = 
         1643.30269482      1643.10323769      1643.10323769
  Force two-norm initial, final = 148.144 19.1181
  Force max component initial, final = 110.28 4.18519
  Final line search alpha, max atom move = 2.51054e-11 1.05071e-10
  Iterations, force evaluations = 5 61

MPI task timing breakdown:
Section |  min time  |  avg time  |  max time  |%varavg| %total
---------------------------------------------------------------
Pair    | 0.0043037  | 0.0043037  | 0.0043037  |   0.0 | 47.14
Bond    | 0.0034182  | 0.0034182  | 0.0034182  |   0.0 | 37.44
Neigh   | 0          | 0          | 0          |   0.0 |  0.00
Comm    | 0.00029291 | 0.00029291 | 0.00029291 |   0.0 |  3.21
Output  | 0          | 0          | 0          |   0.0 |  0.00
Modify  | 0          | 0          | 0          |   0.0 |  0.00
Other   |            | 0.001115   |            |       | 12.21

Nlocal:    124 ave 124 max 124 min
Histogram: 1 0 0 0 0 0 0 0 0 0
Nghost:    1265 ave 1265 max 1265 min
Histogram: 1 0 0 0 0 0 0 0 0 0
Neighs:    6306 ave 6306 max 6306 min
Histogram: 1 0 0 0 0 0 0 0 0 0

Total # of neighbors = 6306
Ave neighs/atom = 50.8548
Ave special neighs/atom = 6.3871
Neighbor list builds = 0
Dangerous builds = 0
unfix           1
min_style       fire
variable        tempstp    equal $(step)
variable        tempstp    equal 24333
variable        CellMinStep equal ${tempstp}
variable        CellMinStep equal 24333
minimize        1.0e-15 1.0e-15 10000 100000
WARNING: Using 'neigh_modify every 1 delay 0 check yes' setting during minimization (src/min.cpp:190)
  Parameters for fire: 
    dmax delaystep dtgrow dtshrink alpha0 alphashrink tmax tmin    integrator halfstepback 
     0.1        20    1.1      0.5   0.25        0.99   10 0.02 eulerimplicit          yes 
WARNING: Inconsistent image flags (src/domain.cpp:785)
WARNING: Bond/angle/dihedral extent > half of periodic box length (src/domain.cpp:906)
Per MPI rank memory allocation (min/avg/max) = 15.76 | 15.76 | 15.76 Mbytes
Step Temp E_pair E_mol TotEng Press 
   24333            0    90.142861    1552.9604    1643.1032   -18.958525 
   26513 2.5382168e-10    89.286098    1553.6364    1642.9225   -114.55261 
WARNING: Bond/angle/dihedral extent > half of periodic box length (src/domain.cpp:906)
Loop time of 0.278388 on 1 procs for 2180 steps with 124 atoms

99.8% CPU use with 1 MPI tasks x 1 OpenMP threads

Minimization stats:
  Stopping criterion = energy tolerance
  Energy initial, next-to-last, final = 
         1643.10323769       1642.9225385       1642.9225385
  Force two-norm initial, final = 18.4959 4.57684e-05
  Force max component initial, final = 2.79907 1.12168e-05
  Final line search alpha, max atom move = 0 0
  Iterations, force evaluations = 2180 2180

MPI task timing breakdown:
Section |  min time  |  avg time  |  max time  |%varavg| %total
---------------------------------------------------------------
Pair    | 0.14496    | 0.14496    | 0.14496    |   0.0 | 52.07
Bond    | 0.11423    | 0.11423    | 0.11423    |   0.0 | 41.03
Neigh   | 0          | 0          | 0          |   0.0 |  0.00
Comm    | 0.010783   | 0.010783   | 0.010783   |   0.0 |  3.87
Output  | 0          | 0          | 0          |   0.0 |  0.00
Modify  | 0          | 0          | 0          |   0.0 |  0.00
Other   |            | 0.008413   |            |       |  3.02

Nlocal:    124 ave 124 max 124 min
Histogram: 1 0 0 0 0 0 0 0 0 0
Nghost:    1265 ave 1265 max 1265 min
Histogram: 1 0 0 0 0 0 0 0 0 0
Neighs:    6317 ave 6317 max 6317 min
Histogram: 1 0 0 0 0 0 0 0 0 0

Total # of neighbors = 6317
Ave neighs/atom = 50.9435
Ave special neighs/atom = 6.3871
Neighbor list builds = 0
Dangerous builds = 0
variable        AtomMinStep equal ${tempstp}
variable        AtomMinStep equal 24333
variable        temppe     equal $(pe)
variable        temppe     equal 1642.922538501847157
variable        min_E      equal abs(${prev_E}-${temppe})
variable        min_E      equal abs(1643.30269481537-${temppe})
variable        min_E      equal abs(1643.30269481537-1642.92253850185)
print           "${iter},${CellMinStep},${AtomMinStep},${AtomMinStep},$(pe),${min_E}" append NiPyC2_relax_sc211_ortho_functionalized_PH2.min.csv screen no
if              "${min_E} < ${min_eval}" then "jump SELF break_min"
variable        prev_E     equal ${temppe}
variable        prev_E     equal 1642.92253850185
next            iter
jump            SELF loop_min
min_style       cg
fix             1 all box/relax aniso 0.0 vmax 0.01
minimize        1.0e-15 1.0e-15 10000 100000
WARNING: Using 'neigh_modify every 1 delay 0 check yes' setting during minimization (src/min.cpp:190)
WARNING: Inconsistent image flags (src/domain.cpp:785)
WARNING: Bond/angle/dihedral extent > half of periodic box length (src/domain.cpp:906)
Per MPI rank memory allocation (min/avg/max) = 16.89 | 16.89 | 16.89 Mbytes
Step Temp E_pair E_mol TotEng Press Volume 
   26513 2.5382168e-10    89.286098    1553.6364    1642.9225   -114.55261    1606.5523 
   26518 2.5382168e-10     90.16294    1552.6009    1642.7638   -117.33969    1605.2264 
WARNING: Bond/angle/dihedral extent > half of periodic box length (src/domain.cpp:906)
Loop time of 0.0092481 on 1 procs for 5 steps with 124 atoms

99.9% CPU use with 1 MPI tasks x 1 OpenMP threads

Minimization stats:
  Stopping criterion = linesearch alpha is zero
  Energy initial, next-to-last, final = 
          1642.9225385       1642.7637906       1642.7637906
  Force two-norm initial, final = 131.326 18.1305
  Force max component initial, final = 104.467 4.77808
  Final line search alpha, max atom move = 2.66135e-11 1.27161e-10
  Iterations, force evaluations = 5 61

MPI task timing breakdown:
Section |  min time  |  avg time  |  max time  |%varavg| %total
---------------------------------------------------------------
Pair    | 0.004391   | 0.004391   | 0.004391   |   0.0 | 47.48
Bond    | 0.0034425  | 0.0034425  | 0.0034425  |   0.0 | 37.22
Neigh   | 0          | 0          | 0          |   0.0 |  0.00
Comm    | 0.00030322 | 0.00030322 | 0.00030322 |   0.0 |  3.28
Output  | 0          | 0          | 0          |   0.0 |  0.00
Modify  | 0          | 0          | 0          |   0.0 |  0.00
Other   |            | 0.001111   |            |       | 12.02

Nlocal:    124 ave 124 max 124 min
Histogram: 1 0 0 0 0 0 0 0 0 0
Nghost:    1259 ave 1259 max 1259 min
Histogram: 1 0 0 0 0 0 0 0 0 0
Neighs:    6318 ave 6318 max 6318 min
Histogram: 1 0 0 0 0 0 0 0 0 0

Total # of neighbors = 6318
Ave neighs/atom = 50.9516
Ave special neighs/atom = 6.3871
Neighbor list builds = 0
Dangerous builds = 0
unfix           1
min_style       fire
variable        tempstp    equal $(step)
variable        tempstp    equal 26518
variable        CellMinStep equal ${tempstp}
variable        CellMinStep equal 26518
minimize        1.0e-15 1.0e-15 10000 100000
WARNING: Using 'neigh_modify every 1 delay 0 check yes' setting during minimization (src/min.cpp:190)
  Parameters for fire: 
    dmax delaystep dtgrow dtshrink alpha0 alphashrink tmax tmin    integrator halfstepback 
     0.1        20    1.1      0.5   0.25        0.99   10 0.02 eulerimplicit          yes 
WARNING: Inconsistent image flags (src/domain.cpp:785)
WARNING: Bond/angle/dihedral extent > half of periodic box length (src/domain.cpp:906)
Per MPI rank memory allocation (min/avg/max) = 15.76 | 15.76 | 15.76 Mbytes
Step Temp E_pair E_mol TotEng Press 
   26518            0     90.16294    1552.6009    1642.7638   -117.33969 
   28611 2.1767691e-10     89.53633    1553.0954    1642.6317   -6.7060265 
WARNING: Bond/angle/dihedral extent > half of periodic box length (src/domain.cpp:906)
Loop time of 0.261612 on 1 procs for 2093 steps with 124 atoms

99.9% CPU use with 1 MPI tasks x 1 OpenMP threads

Minimization stats:
  Stopping criterion = energy tolerance
  Energy initial, next-to-last, final = 
          1642.7637906      1642.63173871      1642.63173871
  Force two-norm initial, final = 16.8347 4.78652e-05
  Force max component initial, final = 2.58912 1.22184e-05
  Final line search alpha, max atom move = 0 0
  Iterations, force evaluations = 2093 2093

MPI task timing breakdown:
Section |  min time  |  avg time  |  max time  |%varavg| %total
---------------------------------------------------------------
Pair    | 0.13658    | 0.13658    | 0.13658    |   0.0 | 52.21
Bond    | 0.10753    | 0.10753    | 0.10753    |   0.0 | 41.10
Neigh   | 0          | 0          | 0          |   0.0 |  0.00
Comm    | 0.0099308  | 0.0099308  | 0.0099308  |   0.0 |  3.80
Output  | 0          | 0          | 0          |   0.0 |  0.00
Modify  | 0          | 0          | 0          |   0.0 |  0.00
Other   |            | 0.007574   |            |       |  2.90

Nlocal:    124 ave 124 max 124 min
Histogram: 1 0 0 0 0 0 0 0 0 0
Nghost:    1257 ave 1257 max 1257 min
Histogram: 1 0 0 0 0 0 0 0 0 0
Neighs:    6321 ave 6321 max 6321 min
Histogram: 1 0 0 0 0 0 0 0 0 0

Total # of neighbors = 6321
Ave neighs/atom = 50.9758
Ave special neighs/atom = 6.3871
Neighbor list builds = 0
Dangerous builds = 0
variable        AtomMinStep equal ${tempstp}
variable        AtomMinStep equal 26518
variable        temppe     equal $(pe)
variable        temppe     equal 1642.6317387115816473
variable        min_E      equal abs(${prev_E}-${temppe})
variable        min_E      equal abs(1642.92253850185-${temppe})
variable        min_E      equal abs(1642.92253850185-1642.63173871158)
print           "${iter},${CellMinStep},${AtomMinStep},${AtomMinStep},$(pe),${min_E}" append NiPyC2_relax_sc211_ortho_functionalized_PH2.min.csv screen no
if              "${min_E} < ${min_eval}" then "jump SELF break_min"
variable        prev_E     equal ${temppe}
variable        prev_E     equal 1642.63173871158
next            iter
jump            SELF loop_min
min_style       cg
fix             1 all box/relax aniso 0.0 vmax 0.01
minimize        1.0e-15 1.0e-15 10000 100000
WARNING: Using 'neigh_modify every 1 delay 0 check yes' setting during minimization (src/min.cpp:190)
WARNING: Inconsistent image flags (src/domain.cpp:785)
WARNING: Bond/angle/dihedral extent > half of periodic box length (src/domain.cpp:906)
Per MPI rank memory allocation (min/avg/max) = 16.89 | 16.89 | 16.89 Mbytes
Step Temp E_pair E_mol TotEng Press Volume 
   28611 2.1767691e-10     89.53633    1553.0954    1642.6317   -6.7060265    1605.2264 
   28613 2.1767691e-10    89.528873    1553.0257    1642.5546   -385.84357    1605.2169 
WARNING: Bond/angle/dihedral extent > half of periodic box length (src/domain.cpp:906)
Loop time of 0.00790046 on 1 procs for 2 steps with 124 atoms

99.9% CPU use with 1 MPI tasks x 1 OpenMP threads

Minimization stats:
  Stopping criterion = linesearch alpha is zero
  Energy initial, next-to-last, final = 
         1642.63173871      1642.55456221      1642.55456221
  Force two-norm initial, final = 116.815 32.3084
  Force max component initial, final = 95.0974 27.257
  Final line search alpha, max atom move = 9.51256e-12 2.59284e-10
  Iterations, force evaluations = 2 53

MPI task timing breakdown:
Section |  min time  |  avg time  |  max time  |%varavg| %total
---------------------------------------------------------------
Pair    | 0.0037111  | 0.0037111  | 0.0037111  |   0.0 | 46.97
Bond    | 0.0029724  | 0.0029724  | 0.0029724  |   0.0 | 37.62
Neigh   | 0          | 0          | 0          |   0.0 |  0.00
Comm    | 0.00025121 | 0.00025121 | 0.00025121 |   0.0 |  3.18
Output  | 0          | 0          | 0          |   0.0 |  0.00
Modify  | 0          | 0          | 0          |   0.0 |  0.00
Other   |            | 0.0009657  |            |       | 12.22

Nlocal:    124 ave 124 max 124 min
Histogram: 1 0 0 0 0 0 0 0 0 0
Nghost:    1257 ave 1257 max 1257 min
Histogram: 1 0 0 0 0 0 0 0 0 0
Neighs:    6317 ave 6317 max 6317 min
Histogram: 1 0 0 0 0 0 0 0 0 0

Total # of neighbors = 6317
Ave neighs/atom = 50.9435
Ave special neighs/atom = 6.3871
Neighbor list builds = 0
Dangerous builds = 0
unfix           1
min_style       fire
variable        tempstp    equal $(step)
variable        tempstp    equal 28613
variable        CellMinStep equal ${tempstp}
variable        CellMinStep equal 28613
minimize        1.0e-15 1.0e-15 10000 100000
WARNING: Using 'neigh_modify every 1 delay 0 check yes' setting during minimization (src/min.cpp:190)
  Parameters for fire: 
    dmax delaystep dtgrow dtshrink alpha0 alphashrink tmax tmin    integrator halfstepback 
     0.1        20    1.1      0.5   0.25        0.99   10 0.02 eulerimplicit          yes 
WARNING: Inconsistent image flags (src/domain.cpp:785)
WARNING: Bond/angle/dihedral extent > half of periodic box length (src/domain.cpp:906)
Per MPI rank memory allocation (min/avg/max) = 15.76 | 15.76 | 15.76 Mbytes
Step Temp E_pair E_mol TotEng Press 
   28613            0    89.528873    1553.0257    1642.5546   -385.84357 
   30425 1.7928453e-10    89.456739    1552.9865    1642.4432   -204.42428 
WARNING: Bond/angle/dihedral extent > half of periodic box length (src/domain.cpp:906)
Loop time of 0.225691 on 1 procs for 1812 steps with 124 atoms

99.9% CPU use with 1 MPI tasks x 1 OpenMP threads

Minimization stats:
  Stopping criterion = energy tolerance
  Energy initial, next-to-last, final = 
         1642.55456221      1642.44324265      1642.44324265
  Force two-norm initial, final = 9.12777 4.61595e-05
  Force max component initial, final = 1.65223 9.72465e-06
  Final line search alpha, max atom move = 0 0
  Iterations, force evaluations = 1812 1812

MPI task timing breakdown:
Section |  min time  |  avg time  |  max time  |%varavg| %total
---------------------------------------------------------------
Pair    | 0.11786    | 0.11786    | 0.11786    |   0.0 | 52.22
Bond    | 0.092752   | 0.092752   | 0.092752   |   0.0 | 41.10
Neigh   | 0          | 0          | 0          |   0.0 |  0.00
Comm    | 0.0085152  | 0.0085152  | 0.0085152  |   0.0 |  3.77
Output  | 0          | 0          | 0          |   0.0 |  0.00
Modify  | 0          | 0          | 0          |   0.0 |  0.00
Other   |            | 0.006559   |            |       |  2.91

Nlocal:    124 ave 124 max 124 min
Histogram: 1 0 0 0 0 0 0 0 0 0
Nghost:    1257 ave 1257 max 1257 min
Histogram: 1 0 0 0 0 0 0 0 0 0
Neighs:    6315 ave 6315 max 6315 min
Histogram: 1 0 0 0 0 0 0 0 0 0

Total # of neighbors = 6315
Ave neighs/atom = 50.9274
Ave special neighs/atom = 6.3871
Neighbor list builds = 0
Dangerous builds = 0
variable        AtomMinStep equal ${tempstp}
variable        AtomMinStep equal 28613
variable        temppe     equal $(pe)
variable        temppe     equal 1642.4432426475666489
variable        min_E      equal abs(${prev_E}-${temppe})
variable        min_E      equal abs(1642.63173871158-${temppe})
variable        min_E      equal abs(1642.63173871158-1642.44324264757)
print           "${iter},${CellMinStep},${AtomMinStep},${AtomMinStep},$(pe),${min_E}" append NiPyC2_relax_sc211_ortho_functionalized_PH2.min.csv screen no
if              "${min_E} < ${min_eval}" then "jump SELF break_min"
variable        prev_E     equal ${temppe}
variable        prev_E     equal 1642.44324264757
next            iter
jump            SELF loop_min
min_style       cg
fix             1 all box/relax aniso 0.0 vmax 0.01
minimize        1.0e-15 1.0e-15 10000 100000
WARNING: Using 'neigh_modify every 1 delay 0 check yes' setting during minimization (src/min.cpp:190)
WARNING: Inconsistent image flags (src/domain.cpp:785)
WARNING: Bond/angle/dihedral extent > half of periodic box length (src/domain.cpp:906)
Per MPI rank memory allocation (min/avg/max) = 16.89 | 16.89 | 16.89 Mbytes
Step Temp E_pair E_mol TotEng Press Volume 
   30425 1.7928453e-10    89.456739    1552.9865    1642.4432   -204.42428    1605.2169 
   30432 1.7928453e-10    90.415625    1551.9258    1642.3414   -63.136375     1603.632 
WARNING: Bond/angle/dihedral extent > half of periodic box length (src/domain.cpp:906)
Loop time of 0.00982049 on 1 procs for 7 steps with 124 atoms

96.1% CPU use with 1 MPI tasks x 1 OpenMP threads

Minimization stats:
  Stopping criterion = linesearch alpha is zero
  Energy initial, next-to-last, final = 
         1642.44324265      1642.34137618      1642.34137618
  Force two-norm initial, final = 105.698 11.0861
  Force max component initial, final = 80.7065 4.31092
  Final line search alpha, max atom move = 8.60297e-11 3.70867e-10
  Iterations, force evaluations = 7 63

MPI task timing breakdown:
Section |  min time  |  avg time  |  max time  |%varavg| %total
---------------------------------------------------------------
Pair    | 0.0048308  | 0.0048308  | 0.0048308  |   0.0 | 49.19
Bond    | 0.0035422  | 0.0035422  | 0.0035422  |   0.0 | 36.07
Neigh   | 0          | 0          | 0          |   0.0 |  0.00
Comm    | 0.0003     | 0.0003     | 0.0003     |   0.0 |  3.05
Output  | 0          | 0          | 0          |   0.0 |  0.00
Modify  | 0          | 0          | 0          |   0.0 |  0.00
Other   |            | 0.001148   |            |       | 11.69

Nlocal:    124 ave 124 max 124 min
Histogram: 1 0 0 0 0 0 0 0 0 0
Nghost:    1251 ave 1251 max 1251 min
Histogram: 1 0 0 0 0 0 0 0 0 0
Neighs:    6314 ave 6314 max 6314 min
Histogram: 1 0 0 0 0 0 0 0 0 0

Total # of neighbors = 6314
Ave neighs/atom = 50.9194
Ave special neighs/atom = 6.3871
Neighbor list builds = 0
Dangerous builds = 0
unfix           1
min_style       fire
variable        tempstp    equal $(step)
variable        tempstp    equal 30432
variable        CellMinStep equal ${tempstp}
variable        CellMinStep equal 30432
minimize        1.0e-15 1.0e-15 10000 100000
WARNING: Using 'neigh_modify every 1 delay 0 check yes' setting during minimization (src/min.cpp:190)
  Parameters for fire: 
    dmax delaystep dtgrow dtshrink alpha0 alphashrink tmax tmin    integrator halfstepback 
     0.1        20    1.1      0.5   0.25        0.99   10 0.02 eulerimplicit          yes 
WARNING: Inconsistent image flags (src/domain.cpp:785)
WARNING: Bond/angle/dihedral extent > half of periodic box length (src/domain.cpp:906)
Per MPI rank memory allocation (min/avg/max) = 15.76 | 15.76 | 15.76 Mbytes
Step Temp E_pair E_mol TotEng Press 
   30432            0    90.415625    1551.9258    1642.3414   -63.136375 
   32721 2.5457427e-10    89.722689     1552.465    1642.1877   -10.715716 
WARNING: Bond/angle/dihedral extent > half of periodic box length (src/domain.cpp:906)
Loop time of 0.290072 on 1 procs for 2289 steps with 124 atoms

99.8% CPU use with 1 MPI tasks x 1 OpenMP threads

Minimization stats:
  Stopping criterion = energy tolerance
  Energy initial, next-to-last, final = 
         1642.34137618      1642.18770866      1642.18770866
  Force two-norm initial, final = 9.88939 5.00029e-05
  Force max component initial, final = 1.39948 1.02964e-05
  Final line search alpha, max atom move = 0 0
  Iterations, force evaluations = 2289 2289

MPI task timing breakdown:
Section |  min time  |  avg time  |  max time  |%varavg| %total
---------------------------------------------------------------
Pair    | 0.15168    | 0.15168    | 0.15168    |   0.0 | 52.29
Bond    | 0.1189     | 0.1189     | 0.1189     |   0.0 | 40.99
Neigh   | 0          | 0          | 0          |   0.0 |  0.00
Comm    | 0.010918   | 0.010918   | 0.010918   |   0.0 |  3.76
Output  | 0          | 0          | 0          |   0.0 |  0.00
Modify  | 0          | 0          | 0          |   0.0 |  0.00
Other   |            | 0.008574   |            |       |  2.96

Nlocal:    124 ave 124 max 124 min
Histogram: 1 0 0 0 0 0 0 0 0 0
Nghost:    1247 ave 1247 max 1247 min
Histogram: 1 0 0 0 0 0 0 0 0 0
Neighs:    6318 ave 6318 max 6318 min
Histogram: 1 0 0 0 0 0 0 0 0 0

Total # of neighbors = 6318
Ave neighs/atom = 50.9516
Ave special neighs/atom = 6.3871
Neighbor list builds = 0
Dangerous builds = 0
variable        AtomMinStep equal ${tempstp}
variable        AtomMinStep equal 30432
variable        temppe     equal $(pe)
variable        temppe     equal 1642.1877086584181598
variable        min_E      equal abs(${prev_E}-${temppe})
variable        min_E      equal abs(1642.44324264757-${temppe})
variable        min_E      equal abs(1642.44324264757-1642.18770865842)
print           "${iter},${CellMinStep},${AtomMinStep},${AtomMinStep},$(pe),${min_E}" append NiPyC2_relax_sc211_ortho_functionalized_PH2.min.csv screen no
if              "${min_E} < ${min_eval}" then "jump SELF break_min"
variable        prev_E     equal ${temppe}
variable        prev_E     equal 1642.18770865842
next            iter
jump            SELF loop_min
min_style       cg
fix             1 all box/relax aniso 0.0 vmax 0.01
minimize        1.0e-15 1.0e-15 10000 100000
WARNING: Using 'neigh_modify every 1 delay 0 check yes' setting during minimization (src/min.cpp:190)
WARNING: Inconsistent image flags (src/domain.cpp:785)
WARNING: Bond/angle/dihedral extent > half of periodic box length (src/domain.cpp:906)
Per MPI rank memory allocation (min/avg/max) = 16.89 | 16.89 | 16.89 Mbytes
Step Temp E_pair E_mol TotEng Press Volume 
   32721 2.5457427e-10    89.722689     1552.465    1642.1877   -10.715716     1603.632 
   32723 2.5457427e-10    89.733716    1552.4313     1642.165   -376.75044    1603.6172 
WARNING: Bond/angle/dihedral extent > half of periodic box length (src/domain.cpp:906)
Loop time of 0.0083228 on 1 procs for 2 steps with 124 atoms

99.8% CPU use with 1 MPI tasks x 1 OpenMP threads

Minimization stats:
  Stopping criterion = linesearch alpha is zero
  Energy initial, next-to-last, final = 
         1642.18770866      1642.16498503      1642.16498503
  Force two-norm initial, final = 93.663 30.0949
  Force max component initial, final = 75.4078 24.635
  Final line search alpha, max atom move = 1.00734e-11 2.48157e-10
  Iterations, force evaluations = 2 53

MPI task timing breakdown:
Section |  min time  |  avg time  |  max time  |%varavg| %total
---------------------------------------------------------------
Pair    | 0.0038956  | 0.0038956  | 0.0038956  |   0.0 | 46.81
Bond    | 0.0030869  | 0.0030869  | 0.0030869  |   0.0 | 37.09
Neigh   | 0          | 0          | 0          |   0.0 |  0.00
Comm    | 0.00025958 | 0.00025958 | 0.00025958 |   0.0 |  3.12
Output  | 0          | 0          | 0          |   0.0 |  0.00
Modify  | 0          | 0          | 0          |   0.0 |  0.00
Other   |            | 0.001081   |            |       | 12.99

Nlocal:    124 ave 124 max 124 min
Histogram: 1 0 0 0 0 0 0 0 0 0
Nghost:    1247 ave 1247 max 1247 min
Histogram: 1 0 0 0 0 0 0 0 0 0
Neighs:    6323 ave 6323 max 6323 min
Histogram: 1 0 0 0 0 0 0 0 0 0

Total # of neighbors = 6323
Ave neighs/atom = 50.9919
Ave special neighs/atom = 6.3871
Neighbor list builds = 0
Dangerous builds = 0
unfix           1
min_style       fire
variable        tempstp    equal $(step)
variable        tempstp    equal 32723
variable        CellMinStep equal ${tempstp}
variable        CellMinStep equal 32723
minimize        1.0e-15 1.0e-15 10000 100000
WARNING: Using 'neigh_modify every 1 delay 0 check yes' setting during minimization (src/min.cpp:190)
  Parameters for fire: 
    dmax delaystep dtgrow dtshrink alpha0 alphashrink tmax tmin    integrator halfstepback 
     0.1        20    1.1      0.5   0.25        0.99   10 0.02 eulerimplicit          yes 
WARNING: Inconsistent image flags (src/domain.cpp:785)
WARNING: Bond/angle/dihedral extent > half of periodic box length (src/domain.cpp:906)
Per MPI rank memory allocation (min/avg/max) = 15.76 | 15.76 | 15.76 Mbytes
Step Temp E_pair E_mol TotEng Press 
   32723            0    89.733716    1552.4313     1642.165   -376.75044 
   34353 1.6612972e-10    89.682124    1552.4135    1642.0956   -177.06669 
WARNING: Bond/angle/dihedral extent > half of periodic box length (src/domain.cpp:906)
Loop time of 0.207558 on 1 procs for 1630 steps with 124 atoms

99.9% CPU use with 1 MPI tasks x 1 OpenMP threads

Minimization stats:
  Stopping criterion = energy tolerance
  Energy initial, next-to-last, final = 
         1642.16498503      1642.09563839      1642.09563839
  Force two-norm initial, final = 7.55586 4.10155e-05
  Force max component initial, final = 1.38468 8.35258e-06
  Final line search alpha, max atom move = 0 0
  Iterations, force evaluations = 1630 1630

MPI task timing breakdown:
Section |  min time  |  avg time  |  max time  |%varavg| %total
---------------------------------------------------------------
Pair    | 0.10861    | 0.10861    | 0.10861    |   0.0 | 52.33
Bond    | 0.085045   | 0.085045   | 0.085045   |   0.0 | 40.97
Neigh   | 0          | 0          | 0          |   0.0 |  0.00
Comm    | 0.0077938  | 0.0077938  | 0.0077938  |   0.0 |  3.76
Output  | 0          | 0          | 0          |   0.0 |  0.00
Modify  | 0          | 0          | 0          |   0.0 |  0.00
Other   |            | 0.006107   |            |       |  2.94

Nlocal:    124 ave 124 max 124 min
Histogram: 1 0 0 0 0 0 0 0 0 0
Nghost:    1247 ave 1247 max 1247 min
Histogram: 1 0 0 0 0 0 0 0 0 0
Neighs:    6324 ave 6324 max 6324 min
Histogram: 1 0 0 0 0 0 0 0 0 0

Total # of neighbors = 6324
Ave neighs/atom = 51
Ave special neighs/atom = 6.3871
Neighbor list builds = 0
Dangerous builds = 0
variable        AtomMinStep equal ${tempstp}
variable        AtomMinStep equal 32723
variable        temppe     equal $(pe)
variable        temppe     equal 1642.0956383920924964
variable        min_E      equal abs(${prev_E}-${temppe})
variable        min_E      equal abs(1642.18770865842-${temppe})
variable        min_E      equal abs(1642.18770865842-1642.09563839209)
print           "${iter},${CellMinStep},${AtomMinStep},${AtomMinStep},$(pe),${min_E}" append NiPyC2_relax_sc211_ortho_functionalized_PH2.min.csv screen no
if              "${min_E} < ${min_eval}" then "jump SELF break_min"
variable        prev_E     equal ${temppe}
variable        prev_E     equal 1642.09563839209
next            iter
jump            SELF loop_min
min_style       cg
fix             1 all box/relax aniso 0.0 vmax 0.01
minimize        1.0e-15 1.0e-15 10000 100000
WARNING: Using 'neigh_modify every 1 delay 0 check yes' setting during minimization (src/min.cpp:190)
WARNING: Inconsistent image flags (src/domain.cpp:785)
WARNING: Bond/angle/dihedral extent > half of periodic box length (src/domain.cpp:906)
Per MPI rank memory allocation (min/avg/max) = 16.89 | 16.89 | 16.89 Mbytes
Step Temp E_pair E_mol TotEng Press Volume 
   34353 1.6612972e-10    89.682124    1552.4135    1642.0956   -177.06669    1603.6172 
   34354 1.6612972e-10    89.682124    1552.4135    1642.0956   -177.06669    1603.6172 
WARNING: Bond/angle/dihedral extent > half of periodic box length (src/domain.cpp:906)
Loop time of 0.00869837 on 1 procs for 1 steps with 124 atoms

99.9% CPU use with 1 MPI tasks x 1 OpenMP threads

Minimization stats:
  Stopping criterion = linesearch alpha is zero
  Energy initial, next-to-last, final = 
         1642.09563839      1642.09563839      1642.09563839
  Force two-norm initial, final = 85.3344 85.3344
  Force max component initial, final = 63.7435 63.7435
  Final line search alpha, max atom move = 1.16884e-12 7.45058e-11
  Iterations, force evaluations = 1 55

MPI task timing breakdown:
Section |  min time  |  avg time  |  max time  |%varavg| %total
---------------------------------------------------------------
Pair    | 0.0041308  | 0.0041308  | 0.0041308  |   0.0 | 47.49
Bond    | 0.0032155  | 0.0032155  | 0.0032155  |   0.0 | 36.97
Neigh   | 0          | 0          | 0          |   0.0 |  0.00
Comm    | 0.00027349 | 0.00027349 | 0.00027349 |   0.0 |  3.14
Output  | 0          | 0          | 0          |   0.0 |  0.00
Modify  | 0          | 0          | 0          |   0.0 |  0.00
Other   |            | 0.001079   |            |       | 12.40

Nlocal:    124 ave 124 max 124 min
Histogram: 1 0 0 0 0 0 0 0 0 0
Nghost:    1247 ave 1247 max 1247 min
Histogram: 1 0 0 0 0 0 0 0 0 0
Neighs:    6325 ave 6325 max 6325 min
Histogram: 1 0 0 0 0 0 0 0 0 0

Total # of neighbors = 6325
Ave neighs/atom = 51.0081
Ave special neighs/atom = 6.3871
Neighbor list builds = 0
Dangerous builds = 0
unfix           1
min_style       fire
variable        tempstp    equal $(step)
variable        tempstp    equal 34354
variable        CellMinStep equal ${tempstp}
variable        CellMinStep equal 34354
minimize        1.0e-15 1.0e-15 10000 100000
WARNING: Using 'neigh_modify every 1 delay 0 check yes' setting during minimization (src/min.cpp:190)
  Parameters for fire: 
    dmax delaystep dtgrow dtshrink alpha0 alphashrink tmax tmin    integrator halfstepback 
     0.1        20    1.1      0.5   0.25        0.99   10 0.02 eulerimplicit          yes 
WARNING: Inconsistent image flags (src/domain.cpp:785)
WARNING: Bond/angle/dihedral extent > half of periodic box length (src/domain.cpp:906)
Per MPI rank memory allocation (min/avg/max) = 15.76 | 15.76 | 15.76 Mbytes
Step Temp E_pair E_mol TotEng Press 
   34354            0    89.682124    1552.4135    1642.0956   -177.06669 
   34408 1.0123367e-10    89.682124    1552.4135    1642.0956     -177.065 
WARNING: Bond/angle/dihedral extent > half of periodic box length (src/domain.cpp:906)
Loop time of 0.00776274 on 1 procs for 54 steps with 124 atoms

99.9% CPU use with 1 MPI tasks x 1 OpenMP threads

Minimization stats:
  Stopping criterion = energy tolerance
  Energy initial, next-to-last, final = 
         1642.09563839      1642.09563839      1642.09563839
  Force two-norm initial, final = 4.10155e-05 3.39188e-05
  Force max component initial, final = 8.35258e-06 7.09556e-06
  Final line search alpha, max atom move = 0 0
  Iterations, force evaluations = 54 54

MPI task timing breakdown:
Section |  min time  |  avg time  |  max time  |%varavg| %total
---------------------------------------------------------------
Pair    | 0.004062   | 0.004062   | 0.004062   |   0.0 | 52.33
Bond    | 0.0030409  | 0.0030409  | 0.0030409  |   0.0 | 39.17
Neigh   | 0          | 0          | 0          |   0.0 |  0.00
Comm    | 0.00028204 | 0.00028204 | 0.00028204 |   0.0 |  3.63
Output  | 0          | 0          | 0          |   0.0 |  0.00
Modify  | 0          | 0          | 0          |   0.0 |  0.00
Other   |            | 0.0003777  |            |       |  4.87

Nlocal:    124 ave 124 max 124 min
Histogram: 1 0 0 0 0 0 0 0 0 0
Nghost:    1247 ave 1247 max 1247 min
Histogram: 1 0 0 0 0 0 0 0 0 0
Neighs:    6325 ave 6325 max 6325 min
Histogram: 1 0 0 0 0 0 0 0 0 0

Total # of neighbors = 6325
Ave neighs/atom = 51.0081
Ave special neighs/atom = 6.3871
Neighbor list builds = 0
Dangerous builds = 0
variable        AtomMinStep equal ${tempstp}
variable        AtomMinStep equal 34354
variable        temppe     equal $(pe)
variable        temppe     equal 1642.0956383919688051
variable        min_E      equal abs(${prev_E}-${temppe})
variable        min_E      equal abs(1642.09563839209-${temppe})
variable        min_E      equal abs(1642.09563839209-1642.09563839197)
print           "${iter},${CellMinStep},${AtomMinStep},${AtomMinStep},$(pe),${min_E}" append NiPyC2_relax_sc211_ortho_functionalized_PH2.min.csv screen no
if              "${min_E} < ${min_eval}" then "jump SELF break_min"
jump SELF break_min
undump          NiPyC2_relax_sc211_ortho_functionalized_PH2_xyzmov

# Dump last snapshot for restart
variable curr_lx equal lx
variable curr_ly equal ly
variable curr_lz equal lz
change_box all x final 0 ${curr_lx} y final 0 ${curr_ly} z final 0 ${curr_lz}
change_box all x final 0 15.0849714814024 y final 0 ${curr_ly} z final 0 ${curr_lz}
change_box all x final 0 15.0849714814024 y final 0 9.81150681035597 z final 0 ${curr_lz}
change_box all x final 0 15.0849714814024 y final 0 9.81150681035597 z final 0 10.8347904012673
  triclinic box = (0 1.35595 -0.280256) to (15.085 11.1675 10.5545) with tilt (0 -0.24001 0)
  triclinic box = (0 0 -0.280256) to (15.085 9.81151 10.5545) with tilt (0 -0.24001 0)
  triclinic box = (0 0 0) to (15.085 9.81151 10.8348) with tilt (0 -0.24001 0)

reset_timestep 0
dump            NiPyC2_relax_sc211_ortho_functionalized_PH2_restart all atom 1 NiPyC2_relax_sc211_ortho_functionalized_PH2_restart.lammpstrj
dump_modify     NiPyC2_relax_sc211_ortho_functionalized_PH2_restart scale no sort id
run 0
WARNING: No fixes defined, atoms won't move (src/verlet.cpp:52)
WARNING: Inconsistent image flags (src/domain.cpp:785)
WARNING: Bond/angle/dihedral extent > half of periodic box length (src/domain.cpp:906)
Per MPI rank memory allocation (min/avg/max) = 15.76 | 15.76 | 15.76 Mbytes
Step Temp E_pair E_mol TotEng Press 
       0 1.0123367e-10    89.682124    1552.4135    1642.0956     -177.065 
WARNING: Bond/angle/dihedral extent > half of periodic box length (src/domain.cpp:906)
Loop time of 8.21019e-07 on 1 procs for 0 steps with 124 atoms

0.0% CPU use with 1 MPI tasks x 1 OpenMP threads

MPI task timing breakdown:
Section |  min time  |  avg time  |  max time  |%varavg| %total
---------------------------------------------------------------
Pair    | 0          | 0          | 0          |   0.0 |  0.00
Bond    | 0          | 0          | 0          |   0.0 |  0.00
Neigh   | 0          | 0          | 0          |   0.0 |  0.00
Comm    | 0          | 0          | 0          |   0.0 |  0.00
Output  | 0          | 0          | 0          |   0.0 |  0.00
Modify  | 0          | 0          | 0          |   0.0 |  0.00
Other   |            | 8.21e-07   |            |       |100.00

Nlocal:    124 ave 124 max 124 min
Histogram: 1 0 0 0 0 0 0 0 0 0
Nghost:    1187 ave 1187 max 1187 min
Histogram: 1 0 0 0 0 0 0 0 0 0
Neighs:    6325 ave 6325 max 6325 min
Histogram: 1 0 0 0 0 0 0 0 0 0

Total # of neighbors = 6325
Ave neighs/atom = 51.0081
Ave special neighs/atom = 6.3871
Neighbor list builds = 0
Dangerous builds = 0
undump          NiPyC2_relax_sc211_ortho_functionalized_PH2_restart
Total wall time: 0:00:04
