ITEM: TIMESTEP
0
ITEM: NUMBER OF ATOMS
124
ITEM: BOX BOUNDS xy xz yz pp pp pp
-2.4001034881241171e-01 1.5084971481402400e+01 0.0000000000000000e+00
0.0000000000000000e+00 9.8115068103559704e+00 -2.4001034881241171e-01
0.0000000000000000e+00 1.0834790401267300e+01 0.0000000000000000e+00
ITEM: ATOMS id type x y z
1 1 2.23173 8.64495 8.86194
2 1 6.11035 3.78491 3.51373
3 2 15.0059 4.76746 3.55869
4 2 3.67435 7.64404 8.97746
5 2 4.63175 2.84698 3.56896
6 2 0.827463 9.66083 8.97049
7 2 5.66406 4.87325 4.8249
8 2 1.8121 7.53451 10.1759
9 2 14.1682 2.53609 4.75847
10 2 2.71112 0.0290059 10.0971
11 3 2.96055 9.77356 7.47519
12 3 14.542 2.52517 2.15614
13 3 1.43164 7.42365 7.61257
14 3 5.48407 5.09142 2.22637
15 4 3.3541 0.542328 5.1646
16 4 14.3947 1.50152 10.8191
17 5 3.08986 0.41692 4.12401
18 5 6.46824 1.77422 9.69748
19 4 4.48696 1.29179 5.51292
20 4 0.894777 1.14311 0.186817
21 4 4.86434 1.3217 6.8491
22 4 1.42336 1.29485 1.4529
23 5 13.4922 1.73448 7.22846
24 5 2.38183 0.855841 1.69939
25 4 1.42446 6.29514 5.49252
26 4 5.12332 5.83682 10.7806
27 5 1.93737 6.05719 4.5725
28 5 12.5993 5.30989 9.63082
29 4 2.1187 6.94466 6.53386
30 4 6.1028 5.29136 1.02168
31 5 3.17122 7.15205 6.43252
32 5 14.3968 4.60264 0.635855
33 4 2.49065 0.0600687 6.17778
34 4 13.8924 2.06467 1.04232
35 4 4.16278 0.558329 7.78544
36 4 0.76814 2.11224 2.37902
37 5 4.61107 0.398605 8.75373
38 4 0.138059 6.95403 7.84189
39 4 4.36195 5.85114 2.48292
40 4 14.5806 6.14974 6.8998
41 4 3.47246 6.04545 1.42703
42 5 6.17239 5.86676 7.22927
43 5 2.46421 6.38492 1.63605
44 4 0.0626554 5.96819 5.65726
45 4 4.0126 6.20975 0.150152
46 4 5.2451 2.08875 4.49573
47 4 1.45202 0.523679 9.92415
48 4 14.3622 5.36902 4.54329
49 4 3.03708 6.99718 9.96011
50 1 9.75937 8.78811 8.93439
51 1 13.6756 3.65535 3.44977
52 2 7.58433 4.69222 3.70998
53 2 11.2226 7.84381 9.08907
54 2 12.3347 2.552 3.5412
55 2 8.28871 9.72753 9.03116
56 2 13.1412 4.78887 4.7184
57 2 9.31073 7.62136 10.1976
58 2 6.49126 2.55044 4.72407
59 2 10.1609 0.14964 10.2032
60 3 10.492 0.184204 7.60989
61 3 6.83271 2.63592 2.14118
62 3 9.07479 7.57762 7.61417
63 3 12.859 4.76478 2.10531
64 4 10.8361 0.8428 5.31689
65 4 6.86151 1.87458 10.7018
66 5 10.4623 0.90972 4.30257
67 5 13.9414 1.3775 9.85069
68 4 12.1398 1.28977 5.61425
69 4 8.37441 1.36981 0.170471
70 4 12.5386 1.30653 6.94542
71 4 8.81865 1.43006 1.48155
72 5 5.7349 1.88428 7.16236
73 5 9.7746 1.00243 1.7593
74 4 8.82391 6.82367 5.35062
75 4 12.3605 5.49475 10.6697
76 5 9.1411 6.90832 4.32105
77 5 5.58735 5.95762 9.81188
78 4 9.63667 7.32669 6.38018
79 4 13.3909 4.93039 0.855057
80 5 7.13245 4.99225 0.877461
81 4 9.97961 0.396058 6.34843
82 4 6.28976 2.41049 0.888967
83 5 12.8331 2.24567 0.916732
84 4 11.7006 0.759452 7.92995
85 4 8.03024 2.04335 2.45379
86 5 12.0661 0.698139 8.937
87 5 8.42149 2.12084 3.45395
88 4 7.84285 7.03606 7.90687
89 4 11.6514 5.38547 2.39517
90 5 7.37154 7.25193 8.85329
91 4 7.12437 6.30815 6.9596
92 4 11.1219 6.33339 1.51535
93 5 13.6207 5.70536 7.13018
94 5 10.2683 6.93099 1.81708
95 4 7.61079 6.2006 5.66559
96 4 11.5102 6.3049 0.186826
97 4 12.9549 1.95013 4.54549
98 4 8.90588 0.617927 9.98729
99 4 6.92669 5.33938 4.67664
100 4 10.5638 7.13819 10.0156
101 6 0.73046 9.80557 5.80598
102 5 14.8971 9.44242 6.79588
103 5 0.504124 9.08805 4.61627
104 6 1.7839 2.83943 3.66055
105 5 1.42213 2.82548 5.01759
106 5 2.32359 4.06502 3.24256
107 6 14.2311 7.52185 9.22305
108 5 13.6306 8.77294 9.03246
109 5 14.5802 7.15621 10.5346
110 6 4.5071 7.28046 3.57129
111 5 3.28309 7.97094 3.53511
112 5 4.85052 7.11065 4.91822
113 6 8.20927 0.423365 6.0472
114 5 7.35908 9.44428 6.82883
115 5 7.97029 0.027951 4.71782
116 6 4.52012 2.45208 0.604324
117 5 3.74867 3.35541 1.33589
118 5 4.02841 2.69435 10.0754
119 6 11.4158 7.26321 6.14844
120 5 12.2186 8.17776 6.83773
121 5 11.7161 7.4051 4.78061
122 6 10.4888 4.62571 3.50829
123 5 10.7794 4.50267 4.87772
124 5 10.1597 3.41251 2.91637
