124
Atoms. Timestep: 0
Ni 2.89857 9.41116 8.59265
Ni 6.17525 3.10579 3.48481
O 1.44827 4.35425 3.93374
O 4.4416 8.15245 9.05464
O 4.63665 1.84729 3.87523
O 1.36499 10.6744 9.00295
O 5.80609 4.46033 4.96242
O 2.54244 8.0327 10.0675
O 0.25117 1.69264 4.94273
O 3.23722 10.8047 10.0626
N 3.69677 10.6606 7.2416
N 0.71256 1.8642 2.11704
N 2.17217 8.14409 7.25198
N 5.44023 4.39481 2.13747
C 3.48546 12.1483 5.36301
C 0.47488 0.38955 0.2292
H 2.86453 12.5181 4.55267
H 5.86971 0.03371 9.69377
C 4.76073 0.1474 5.61481
C 1.74333 12.3699 0.47412
C 5.50345 12.1502 6.68209
C 2.49852 0.35508 1.54004
H 0.24768 12.5084 6.91993
H 3.49155 12.5067 1.77336
C 2.48363 6.6337 5.40822
C 5.72803 5.90364 0.28669
H 3.13294 6.27291 4.61605
H -0.10828 6.26667 9.7662
C 2.92756 7.68099 6.23068
C 6.1883 4.86756 1.11596
H 3.89994 8.14655 6.0889
H 0.91589 4.41889 0.97634
C 2.98256 11.1359 6.19748
C -0.01036 1.40553 1.07106
C 4.93641 11.1381 7.47507
C 1.94823 1.3719 2.3406
H 5.48559 10.7097 8.30944
C 0.94573 7.62654 7.47302
C 4.21083 4.90458 2.35686
C 0.43859 6.57577 6.69176
C 3.68763 5.945 1.56944
H 5.70774 6.17693 6.91975
H 2.69824 6.32683 1.80071
C 1.22745 6.06471 5.65205
C 4.46338 6.45777 0.52027
C 5.3126 1.24381 4.79419
C 2.0502 11.2675 9.92158
C 0.73548 4.94016 4.83586
C 3.73174 7.56629 9.95688
Ni 9.15137 9.41116 8.59265
Ni 12.4281 3.10579 3.48481
O 7.70109 4.35425 3.93374
O 10.6944 8.15245 9.05464
O 10.8895 1.84729 3.87523
O 7.61779 10.6744 9.00295
O 12.0589 4.46033 4.96242
O 8.79524 8.0327 10.0675
O 6.50397 1.69264 4.94273
O 9.49002 10.8047 10.0626
N 9.94957 10.6606 7.2416
N 6.96536 1.8642 2.11704
N 8.42499 8.14409 7.25198
N 11.693 4.39481 2.13747
C 9.73826 12.1483 5.36301
C 6.72768 0.38955 0.2292
H 9.11733 12.5181 4.55267
H 12.1225 0.03371 9.69377
C 11.0135 0.1474 5.61481
C 7.99613 12.3699 0.47412
C 11.7562 12.1502 6.68209
C 8.75132 0.35508 1.54004
H 6.50047 12.5084 6.91993
H 9.74435 12.5067 1.77336
C 8.73644 6.6337 5.40822
C 11.9808 5.90364 0.28669
H 9.38574 6.27291 4.61605
H 6.14452 6.26667 9.7662
C 9.18036 7.68099 6.23068
C 12.4411 4.86756 1.11596
H 7.16869 4.41889 0.97634
C 9.23536 11.1359 6.19748
C 6.24244 1.40553 1.07106
H 11.5137 1.85011 0.92351
C 11.1892 11.1381 7.47507
C 8.20102 1.3719 2.3406
H 11.7384 10.7097 8.30944
H 8.76167 1.79214 3.17267
C 7.19853 7.62654 7.47302
C 10.4636 4.90458 2.35686
H 6.61608 8.05184 8.28732
C 6.69139 6.57577 6.69176
C 9.94043 5.945 1.56944
H 11.9605 6.17693 6.91975
H 8.95104 6.32683 1.80071
C 7.48025 6.06471 5.65205
C 10.7162 6.45777 0.52027
C 11.5654 1.24381 4.79419
C 8.303 11.2675 9.92158
C 6.98827 4.94016 4.83586
C 9.98454 7.56629 9.95688
P 1.27968 10.3895 5.90477
H 1.40001 9.27045 6.82318
H 1.66997 9.69837 4.68769
P 2.92173 2.10676 3.77737
H 1.83243 2.85105 4.38536
H 2.83291 0.90907 4.59521
P -0.06709 8.37331 8.87397
H 0.99275 9.16258 9.47726
H 0.04083 7.20079 9.7253
P 3.21207 4.16601 3.77422
H 4.06385 3.01748 4.03018
H 2.24795 3.51583 2.90304
P 7.53567 10.3841 5.90012
H 7.42882 9.65062 7.14945
H 6.81442 11.5796 6.3022
P 4.55078 2.18019 0.78525
H 4.69009 3.29199 1.70973
H 4.72232 2.87195 9.84571
P 10.8548 8.49412 5.95672
H 10.669 9.62376 6.85091
H 10.4598 9.14533 4.71934
P 9.46487 4.16601 3.77422
H 10.3166 3.01748 4.03018
H 8.50075 3.51583 2.90304
124
Atoms. Timestep: 232
Ni 2.23527 8.88393 8.88176
Ni 6.23847 3.63178 3.43629
O -0.162848 4.73241 3.75028
O 3.76816 8.02503 8.96015
O 4.79635 2.64209 3.46013
O 0.73055 9.77938 9.00797
O 5.77902 4.69133 4.77862
O 1.98404 7.78011 10.2527
O -1.17737 2.5738 4.9278
O 2.63046 10.1619 10.0672
N 2.85831 10.0408 7.44877
N -0.724426 2.50004 2.32576
N 1.45038 7.5377 7.7068
N 5.58549 4.9617 2.17852
C 3.44411 10.3439 5.11718
C -0.604008 1.49173 0.131959
H 3.24565 10.1036 4.08084
H 6.57079 1.52139 9.4636
C 4.52628 11.2075 5.4556
C 0.753762 1.15829 0.327147
C 4.76553 11.4228 6.7979
C 1.31511 1.42354 1.56073
H 13.5367 1.38664 7.20615
H 2.32674 11.1655 1.76252
C 1.24688 6.58696 5.50889
C 5.58535 6.08464 0.0355499
H 1.53759 6.7695 4.48524
H 12.544 5.10038 9.53183
C 2.05283 7.09004 6.56242
C 6.2532 5.31106 1.02384
H 3.07594 7.37018 6.34824
H -0.834974 4.4497 0.672497
C 2.50547 9.94563 6.12581
C -1.36397 2.00935 1.21271
C 4.00496 10.7473 7.76633
C 0.589119 2.12525 2.53927
H 4.42843 10.6538 8.75283
C 0.151233 7.07865 7.9835
C 4.43313 5.65512 2.4949
C -0.595757 6.37659 7.01149
C 3.97591 6.68895 1.68358
H 6.21973 5.81533 7.13546
H 3.15692 7.30821 2.02103
C -0.0642607 6.162 5.75321
C 4.3812 6.73393 0.368911
C 5.36224 1.8759 4.40047
C 1.32699 10.5522 9.90508
C -0.819898 5.41115 4.68954
C 3.26398 7.37477 10.0005
Ni 9.80026 8.70672 8.80728
Ni 13.6782 3.70245 3.59935
O 7.69194 4.57749 3.65728
O 11.2726 7.76299 8.94031
O 12.2682 2.67463 3.6591
O 8.32788 9.63587 8.91287
O 13.1693 4.88818 4.84606
O 9.3728 7.5135 10.0612
O 6.61511 2.35004 4.64004
O 10.2056 9.86164 10.0853
N 10.5221 9.93366 7.51653
N 6.97792 2.55573 2.04555
N 9.12128 7.52537 7.47143
N 12.9843 4.85521 2.22247
C 10.751 10.9529 5.34345
C 7.20936 1.6652 -0.187309
H 10.3526 11.1483 4.35491
H -1.28555 1.42066 9.80345
C 12.0485 1.29583 5.66308
C 8.46554 11.2109 0.147051
C 12.5435 11.1207 6.92798
C 8.95202 1.32416 1.42741
H 5.62021 1.93308 7.10419
H 9.87888 10.9392 1.72391
C 8.76407 6.89057 5.18842
C 12.6031 5.36148 -0.0919361
H 8.99007 7.08005 4.15323
H 5.71072 6.09844 9.67405
C 9.61468 7.37735 6.18934
C 13.4199 4.82699 0.923178
H 7.2241 4.88173 0.796256
C 9.94886 10.3265 6.31586
C 6.42344 2.29125 0.798786
H 12.8081 2.1471 1.1009
C 11.7771 10.3996 7.83778
C 8.22311 2.06732 2.34389
H 12.2125 10.1477 8.7915
H 8.66689 2.29005 3.30408
C 7.8946 6.98419 7.78108
C 11.8773 5.62533 2.51905
H 7.43829 7.20375 8.73273
C 7.1615 6.26888 6.84416
C 11.4622 6.59423 1.60651
H 13.6459 5.99511 7.25119
H 10.7803 7.37512 1.92654
C 7.62099 6.17228 5.54599
C 11.6194 6.30152 0.256568
C 12.8526 2.03553 4.66908
C 8.95534 10.3336 9.85963
C 7.01032 5.20731 4.61965
C 10.6365 7.05186 9.87413
P 0.783604 9.72548 5.66757
H -0.258587 9.64683 6.60605
H 0.616997 9.35096 4.32027
P 1.38764 2.38647 4.09581
H 1.19184 3.28763 5.16233
H 2.68272 2.24052 3.74353
P -0.672819 7.40809 9.56036
H -1.50021 8.54204 9.68575
H -0.03455 6.69165 0.0558714
P 3.26459 4.97404 3.61628
H 3.39735 4.95506 5.01594
H 2.01696 4.94887 2.99238
P 8.17905 10.2199 5.99092
H 7.15698 9.8776 6.88553
H 7.96618 9.60652 4.73381
P 4.68257 2.57517 0.421474
H 3.8232 3.13929 1.36762
H 4.32929 3.32432 9.88078
P 11.3768 7.44115 5.82212
H 12.2635 7.9297 6.79125
H 11.5942 8.13213 4.60033
P 10.5812 4.91456 3.49431
H 10.8354 4.292 4.73203
H 10.0052 4.04529 2.56708
124
Atoms. Timestep: 8228
Ni 2.23077 8.84799 8.8615
Ni 6.22603 3.63184 3.49169
O -0.196735 4.75949 3.67582
O 3.73872 7.93958 8.94569
O 4.79291 2.65287 3.55105
O 0.757364 9.77734 8.98527
O 5.79645 4.71964 4.82202
O 1.924 7.71754 10.1919
O -1.16423 2.5702 4.85271
O 2.64439 10.0891 10.0861
N 2.90799 10.02 7.47932
N -0.720076 2.52673 2.25083
N 1.4411 7.55771 7.62899
N 5.52914 4.92676 2.21001
C 3.4079 10.4578 5.15928
C -0.595907 1.42497 0.10262
H 3.18987 10.2441 4.12027
H 6.54959 1.50294 9.53958
C 4.57283 11.1961 5.50563
C 0.779753 11.2333 0.29062
C 4.87241 1.24257 6.85173
C 1.33443 1.46786 1.50676
H 13.5177 1.4952 7.18009
H 2.32297 11.1734 1.75004
C 1.14451 6.80035 5.37079
C 5.49387 5.97208 0.0286
H 1.39063 7.03976 4.34729
H 12.6687 5.29511 9.49921
C 1.98596 7.25967 6.41734
C 6.17567 5.238 1.03747
H 3.00289 7.55193 6.20047
H -0.804237 4.53411 0.686693
C 2.47859 10.0734 6.17982
C -1.35441 2.02843 1.1411
C 4.09853 10.6428 7.80425
C 0.602831 2.18874 2.45904
H 4.51569 10.5217 8.78956
C 0.186314 7.00486 7.93182
C 4.36477 5.61404 2.51177
C -0.505638 6.21414 6.99034
C 3.8351 6.5609 1.63752
H 6.33877 5.70416 7.20593
H 2.96583 7.14041 1.93214
C -0.0907216 6.19538 5.67144
C 4.26544 6.59532 0.335157
C 5.38311 1.89728 4.47724
C 1.3559 10.5173 9.90251
C -0.851378 5.42611 4.6175
C 3.18863 7.26777 9.95205
Ni 9.83119 8.77543 8.82422
Ni 13.6629 3.69811 3.53447
O 7.67905 4.58676 3.66777
O 11.3084 7.85095 8.95863
O 12.2698 2.64013 3.59596
O 8.35011 9.69402 8.93314
O 13.1479 4.87564 4.79558
O 9.40697 7.60366 10.0808
O 6.63179 2.38365 4.71467
O 10.2314 9.94919 10.0916
N 10.5395 9.98845 7.5165
N 6.95313 2.51437 2.1191
N 9.15571 7.56412 7.50633
N 12.9321 4.82622 2.17522
C 10.7863 10.8771 5.29211
C 7.18744 1.64648 -0.118425
H 10.3919 11.0131 4.29494
H -1.30333 1.18929 9.81578
C 12.0812 1.25604 5.59999
C 8.4604 11.2222 0.197024
C 12.5472 11.1812 6.89517
C 8.93973 1.30416 1.48424
H 5.7465 1.79717 7.16935
H 9.90924 10.9824 1.76328
C 8.84825 6.84761 5.23989
C 12.666 5.48018 -0.113824
H 9.09831 6.99717 4.1989
H 5.66721 6.03002 9.68337
C 9.68098 7.36678 6.24741
C 13.4425 4.9033 0.907783
H 7.1726 4.8643 0.848574
C 9.97999 10.2958 6.29323
C 6.39871 2.25811 0.877442
H 12.8207 2.18543 1.00724
C 11.7692 10.5124 7.83637
C 8.1696 1.96423 2.43232
H 12.1951 10.3132 8.80238
H 8.58368 2.10951 3.41573
C 7.95463 6.97223 7.8283
C 11.7659 5.51283 2.4595
H 7.4903 7.18006 8.77876
C 7.25298 6.20224 6.90594
C 11.3052 6.48096 1.57739
H 13.8124 5.71479 7.27292
H 10.5076 7.15068 1.88202
C 7.69576 6.13419 5.59574
C 11.625 6.35122 0.240411
C 12.871 2.00602 4.59372
C 8.97417 10.4076 9.8736
C 7.02349 5.23792 4.63059
C 10.6629 7.13539 9.88295
P 0.709553 10.0155 5.80569
H -0.176527 9.45288 6.7339
H 0.480266 9.51027 4.51171
P 1.38981 2.46599 4.01414
H 1.15517 3.40496 5.03427
H 2.68026 2.36344 3.68631
P -0.731503 7.47435 9.40183
H -1.44427 8.68116 9.3439
H -0.0886462 6.95571 -0.00822279
P 3.30999 5.08651 3.80738
H 3.61305 5.7703 4.98575
H 2.04249 5.21339 3.24832
P 8.20412 10.2432 6.02062
H 7.39464 9.35439 6.73808
H 7.96602 9.96812 4.66089
P 4.6341 2.4158 0.562804
H 3.81888 3.19832 1.38766
H 4.19839 2.84484 9.8895
P 11.4572 7.37005 5.95318
H 12.3088 8.12645 6.76701
H 11.7098 7.73151 4.61653
P 10.525 4.76101 3.47546
H 10.7855 4.46476 4.8252
H 10.1037 3.65613 2.73834
124
Atoms. Timestep: 8237
Ni 2.22329 8.84361 8.87812
Ni 6.2256 3.63612 3.48222
O -0.210514 4.76436 3.67149
O 3.73076 7.93397 8.96777
O 4.79224 2.65597 3.54508
O 0.749994 9.77427 9.00596
O 5.79597 4.72332 4.81349
O 1.91674 7.71421 10.2099
O -1.17747 2.57531 4.84449
O 2.63647 10.084 10.1039
N 2.90114 10.0156 7.48985
N -0.732635 2.52942 2.23767
N 1.43323 7.55302 7.64098
N 5.52927 4.93164 2.19644
C 3.40277 10.4507 5.16404
C -0.606536 1.43435 0.0812744
H 3.1845 10.2383 4.12133
H 6.55049 1.51188 9.56648
C 4.56931 11.1888 5.5097
C 0.770782 11.2252 0.268906
C 4.86922 1.25011 6.85777
C 1.32513 1.47565 1.48811
H 13.5282 1.50286 7.18847
H 2.31506 11.1656 1.73242
C 1.1346 6.80061 5.37611
C 5.49137 5.97142 0.00749315
H 1.38192 7.03769 4.34921
H 12.6785 5.29702 9.52657
C 1.97634 7.25931 6.42549
C 6.17359 5.2389 1.0198
H 2.99553 7.54956 6.207
H -0.817561 4.53702 0.666591
C 2.47253 10.0673 6.18774
C -1.36553 2.03615 1.12302
C 4.09407 10.6358 7.81324
C 0.59211 2.19404 2.44435
H 4.51026 10.5158 8.80231
C 0.175981 7.00337 7.94199
C 4.36179 5.61585 2.49547
C -0.517259 6.21496 6.99697
C 3.83083 6.55969 1.61737
H 6.33952 5.70525 7.21431
H 2.96107 7.13867 1.91474
C -0.101842 6.19503 5.67599
C 4.26155 6.59499 0.313188
C 5.38057 1.90522 4.47581
C 1.34658 10.51 9.92715
C -0.86315 5.42685 4.6165
C 3.18304 7.26692 9.97721
Ni 9.83659 8.77142 8.84039
Ni 13.6752 3.70203 3.52538
O 7.67815 4.59219 3.66311
O 11.3133 7.84556 8.97901
O 12.2827 2.64339 3.59165
O 8.35606 9.69143 8.95315
O 13.1602 4.87875 4.78726
O 9.41262 7.60054 10.0982
O 6.63112 2.38914 4.70615
O 10.2364 9.94413 10.1092
N 10.545 9.98535 7.52827
N 6.95281 2.51747 2.10447
N 9.16126 7.55953 7.51766
N 12.944 4.83054 2.1601
C 10.7941 10.8684 5.29692
C 7.1896 1.65515 -0.139837
H 10.3996 11.0043 4.29623
H -1.31571 11.2559 9.84325
C 12.0906 1.26447 5.60416
C 8.4641 11.2138 0.17501
C 12.5562 11.1732 6.90154
C 8.943 1.31207 1.46444
H 5.74431 1.80405 7.1776
H 9.91407 10.9748 1.74526
C 8.85156 6.84785 5.24489
C 12.6764 5.48098 -0.134786
H 9.10245 6.99565 4.20036
H 5.66429 6.02956 9.71099
C 9.68535 7.36516 6.25574
C 13.453 4.90492 0.89012
H 7.17261 4.86664 0.828954
C 9.98689 10.289 6.30155
C 6.39983 2.26478 0.859524
H 12.8332 2.19217 0.988
C 11.7774 10.5062 7.84589
C 8.17209 1.97044 2.4156
H 12.2028 10.3079 8.81543
H 8.58572 2.11517 3.40227
C 7.95762 6.97044 7.83756
C 11.7754 5.51428 2.44182
H 7.49384 7.17724 8.79181
C 7.25503 6.20252 6.91213
C 11.3129 6.47967 1.55653
H -1.43742 5.71604 7.2819
H 10.5155 7.1489 1.86428
C 7.69774 6.13414 5.59983
C 11.6338 6.35152 0.218303
C 12.8814 2.01342 4.59244
C 8.97769 10.4005 9.89781
C 7.02466 5.23922 4.62921
C 10.6701 7.13489 9.90778
P 0.700553 10.0075 5.80897
H -0.186191 9.44863 6.74029
H 0.470766 9.50623 4.51223
P 1.37938 2.47137 4.00415
H 1.14636 3.40799 5.03137
H 2.67352 2.36969 3.67949
P -0.740374 7.46971 9.4199
H -1.45755 8.67656 9.36446
H -0.100094 6.95576 -0.0368215
P 3.30733 5.0918 3.79843
H 3.60756 5.7699 4.98226
H 2.03641 5.21506 3.2402
P 8.20797 10.2348 6.02378
H 7.39725 9.35035 6.74547
H 7.96923 9.9628 4.66258
P 4.6323 2.42434 0.540115
H 3.81593 3.20226 1.36854
H 4.1947 2.8493 9.91648
P 11.4646 7.37057 5.95648
H 12.3171 8.12237 6.77422
H 11.718 7.72815 4.61783
P 10.5353 4.76374 3.46744
H 10.7923 4.46853 4.81961
H 10.1102 3.66125 2.72778
124
Atoms. Timestep: 14823
Ni 2.17025 8.71143 8.83141
Ni 6.11175 3.70341 3.53712
O -0.172645 4.72413 3.58975
O 3.61275 7.70374 8.94335
O 4.61574 2.77768 3.59156
O 0.766532 9.73023 8.94192
O 5.686 4.79704 4.85809
O 1.7573 7.59215 10.1533
O -1.00991 2.47841 4.79036
O 2.65157 9.91183 10.0697
N 2.91215 9.8454 7.44222
N -0.614026 2.48187 2.18296
N 1.35361 7.49204 7.58107
N 5.48502 5.02939 2.24927
C 3.29608 10.5123 5.14543
C -0.513656 1.38695 0.0398909
H 3.02602 10.4203 4.10286
H 6.45016 1.52217 9.63169
C 4.45018 11.2292 5.5098
C 0.832129 11.0848 0.256756
C 4.84716 11.1842 6.83945
C 1.3655 1.24104 1.51019
H 13.5619 1.55811 7.24299
H 2.33101 10.8811 1.76597
C 1.3159 6.35653 5.46011
C 5.29294 5.78648 -0.031921
H 1.81606 6.12857 4.52889
H 12.677 5.37389 9.53788
C 2.02062 7.02768 6.48442
C 6.05107 5.1909 1.0117
H 3.06378 7.25882 6.35717
H -0.811574 4.55889 0.644199
C 2.43624 9.98906 6.1497
C -1.25626 2.00375 1.07191
C 4.13198 10.4054 7.7573
C 0.704411 2.08242 2.41277
H 4.57955 10.2121 8.72012
C 0.0570911 7.02856 7.82157
C 4.40029 5.83506 2.54451
C -0.598947 6.21652 6.89142
C 3.47426 6.06821 1.52245
H 6.23406 5.85503 7.25241
H 2.491 6.44973 1.77322
C -0.0378377 5.99883 5.65212
C 3.9673 6.22242 0.225658
C 5.21938 2.00503 4.51402
C 1.39217 10.4112 9.88799
C -0.819395 5.33346 4.56525
C 2.98496 7.05393 9.92903
Ni 9.8094 8.83681 8.88593
Ni 13.7634 3.6074 3.47811
O 7.60187 4.59744 3.73574
O 11.2816 7.8981 9.04651
O 12.4247 2.49773 3.56307
O 8.32966 9.7708 8.97508
O 13.2251 4.74382 4.75229
O 9.36874 7.66401 10.1542
O 6.47477 2.45204 4.74687
O 10.1924 10.021 10.1594
N 10.5547 10.05 7.56325
N 6.83702 2.54805 2.16289
N 9.1219 7.61509 7.56507
N 12.9327 4.72124 2.13327
C 10.9201 10.7755 5.28745
C 7.09152 1.67732 -0.0804254
H 10.552 10.8762 4.27399
H -1.21141 11.2645 9.78683
C 12.2183 11.2339 5.60895
C 8.37952 11.2591 0.229795
C 12.6094 11.1981 6.94041
C 8.83841 1.34076 1.52837
H 5.74132 1.64577 7.16184
H 9.80443 10.9996 1.81441
C 8.85482 6.78953 5.32071
C 12.6692 5.51639 -0.122617
H 9.16476 6.83669 4.28684
H 5.49331 5.90974 9.69127
C 9.67109 7.35034 6.32726
C 13.4548 4.90239 0.879939
H 7.06285 4.8577 0.824559
C 10.0566 10.2787 6.2979
C 6.28703 2.27414 0.922889
H 12.9498 2.18855 0.934016
C 11.7657 10.6158 7.90282
C 8.04974 1.98656 2.48197
H 12.1284 10.5258 8.91033
H 8.44389 2.09837 3.47838
C 7.89303 7.07124 7.87691
C 11.7193 5.33092 2.43415
H 7.42589 7.30344 8.82225
C 7.17679 6.30096 6.95947
C 11.188 6.30416 1.58058
H 13.6961 5.79381 7.12948
H 10.3337 6.89146 1.89941
C 7.65069 6.1547 5.66663
C 11.5761 6.31866 0.252666
C 13.0394 1.88809 4.56411
C 8.93128 10.4803 9.93398
C 6.9587 5.2477 4.70853
C 10.6282 7.18791 9.97213
P 0.675726 9.91454 5.77907
H -0.239569 9.53067 6.76484
H 0.456106 9.20248 4.58484
P 1.71457 2.81691 3.7009
H 1.34502 2.76313 5.05521
H 2.26857 4.0418 3.29459
P -0.915725 7.5888 9.22228
H -1.53088 8.83685 9.05807
H -0.333746 7.16842 -0.18552
P 4.63864 7.24989 3.63758
H 3.54026 8.11764 3.50158
H 4.80817 7.00563 5.00576
P 8.28749 10.2973 5.9779
H 7.44358 9.47788 6.7372
H 8.06424 9.93959 4.63518
P 4.51618 2.34551 0.638361
H 3.77602 3.31393 1.32355
H 4.02893 2.51955 9.96854
P 11.4498 7.31535 6.07599
H 12.2535 8.21572 6.78433
H 11.7367 7.47613 4.70735
P 10.5586 4.55115 3.54116
H 10.8513 4.45468 4.91254
H 10.2303 3.33152 2.95658
124
Atoms. Timestep: 14837
Ni 2.1972 8.68337 8.83656
Ni 6.11198 3.73131 3.5332
O -0.12927 4.76023 3.58406
O 3.63451 7.6751 8.94794
O 4.62354 2.80928 3.58686
O 0.799263 9.70303 8.94409
O 5.6817 4.81904 4.85061
O 1.78023 7.56938 10.155
O -0.953582 2.51666 4.78535
O 2.68363 9.87945 10.0704
N 2.92865 9.80993 7.44813
N -0.571545 2.51823 2.1828
N 1.38883 7.46734 7.58917
N 5.49362 5.04726 2.24607
C 3.31493 10.4506 5.14915
C -0.473503 1.44741 0.0335021
H 3.04395 10.3634 4.10403
H 6.44348 1.58209 9.63774
C 4.46436 11.1671 5.51214
C 0.871266 11.0282 0.250268
C 4.86421 11.1305 6.84217
C 1.40578 1.29535 1.50427
H 13.5293 1.62425 7.24457
H 2.37191 10.8131 1.75894
C 1.35284 6.35574 5.46152
C 5.30494 5.7899 -0.0369153
H 1.85058 6.132 4.52555
H 12.6349 5.37631 9.54575
C 2.05771 7.01197 6.49001
C 6.0641 5.21027 1.00879
H 3.1005 7.24974 6.35993
H -0.747044 4.57615 0.638692
C 2.45513 9.94154 6.15317
C -1.216 2.0481 1.06961
C 4.15024 10.3607 7.76075
C 0.745384 2.12413 2.41069
H 4.59665 10.1666 8.72461
C 0.0933549 7.00884 7.82695
C 4.4113 5.84863 2.54052
C -0.562712 6.21085 6.89275
C 3.48588 6.07606 1.51997
H 6.2155 5.84935 7.25346
H 2.49917 6.45402 1.76718
C -0.00035106 6.00327 5.65333
C 3.98037 6.21877 0.220346
C 5.22766 2.04418 4.51297
C 1.42669 10.3785 9.89225
C -0.778385 5.36311 4.56211
C 3.00395 7.03083 9.93438
Ni 9.78376 8.80634 8.89079
Ni 13.7128 3.63936 3.47574
O 7.59677 4.62535 3.73115
O 11.2504 7.87045 9.05066
O 12.3821 2.52589 3.55896
O 8.30891 9.73815 8.97935
O 13.1687 4.77148 4.74557
O 9.33786 7.63811 10.1557
O 6.48052 2.48743 4.74009
O 10.172 9.9863 10.1604
N 10.5194 10.0153 7.5696
N 6.82774 2.58146 2.16217
N 9.10652 7.58868 7.5729
N 12.8909 4.74483 2.13043
C 10.8857 10.7167 5.29038
C 7.08405 1.73738 -0.0859127
H 10.5182 10.8175 4.2736
H -1.16865 11.2069 9.79133
C 12.1822 11.1704 5.612
C 8.36909 11.2018 0.224398
C 12.5746 11.1442 6.94391
C 8.82964 1.3952 1.52421
H 5.76031 1.71415 7.16333
H 9.7978 10.9335 1.80842
C 8.83647 6.79112 5.32368
C 12.626 5.5154 -0.127597
H 9.14673 6.83722 4.28768
H 5.50145 5.91138 9.69716
C 9.6536 7.33599 6.33099
C 13.414 4.91848 0.87615
H 7.07551 4.87137 0.818875
C 10.0229 10.234 6.30126
C 6.27991 2.31909 0.918556
H 12.8875 2.23909 0.927903
C 11.7306 10.5736 7.90686
C 8.04064 2.02876 2.47903
H 12.0948 10.479 8.91397
H 8.43554 2.14369 3.4755
C 7.87688 7.05315 7.8819
C 11.6793 5.35309 2.43143
H 7.40884 7.28804 8.82758
C 7.16002 6.29502 6.96247
C 11.1473 6.31432 1.57411
H 13.63 5.78759 7.12956
H 10.2898 6.90044 1.89094
C 7.63599 6.15785 5.66911
C 11.5371 6.31713 0.246387
C 12.9988 1.92434 4.5634
C 8.91346 10.4427 9.93985
C 6.95201 5.26611 4.70839
C 10.5955 7.16656 9.97829
P 0.695475 9.87619 5.777
H -0.205404 9.48948 6.77041
H 0.491202 9.16369 4.57925
P 1.75159 2.85373 3.70395
H 1.37865 2.8071 5.0591
H 2.30027 4.07932 3.29002
P -0.878873 7.56485 9.23024
H -1.48707 8.81623 9.06281
H -0.289818 7.15572 -0.187865
P 4.64792 7.25654 3.63845
H 3.54354 8.10736 3.49865
H 4.81489 7.00187 5.00726
P 8.2567 10.257 5.9765
H 7.42541 9.43489 6.74243
H 8.04939 9.89285 4.63172
P 4.51133 2.38493 0.629434
H 3.78343 3.35441 1.32178
H 4.04002 2.56646 9.97169
P 11.4303 7.29356 6.0746
H 12.2215 8.19641 6.78988
H 11.7015 7.46293 4.70326
P 10.5222 4.57581 3.54316
H 10.8176 4.47472 4.91589
H 10.2017 3.3585 2.9496
124
Atoms. Timestep: 17938
Ni 2.20603 8.67261 8.82913
Ni 6.10989 3.74756 3.53931
O -0.126364 4.74629 3.57615
O 3.64377 7.66596 8.94149
O 4.62374 2.81727 3.59004
O 0.807321 9.69261 8.93424
O 5.67234 4.83621 4.85544
O 1.78571 7.56166 10.1479
O -0.949957 2.50497 4.77677
O 2.69109 9.87026 10.0629
N 2.9439 9.79723 7.44335
N -0.569017 2.50766 2.17658
N 1.39502 7.45515 7.58468
N 5.48535 5.06336 2.25699
C 3.33117 10.4317 5.14441
C -0.467511 1.4466 0.0233685
H 3.06491 10.3287 4.10192
H 6.4679 1.66455 9.62781
C 4.47434 11.1616 5.5067
C 0.876332 11.0228 0.239217
C 4.8643 11.144 6.83797
C 1.40346 1.26939 1.49999
H 13.5263 1.64642 7.23206
H 2.36453 10.7765 1.75452
C 1.36826 6.32276 5.46799
C 5.32515 5.80933 -0.0220865
H 1.87051 6.09521 4.53868
H 12.6196 5.35095 9.54853
C 2.07039 6.98061 6.49803
C 6.07807 5.24629 1.03683
H 3.11874 7.19741 6.38223
H -0.751487 4.5826 0.646969
C 2.47019 9.92391 6.14938
C -1.21262 2.03617 1.06454
C 4.15824 10.3667 7.75797
C 0.744577 2.10146 2.40876
H 4.60857 10.18 8.72076
C 0.100984 6.98848 7.82512
C 4.38018 5.84272 2.53462
C -0.548051 6.17616 6.89471
C 3.46975 6.04817 1.49814
H 6.19372 5.88126 7.24143
H 2.47245 6.40533 1.72894
C 0.0116293 5.97967 5.65206
C 3.98469 6.20692 0.21109
C 5.23389 2.04904 4.51006
C 1.43449 10.3713 9.88033
C -0.77244 5.34834 4.55612
C 3.00928 7.01951 9.92385
Ni 9.7814 8.82142 8.89732
Ni 13.7137 3.62767 3.46889
O 7.59073 4.64562 3.7359
O 11.2463 7.87966 9.05551
O 12.3813 2.51658 3.55423
O 8.30919 9.75923 8.9847
O 13.1729 4.75773 4.74149
O 9.33296 7.65577 10.1643
O 6.48249 2.50432 4.74619
O 10.1755 10.0007 10.1648
N 10.5222 10.0261 7.57474
N 6.83264 2.59893 2.1678
N 9.09454 7.60577 7.58227
N 12.8843 4.73511 2.12967
C 10.8879 10.7021 5.28993
C 7.10063 1.79094 -0.0909774
H 10.5222 10.7805 4.27356
H -1.15763 11.231 9.77705
C 12.1868 11.1568 5.60444
C 8.37918 11.2353 0.22103
C 12.5749 11.1569 6.93698
C 8.82528 1.39247 1.52744
H 5.74771 1.74622 7.15899
H 9.78423 10.9118 1.81221
C 8.83572 6.80643 5.33393
C 12.6176 5.50738 -0.127253
H 9.15026 6.86461 4.30188
H 5.53718 5.93404 9.72166
C 9.65095 7.34008 6.34896
C 13.4083 4.91414 0.877915
H 7.10083 4.93516 0.871457
C 10.0227 10.2389 6.30857
C 6.28939 2.35308 0.919839
H 12.8908 2.21714 0.930611
C 11.7298 10.5987 7.90826
C 8.0352 2.01952 2.4875
H 12.0901 10.5271 8.91718
H 8.4267 2.11493 3.48606
C 7.86189 7.06988 7.88681
C 11.6742 5.34716 2.43174
H 7.39222 7.30109 8.83087
C 7.14315 6.31993 6.95892
C 11.1424 6.31188 1.57321
H 13.6512 5.74106 7.13245
H 10.2895 6.90311 1.88895
C 7.62468 6.18458 5.66791
C 11.5278 6.31162 0.244985
C 13.002 1.91097 4.55317
C 8.91988 10.4672 9.93818
C 6.93986 5.29375 4.70409
C 10.5875 7.17357 9.97945
P 0.70995 9.85356 5.77708
H -0.209342 9.47831 6.76204
H 0.488322 9.14259 4.58257
P 1.75523 2.83713 3.69312
H 1.39524 2.79673 5.05044
H 2.30013 4.06249 3.28036
P -0.882265 7.56289 9.21191
H -1.48695 8.8127 9.02611
H -0.302084 7.17542 -0.199875
P 4.57149 7.27224 3.61708
H 3.38902 8.03008 3.55276
H 4.86414 7.07741 4.9726
P 8.25429 10.2641 5.99026
H 7.40045 9.47212 6.7668
H 8.02741 9.8719 4.65782
P 4.51941 2.40466 0.632109
H 3.76013 3.33828 1.34087
H 4.03282 2.61217 9.98133
P 11.4301 7.28388 6.10963
H 12.2332 8.19977 6.79789
H 11.725 7.42167 4.74027
P 10.5157 4.57021 3.54017
H 10.8062 4.4631 4.91118
H 10.1999 3.3518 2.95047
124
Atoms. Timestep: 17941
Ni 2.20964 8.66758 8.83387
Ni 6.10985 3.75279 3.53725
O -0.120115 4.74948 3.57414
O 3.64597 7.66301 8.94639
O 4.62515 2.82443 3.58804
O 0.812297 9.6855 8.93912
O 5.67261 4.83918 4.85505
O 1.78963 7.55895 10.1543
O -0.942916 2.51279 4.77628
O 2.69421 9.86275 10.0692
N 2.94684 9.78988 7.44632
N -0.562279 2.51546 2.17279
N 1.39951 7.45265 7.58785
N 5.486 5.06587 2.2533
C 3.33385 10.423 5.14445
C -0.460764 1.45664 0.0168121
H 3.06789 10.3202 4.1006
H 6.46718 1.67414 9.6336
C 4.47583 11.1514 5.50717
C 0.881702 11.0129 0.232908
C 4.86537 11.1338 6.84016
C 1.40828 11.1943 1.49531
H 13.5186 1.65604 7.23475
H 2.36835 10.7671 1.75017
C 1.37288 6.32264 5.46843
C 5.32607 5.81027 -0.0286942
H 1.87469 6.09557 4.53792
H 12.6127 5.35284 9.55422
C 2.0743 6.97912 6.49978
C 6.07822 5.2484 1.03156
H 3.12158 7.19547 6.38384
H -0.744466 4.58609 0.641195
C 2.47365 9.91626 6.15069
C -1.20522 2.04498 1.0593
C 4.15995 10.3582 7.76131
C 0.749987 2.11011 2.40523
H 4.60977 10.1718 8.72536
C 0.106757 6.98695 7.82855
C 4.38191 5.8436 2.53122
C -0.541614 6.17632 6.89697
C 3.47244 6.04864 1.49346
H 6.19339 5.88204 7.24413
H 2.47613 6.40504 1.72455
C 0.0176213 5.98025 5.65271
C 3.98696 6.20704 0.204752
C 5.23467 2.0578 4.50928
C 1.43883 10.3627 9.88646
C -0.765623 5.35026 4.5554
C 3.01203 7.01791 9.93002
Ni 9.77739 8.81609 8.90215
Ni 13.706 3.63315 3.46673
O 7.58922 4.64901 3.7341
O 11.2408 7.87627 9.06054
O 12.3749 2.52435 3.5522
O 8.30661 9.75197 8.98964
O 13.1657 4.76087 4.74095
O 9.32928 7.65286 10.1707
O 6.48206 2.51214 4.74565
O 10.1711 9.99296 10.1713
N 10.5175 10.0182 7.57789
N 6.83194 2.60655 2.16399
N 9.09129 7.60295 7.58543
N 12.8775 4.7383 2.12581
C 10.883 10.6928 5.29016
C 7.09978 1.80027 -0.0976709
H 10.5176 10.7711 4.27247
H -1.15069 1.30616 9.78304
C 12.1806 11.1466 5.60503
C 8.37701 1.31039 0.2147
C 12.5682 11.1467 6.9393
C 8.82264 1.4026 1.5228
H 5.74786 1.75565 7.16159
H 9.78059 10.9021 1.80793
C 8.83283 6.80531 5.33421
C 12.6112 5.50894 -0.133991
H 9.14712 6.86336 4.30082
H 5.5374 5.93471 9.72757
C 9.64723 7.33785 6.35052
C 13.4011 4.91693 0.872439
H 7.09994 4.93792 0.86597
C 10.0185 10.2306 6.31008
C 6.28927 2.36124 0.914419
H 12.8841 2.22557 0.9252
C 11.7239 10.5897 7.91179
C 8.03328 2.02835 2.48406
H 12.0838 10.5182 8.92203
H 8.42432 2.12356 3.48392
C 7.85985 7.06818 7.89032
C 11.6686 5.34909 2.42823
H 7.39061 7.29892 8.83561
C 7.14186 6.31979 6.96127
C 11.1373 6.31179 1.56862
H 13.6433 5.74214 7.13501
H 10.2854 6.90179 1.88477
C 7.62302 6.18474 5.66859
C 11.5225 6.31151 0.238683
C 12.995 1.92002 4.55244
C 8.91668 10.4584 9.94437
C 6.93892 5.29577 4.70355
C 10.5826 7.17166 9.9857
P 0.715185 9.84607 5.7779
H -0.2032 9.47161 6.76413
H 0.493875 9.13659 4.58187
P 1.75956 2.84424 3.69128
H 1.39986 2.80395 5.05031
H 2.30393 4.06708 3.27797
P -0.875574 7.56015 9.21715
H -1.47965 8.8074 9.03111
H -0.295498 7.17352 -0.206752
P 4.573 7.27013 3.61514
H 3.39169 8.02641 3.55072
H 4.86527 7.07572 4.97238
P 8.25193 10.2557 5.99134
H 7.39893 9.46543 6.7689
H 8.02538 9.86438 4.65722
P 4.52108 2.41269 0.626295
H 3.76255 3.34437 1.33599
H 4.03454 2.61977 9.98758
P 11.4246 7.28175 6.11086
H 12.2268 8.19573 6.80003
H 11.7193 7.41926 4.73977
P 10.5112 4.57375 3.53813
H 10.8014 4.46685 4.91087
H 10.1958 3.35786 2.94766
124
Atoms. Timestep: 20000
Ni 2.21125 8.6674 8.83264
Ni 6.10988 3.75429 3.53652
O -0.118041 4.74992 3.57345
O 3.6493 7.66147 8.94533
O 4.62521 2.82283 3.58748
O 0.812193 9.68699 8.93785
O 5.67056 4.84263 4.85177
O 1.79062 7.55698 10.1506
O -0.942369 2.50993 4.77396
O 2.6959 9.86463 10.0663
N 2.94781 9.79196 7.44696
N -0.563147 2.51106 2.17396
N 1.40181 7.44961 7.58798
N 5.48529 5.06841 2.25391
C 3.33599 10.4184 5.14652
C -0.462572 1.45622 0.0180467
H 3.07019 10.3122 4.10422
H 6.46924 1.68555 9.63523
C 4.47728 11.1513 5.50717
C 0.881269 11.0117 0.232361
C 4.86535 11.1408 6.83917
C 1.40817 11.1883 1.49419
H 13.5202 1.66116 7.23099
H 2.36867 10.7582 1.74778
C 1.37793 6.31773 5.47122
C 5.33157 5.8138 -0.0251888
H 1.88148 6.08914 4.54301
H 12.6136 5.3449 9.55834
C 2.079 6.97396 6.50282
C 6.08258 5.25457 1.03654
H 3.1281 7.18895 6.38929
H -0.740562 4.58615 0.645937
C 2.47469 9.91431 6.15248
C -1.20751 2.0412 1.06167
C 4.16041 10.3651 7.76112
C 0.749855 2.10366 2.40526
H 4.61076 10.1818 8.72452
C 0.10802 6.98233 7.82723
C 4.3771 5.84412 2.52813
C -0.539831 6.17078 6.89555
C 3.46998 6.04674 1.48862
H 6.18816 5.8824 7.23897
H 2.47063 6.40052 1.7158
C 0.0205704 5.97721 5.6527
C 3.98908 6.2064 0.203294
C 5.2361 2.056 4.50814
C 1.43919 10.365 9.88478
C -0.76381 5.35145 4.55422
C 3.0141 7.01514 9.9275
Ni 9.77709 8.81682 8.90217
Ni 13.7061 3.63187 3.46627
O 7.58935 4.65368 3.73298
O 11.2413 7.87451 9.05982
O 12.3732 2.52154 3.55231
O 8.30556 9.75513 8.99049
O 13.1659 4.76193 4.73835
O 9.32809 7.65152 10.1686
O 6.48398 2.51256 4.74365
O 10.1728 9.99513 10.1694
N 10.5167 10.0212 7.57935
N 6.83248 2.606 2.16508
N 9.0905 7.60214 7.58689
N 12.8783 4.73917 2.12681
C 10.8799 10.6925 5.29314
C 7.10145 1.80715 -0.0963655
H 10.5133 10.7685 4.27686
H -1.15253 1.3103 9.78465
C 12.1794 11.1461 5.6053
C 8.3787 1.31354 0.214853
C 12.5686 11.1501 6.93772
C 8.8237 1.39938 1.5223
H 5.74663 1.7678 7.15929
H 9.7818 10.8954 1.80625
C 8.83319 6.80937 5.33657
C 12.6122 5.5053 -0.131719
H 9.14837 6.87118 4.3049
H 5.54569 5.93822 9.73346
C 9.64802 7.33794 6.3538
C 13.4032 4.91654 0.87529
H 7.10675 4.94606 0.87487
C 10.0156 10.2331 6.31369
C 6.2897 2.3642 0.916137
H 12.8805 2.22195 0.928909
C 11.7243 10.5946 7.91099
C 8.03375 2.02385 2.48408
H 12.085 10.5252 8.91977
H 8.42503 2.11619 3.48296
C 7.85762 7.06625 7.88959
C 11.6686 5.35237 2.42763
H 7.38759 7.29578 8.83382
C 7.13863 6.32027 6.95877
C 11.137 6.3147 1.5664
H 13.6448 5.73384 7.13251
H 10.2842 6.90688 1.8804
C 7.62141 6.18833 5.66763
C 11.5226 6.31038 0.238083
C 12.9942 1.91657 4.5517
C 8.9176 10.4623 9.94391
C 6.9372 5.30159 4.70068
C 10.5821 7.16875 9.98393
P 0.71447 9.84468 5.78014
H -0.204893 9.47115 6.76561
H 0.49222 9.13309 4.58611
P 1.76111 2.83851 3.68905
H 1.40154 2.80178 5.04654
H 2.3048 4.06394 3.27529
P -0.876777 7.55674 9.21264
H -1.48036 8.80683 9.02527
H -0.295674 7.17338 -0.211931
P 4.56063 7.2745 3.61057
H 3.36924 8.01872 3.5534
H 4.86591 7.08553 4.96414
P 8.24702 10.2585 5.99735
H 7.39285 9.46875 6.77571
H 8.01857 9.86381 4.66592
P 4.51983 2.41336 0.628519
H 3.75799 3.34148 1.34123
H 4.03272 2.6268 9.99247
P 11.4272 7.27977 6.11607
H 12.2303 8.19634 6.80329
H 11.7232 7.4167 4.74685
P 10.5099 4.57748 3.53668
H 10.8002 4.46812 4.90752
H 10.1934 3.35972 2.94642
124
Atoms. Timestep: 20244
Ni 2.21125 8.6674 8.83264
Ni 6.10988 3.75429 3.53652
O -0.118041 4.74991 3.57345
O 3.6493 7.66147 8.94533
O 4.62521 2.82283 3.58748
O 0.812193 9.68699 8.93784
O 5.67056 4.84263 4.85177
O 1.79062 7.55698 10.1506
O -0.942369 2.50993 4.77396
O 2.6959 9.86463 10.0663
N 2.94781 9.79196 7.44696
N -0.563148 2.51106 2.17396
N 1.40181 7.44961 7.58798
N 5.48529 5.06841 2.25391
C 3.33599 10.4184 5.14652
C -0.462571 1.45622 0.0180445
H 3.07019 10.3122 4.10422
H 6.46924 1.68555 9.63523
C 4.47728 11.1513 5.50717
C 0.88127 11.0117 0.23236
C 4.86535 11.1408 6.83917
C 1.40817 11.1883 1.49419
H 13.5202 1.66116 7.23099