ITEM: TIMESTEP
0
ITEM: NUMBER OF ATOMS
124
ITEM: BOX BOUNDS xy xz yz pp pp pp
-2.2759399999999999e-01 1.2505599999999999e+01 0.0000000000000000e+00
0.0000000000000000e+00 1.2523400000000001e+01 -2.2759399999999999e-01
0.0000000000000000e+00 1.0274279000000000e+01 0.0000000000000000e+00
ITEM: ATOMS id type x y z
1 1 2.96981 9.47677 8.89105
2 1 6.25956 2.94343 3.55953
3 2 1.29657 4.31648 3.88032
4 2 4.46793 8.44186 9.09049
5 2 4.78409 1.91868 3.70618
6 2 1.48025 10.5171 9.04094
7 2 5.83656 4.07066 4.83696
8 2 2.55369 8.28035 10.2013
9 2 0.158307 2.14502 4.90491
10 2 3.37771 10.7047 10.1825
11 3 3.73372 10.7431 7.47822
12 3 0.612054 2.05054 2.26179
13 3 2.19836 8.17888 7.51544
14 3 5.52154 4.22452 2.24095
15 4 4.09108 11.5654 5.17784
16 4 0.353212 0.332235 0.515806
17 5 6.58141 0.823718 9.18428
18 4 4.83159 0.160078 5.61459
19 4 1.73373 12.4705 0.571465
20 4 5.04893 0.248413 6.99155
21 4 2.54415 0.764438 1.40178
22 5 3.61925 0.633402 1.38915
23 4 2.08555 7.04265 5.32574
24 4 5.87959 5.83744 0.434866
25 5 2.46204 6.97964 4.31426
26 4 2.70157 7.95939 6.24595
27 4 6.31362 4.75034 1.26669
28 5 3.65492 8.36785 5.96898
29 5 1.08673 5.51788 1.84824
30 4 3.41327 10.7301 6.13252
31 4 12.3128 1.27 1.46466
32 5 2.52001 10.2458 5.80153
33 5 5.58154 2.21036 0.606807
34 4 4.61543 11.7303 7.88053
35 4 1.97185 1.82122 2.21257
36 5 4.97647 11.7376 8.89045
37 5 2.62545 2.447 2.79019
38 4 1.13098 7.38385 7.89795
39 4 4.31666 4.84818 2.49723
40 5 0.667696 7.55263 8.85446
41 5 3.77354 4.58017 3.38955
42 4 0.684863 6.26674 7.10531
43 4 3.85302 5.97021 1.71725
44 5 2.97706 6.50123 2.03656
45 4 1.12236 6.11734 5.76247
46 4 4.60243 6.4854 0.639247
47 4 5.46871 1.20093 4.64035
48 4 2.1266 11.2347 10.0101
49 4 0.560986 5.00829 4.79774
50 4 3.80606 7.74457 10.0622
51 1 9.07432 9.43731 8.50574
52 1 12.3217 3.31631 3.60228
53 2 7.75344 3.96615 3.73124
54 2 10.5909 8.44797 8.73799
55 2 10.8094 2.30367 3.69423
56 2 7.55294 10.4205 8.67175
57 2 11.8046 4.51457 4.84095
58 2 8.63998 8.25792 9.78919
59 2 6.70213 1.73544 4.80871
60 2 9.47531 10.6234 9.76965
61 3 9.75687 10.7084 7.0926
62 3 6.97284 1.73053 2.15283
63 3 8.44159 8.16081 7.08808
64 3 11.7185 4.56275 2.14774
65 4 9.4578 0.295618 5.83662
66 4 6.74447 0.667529 10.2237
67 5 8.82367 1.14405 5.66303
68 4 10.8222 0.390369 5.51157
69 4 7.84014 12.1539 0.366402
70 4 11.652 11.911 6.0687
71 4 8.29738 12.2375 1.70302
72 5 5.56626 1.11135 7.37549
73 4 8.91702 6.29056 5.5425
74 4 12.0071 6.72483 0.973647
75 5 9.65151 5.73455 4.98229
76 4 9.34342 7.39758 6.36751
77 4 0.0373667 5.5591 1.64937
78 5 10.3974 7.63043 6.41728
79 5 7.26193 4.27152 1.06339
80 4 8.93003 11.6794 6.54392
81 4 6.41626 1.59269 0.900168
82 5 7.86199 11.6096 6.66644
83 5 11.2509 1.46173 1.45077
84 4 11.0954 10.7707 6.76867
85 4 7.99386 0.86676 2.49184
86 5 11.7662 10.0114 7.14627
87 5 8.51874 1.01019 3.41368
88 4 7.09735 7.91794 6.8787
89 4 10.3897 4.61474 1.79326
90 5 6.37006 8.55199 7.36034
91 5 9.71214 3.8669 2.16406
92 4 6.6446 6.72312 6.18783
93 4 9.86275 5.69306 1.00416
94 5 8.81154 5.88658 1.05145
95 4 7.55632 5.91384 5.47108
96 4 10.7092 6.6642 0.419777
97 4 11.4209 1.62941 4.71211
98 4 8.23235 11.1247 9.63361
99 4 7.07305 4.61508 4.71124
100 4 9.90201 7.77689 9.71793
101 6 4.07114 11.1042 3.44477
102 5 5.24974 10.4246 3.09092
103 5 2.93324 10.3284 3.14632
104 6 11.7147 0.127856 9.29503
105 5 10.363 0.412531 9.55979
106 5 12.0588 1.22456 8.48681
107 6 12.2565 4.95806 7.90684
108 5 10.9596 4.84917 7.37403
109 5 0.450879 3.74291 7.77867
110 6 6.56109 6.05248 9.23633
111 5 7.94406 5.89802 9.27659
112 5 6.3586 4.82631 8.58019
113 6 0.873435 12.2341 6.21084
114 5 1.22212 0.792694 7.03761
115 5 1.3995 12.4227 4.92055
116 6 9.03031 10.8064 2.50406
117 5 10.1457 11.1685 3.28323
118 5 8.0484 10.1549 3.27907
119 6 4.97683 6.10816 6.46092
120 5 4.38775 6.62484 7.60271
121 5 4.90476 4.75945 6.85598
122 6 0.134027 8.33743 1.44949
123 5 1.19943 8.3041 2.37222
124 5 0.1745 9.28985 0.416718
