ITEM: TIMESTEP
0
ITEM: NUMBER OF ATOMS
124
ITEM: BOX BOUNDS xy xz yz pp pp pp
-2.5394883305006338e-01 1.3662118199026800e+01 0.0000000000000000e+00
0.0000000000000000e+00 9.4700244895562609e+00 -2.5394883305006338e-01
0.0000000000000000e+00 1.1464015582488001e+01 0.0000000000000000e+00
ITEM: ATOMS id type x y z
1 1 2.69811 8.53201 9.08817
2 1 6.10108 3.87761 3.48201
3 2 0.655216 4.95309 3.4329
4 2 4.0737 7.47189 9.35314
5 2 4.7596 2.75414 3.61359
6 2 1.31887 0.170978 9.10926
7 2 5.6043 4.87353 4.81265
8 2 2.12132 7.54239 10.4214
9 2 13.3476 2.74717 4.35325
10 2 3.20529 0.303053 10.2612
11 3 3.52913 0.0453238 7.65235
12 3 0.0494177 2.87121 1.77345
13 3 1.9279 7.27508 7.84582
14 3 5.22318 5.07273 2.30623
15 4 3.85288 0.428186 5.28934
16 4 0.0728199 2.36906 10.884
17 5 5.90324 2.03539 10.3029
18 4 4.96133 1.23355 5.55088
19 4 1.27801 1.67597 11.1347
20 4 5.41201 1.33293 6.87143
21 4 2.01664 1.68142 0.983676
22 5 2.97556 1.23628 1.20734
23 4 2.05059 6.02927 5.7826
24 4 5.54427 6.29378 0.332191
25 5 2.65421 5.6829 4.95328
26 4 2.67868 6.6138 6.90481
27 4 5.90647 6.03411 1.63056
28 5 3.74638 6.76043 6.88047
29 5 0.36096 5.94632 1.22072
30 4 3.08384 9.42681 6.35614
31 4 13.191 2.80898 0.50812
32 5 2.20377 8.87984 6.12267
33 5 5.01331 2.81696 0.890338
34 4 4.72967 0.654995 7.89413
35 4 1.28124 2.30895 2.01403
36 5 5.19623 0.547585 8.8563
37 5 1.71957 2.37811 2.99947
38 4 0.57825 7.05782 7.89316
39 4 3.88661 4.9284 2.04954
40 5 0.0107619 7.425 8.73348
41 5 3.2587 4.35625 2.71255
42 4 -0.0762281 6.32706 6.8823
43 4 3.34101 5.48084 0.885147
44 5 2.32573 5.25434 0.603715
45 4 0.645525 5.94924 5.7255
46 4 4.16963 6.21217 0.0253121
47 4 5.54386 2.08119 4.48024
48 4 1.99435 0.874868 10.0492
49 4 -0.0464483 5.49846 4.45325
50 4 3.32662 6.94105 10.3402
51 1 9.3045 9.00719 9.01167
52 1 12.8991 3.93734 3.16663
53 2 7.47912 4.9555 3.62106
54 2 10.754 8.01281 9.22155
55 2 11.4665 2.89279 3.20896
56 2 7.85503 0.52868 9.10476
57 2 12.3623 4.98778 4.4694
58 2 8.8182 7.9159 10.3096
59 2 6.74373 2.68139 4.61177
60 2 9.76661 0.721858 10.2056
61 3 10.0259 0.640753 7.64001
62 3 6.81302 2.9067 2.02417
63 3 8.62141 7.80097 7.71294
64 3 12.1773 5.15684 1.89126
65 4 9.96016 1.53011 5.39504
66 4 6.44004 2.07012 11.2361
67 5 9.38958 1.74269 4.51604
68 4 11.3624 1.64583 5.38041
69 4 7.77938 1.65941 11.3075
70 4 12.0565 1.26472 6.5376
71 4 8.67961 1.73684 1.09011
72 5 6.30264 1.89559 7.1054
73 4 8.72129 6.81425 5.52346
74 4 12.3658 6.86867 0.201275
75 5 9.24155 6.69936 4.58012
76 4 9.32631 7.51713 6.57244
77 4 12.9597 5.92784 1.07434
78 5 10.3273 7.90001 6.4421
79 5 6.87696 6.36212 1.96133
80 4 9.3028 1.02454 6.54045
81 4 6.06919 2.60111 0.915556
82 5 8.2461 0.815396 6.49365
83 5 12.1973 3.18968 0.316543
84 4 11.3589 0.892008 7.68527
85 4 8.13219 2.56744 2.06462
86 5 11.9089 0.648461 8.57848
87 5 8.74636 2.91649 2.87257
88 4 7.37235 7.26931 7.88471
89 4 10.8189 5.33084 1.8797
90 5 6.75034 7.62015 8.69117
91 5 10.2127 4.90295 2.66372
92 4 6.87436 6.31999 6.97818
93 4 10.2056 6.11069 0.897642
94 5 9.15418 6.33146 0.979203
95 4 7.46247 6.23574 5.7205
96 4 10.7318 6.75389 11.4033
97 4 12.1068 2.23297 4.19669
98 4 8.50669 1.18574 10.0926
99 4 6.79295 5.4931 4.63792
100 4 10.0675 7.41604 10.2246
101 6 3.59706 9.19772 3.65456
102 5 4.2604 7.9586 3.57274
103 5 2.22142 9.00078 3.42726
104 6 -0.205439 3.10235 9.28831
105 5 12.0696 3.28209 9.14131
106 5 0.459423 4.3415 9.24109
107 6 11.9615 5.64523 7.23614
108 5 11.728 5.68131 8.62095
109 5 11.897 4.292 6.85833
110 6 6.44627 5.69753 10.617
111 5 7.58967 5.14386 11.2034
112 5 5.82605 4.49646 10.2576
113 6 0.13014 0.959524 6.48254
114 5 0.866205 2.15424 6.59818
115 5 0.386561 0.342121 5.24232
116 6 9.8378 0.460665 1.60807
117 5 11.1624 0.9242 1.5757
118 5 9.4804 9.38081 2.85309
119 6 5.90194 4.9254 7.56829
120 5 4.7362 5.22082 8.28942
121 5 6.74823 3.96178 8.14775
122 6 13.1213 8.48195 0.107225
123 5 12.8726 8.9897 10.2726
124 5 0.721809 8.48513 0.72735
