ITEM: TIMESTEP
0
ITEM: NUMBER OF ATOMS
124
ITEM: BOX BOUNDS xy xz yz pp pp pp
-2.2759399999999999e-01 1.2505599999999999e+01 0.0000000000000000e+00
0.0000000000000000e+00 1.2523400000000001e+01 -2.2759399999999999e-01
0.0000000000000000e+00 1.0274279000000000e+01 0.0000000000000000e+00
ITEM: ATOMS id type x y z
1 1 3.15181 9.56458 8.93109
2 1 6.12347 3.05599 3.42815
3 2 1.45338 4.10963 4.04094
4 2 4.72859 8.68847 9.1662
5 2 4.78674 1.84249 3.4434
6 2 1.56993 10.4747 9.05164
7 2 5.42119 4.15717 4.71439
8 2 3.08964 8.49488 0.0494958
9 2 0.0500081 2.11573 5.21606
10 2 3.46485 10.8936 10.1189
11 3 3.77852 10.7756 7.4202
12 3 0.526011 1.75362 2.52899
13 3 2.51962 8.0951 7.652
14 3 5.47279 4.32401 2.02181
15 4 4.2335 11.4301 5.08353
16 4 0.365849 0.325626 0.495042
17 5 4.13994 11.1905 4.03393
18 5 6.78554 0.603965 9.15007
19 4 4.89447 0.115762 5.46817
20 4 1.64848 12.2643 0.721055
21 4 5.05245 0.292316 6.85019
22 4 2.27214 0.112478 1.92322
23 5 0.0326042 0.0230181 6.93812
24 5 3.23547 12.2093 2.16444
25 4 2.8127 6.52422 5.7387
26 4 6.1279 6.17838 0.53751
27 5 3.45026 6.15304 4.94672
28 5 10.9628 4.85696 9.17206
29 4 3.31763 7.55738 6.64603
30 4 6.40639 4.92765 1.19618
31 5 4.31647 7.94312 6.49694
32 5 0.0862358 3.51891 0.510653
33 4 3.46242 10.6746 6.06324
34 4 12.2988 1.27946 1.44725
35 4 4.64598 11.7972 7.77188
36 4 1.63863 1.0017 2.86182
37 5 5.06463 11.8128 8.7576
38 4 1.29715 7.46694 7.865
39 4 4.23868 4.94596 2.09665
40 4 0.726654 6.57275 6.90515
41 4 4.14032 6.33239 1.82544
42 5 5.88103 5.5827 7.28971
43 5 3.2551 6.8688 2.14947
44 4 1.48159 6.02394 5.86532
45 4 4.91759 6.8692 0.796568
46 4 5.48224 1.18465 4.44268
47 4 2.17041 11.2945 9.96752
48 4 0.820654 4.9247 4.92343
49 4 4.12635 8.05747 10.2151
50 1 9.06156 9.30445 8.64185
51 1 12.3679 3.21651 3.81535
52 2 7.40598 4.19999 3.76167
53 2 10.496 8.20518 8.68414
54 2 10.7644 2.33097 3.97496
55 2 7.64088 10.374 8.94788
56 2 12.0378 4.52513 5.01882
57 2 8.65781 8.07612 9.90671
58 2 6.59473 1.887 4.70704
59 2 9.63434 10.4274 9.94323
60 3 9.73743 10.6167 7.2734
61 3 7.08739 1.91267 2.03875
62 3 8.20704 8.10843 7.24267
63 3 11.8535 4.50309 2.27065
64 4 9.37584 0.034842 5.77659
65 4 7.02176 0.636435 10.201
66 5 8.66596 0.673553 5.29499
67 5 12.0738 0.04469 9.89427
68 4 10.7295 0.416202 5.81989
69 4 8.19139 12.2676 0.43693
70 4 11.5421 12.1989 6.70935
71 4 8.70231 0.0613634 1.71417
72 5 5.58851 1.15673 7.21705
73 5 9.49576 11.9831 2.14175
74 4 7.85788 7.10621 5.03048
75 4 11.0007 5.13104 10.2175
76 5 7.93063 7.28062 3.96495
77 5 6.94084 6.68294 0.0734778
78 4 8.66334 7.87984 5.94473
79 4 11.9096 4.25106 0.899514
80 5 7.39504 4.49708 1.10461
81 4 8.91064 11.3515 6.42059
82 4 6.56843 1.56214 0.781917
83 5 11.2921 1.63805 1.28693
84 4 11.0341 11.0603 7.42148
85 4 8.20967 1.2131 2.4389
86 5 11.6728 10.572 8.14091
87 5 8.68486 1.48907 3.34765
88 4 7.12175 7.35128 7.63883
89 4 11.1546 5.63587 2.62405
90 5 6.63495 7.60113 8.53598
91 4 6.62869 6.2384 6.86568
92 4 10.9631 6.71071 1.70215
93 5 12.2346 6.1868 7.07942
94 5 10.6512 7.67818 2.07982
95 4 7.01082 6.08457 5.52349
96 4 10.7557 6.41882 0.353106
97 4 11.3066 1.67929 5.05283
98 4 8.40245 10.9962 9.89734
99 4 6.60933 4.81232 4.66603
100 4 9.84746 7.47773 9.65043
101 6 1.83078 10.1176 5.54725
102 5 0.937706 9.89717 6.60301
103 5 1.89342 9.08636 4.59281
104 6 2.31675 1.10723 4.48326
105 5 2.78823 2.34427 4.9513
106 5 1.67399 0.353696 5.46231
107 6 0.621841 7.37212 9.48922
108 5 0.28906 8.58645 10.1119
109 5 1.31939 6.43497 10.2668
110 6 2.83386 4.05316 1.55679
111 5 2.91868 2.97768 2.39077
112 5 1.76821 4.93015 1.76938
113 6 7.37929 10.6652 5.82503
114 5 6.47365 10.0318 6.68763
115 5 7.1492 10.8308 4.44596
116 6 4.96944 2.08842 0.236135
117 5 3.94565 1.00421 10.1282
118 5 4.89299 2.9696 9.4244
119 6 10.2966 8.3971 5.39891
120 5 11.2971 8.44679 6.37633
121 5 10.2544 9.53768 4.57443
122 6 9.81608 5.36216 3.64051
123 5 9.89987 5.33113 5.04262
124 5 9.49509 4.12642 3.06376
