124
Atoms. Timestep: 0
Ni 2.89857 9.41116 8.59265
Ni 6.17525 3.10579 3.48481
O 1.44827 4.35425 3.93374
O 4.4416 8.15245 9.05464
O 4.63665 1.84729 3.87523
O 1.36499 10.6744 9.00295
O 5.80609 4.46033 4.96242
O 2.54244 8.0327 10.0675
O 0.25117 1.69264 4.94273
O 3.23722 10.8047 10.0626
N 3.69677 10.6606 7.2416
N 0.71256 1.8642 2.11704
N 2.17217 8.14409 7.25198
N 5.44023 4.39481 2.13747
C 3.48546 12.1483 5.36301
C 0.47488 0.38955 0.2292
H 2.86453 12.5181 4.55267
H 5.86971 0.03371 9.69377
C 4.76073 0.1474 5.61481
C 1.74333 12.3699 0.47412
C 5.50345 12.1502 6.68209
C 2.49852 0.35508 1.54004
H 0.24768 12.5084 6.91993
H 3.49155 12.5067 1.77336
C 2.48363 6.6337 5.40822
C 5.72803 5.90364 0.28669
H 3.13294 6.27291 4.61605
H -0.10828 6.26667 9.7662
C 2.92756 7.68099 6.23068
C 6.1883 4.86756 1.11596
H 3.89994 8.14655 6.0889
H 0.91589 4.41889 0.97634
C 2.98256 11.1359 6.19748
C -0.01036 1.40553 1.07106
C 4.93641 11.1381 7.47507
C 1.94823 1.3719 2.3406
H 5.48559 10.7097 8.30944
C 0.94573 7.62654 7.47302
C 4.21083 4.90458 2.35686
C 0.43859 6.57577 6.69176
C 3.68763 5.945 1.56944
H 5.70774 6.17693 6.91975
H 2.69824 6.32683 1.80071
C 1.22745 6.06471 5.65205
C 4.46338 6.45777 0.52027
C 5.3126 1.24381 4.79419
C 2.0502 11.2675 9.92158
C 0.73548 4.94016 4.83586
C 3.73174 7.56629 9.95688
Ni 9.15137 9.41116 8.59265
Ni 12.4281 3.10579 3.48481
O 7.70109 4.35425 3.93374
O 10.6944 8.15245 9.05464
O 10.8895 1.84729 3.87523
O 7.61779 10.6744 9.00295
O 12.0589 4.46033 4.96242
O 8.79524 8.0327 10.0675
O 6.50397 1.69264 4.94273
O 9.49002 10.8047 10.0626
N 9.94957 10.6606 7.2416
N 6.96536 1.8642 2.11704
N 8.42499 8.14409 7.25198
N 11.693 4.39481 2.13747
C 9.73826 12.1483 5.36301
C 6.72768 0.38955 0.2292
H 9.11733 12.5181 4.55267
H 12.1225 0.03371 9.69377
C 11.0135 0.1474 5.61481
C 7.99613 12.3699 0.47412
C 11.7562 12.1502 6.68209
C 8.75132 0.35508 1.54004
H 6.50047 12.5084 6.91993
H 9.74435 12.5067 1.77336
C 8.73644 6.6337 5.40822
C 11.9808 5.90364 0.28669
H 9.38574 6.27291 4.61605
H 6.14452 6.26667 9.7662
C 9.18036 7.68099 6.23068
C 12.4411 4.86756 1.11596
H 7.16869 4.41889 0.97634
C 9.23536 11.1359 6.19748
C 6.24244 1.40553 1.07106
H 11.5137 1.85011 0.92351
C 11.1892 11.1381 7.47507
C 8.20102 1.3719 2.3406
H 11.7384 10.7097 8.30944
H 8.76167 1.79214 3.17267
C 7.19853 7.62654 7.47302
C 10.4636 4.90458 2.35686
H 6.61608 8.05184 8.28732
C 6.69139 6.57577 6.69176
C 9.94043 5.945 1.56944
H 11.9605 6.17693 6.91975
H 8.95104 6.32683 1.80071
C 7.48025 6.06471 5.65205
C 10.7162 6.45777 0.52027
C 11.5654 1.24381 4.79419
C 8.303 11.2675 9.92158
C 6.98827 4.94016 4.83586
C 9.98454 7.56629 9.95688
P 1.27968 10.3895 5.90477
H 1.40001 9.27045 6.82318
H 1.66997 9.69837 4.68769
P 2.92173 2.10676 3.77737
H 1.83243 2.85105 4.38536
H 2.83291 0.90907 4.59521
P -0.06709 8.37331 8.87397
H 0.99275 9.16258 9.47726
H 0.04083 7.20079 9.7253
P 3.21207 4.16601 3.77422
H 4.06385 3.01748 4.03018
H 2.24795 3.51583 2.90304
P 7.53567 10.3841 5.90012
H 7.42882 9.65062 7.14945
H 6.81442 11.5796 6.3022
P 4.55078 2.18019 0.78525
H 4.69009 3.29199 1.70973
H 4.72232 2.87195 9.84571
P 10.8548 8.49412 5.95672
H 10.669 9.62376 6.85091
H 10.4598 9.14533 4.71934
P 9.46487 4.16601 3.77422
H 10.3166 3.01748 4.03018
H 8.50075 3.51583 2.90304
124
Atoms. Timestep: 182
Ni 3.15463 9.56401 8.92831
Ni 6.12348 3.05791 3.43108
O 1.45416 4.10847 4.04101
O 4.73357 8.68747 9.16336
O 4.78835 1.8415 3.44585
O 1.57225 10.4732 9.04978
O 5.41999 4.16074 4.71727
O 3.09346 8.49308 0.0447872
O 0.0508935 2.11817 5.21746
O 3.46617 10.893 10.1174
N 3.77983 10.7757 7.41988
N 0.525004 1.75545 2.52859
N 2.52035 8.09457 7.64877
N 5.47188 4.32442 2.02285
C 4.22756 11.4314 5.0832
C 0.364504 0.326278 0.492888
H 4.1365 11.1842 4.03459
H 6.78389 0.605377 9.15398
C 4.89717 0.113038 5.46805
C 1.64508 12.2592 0.72395
C 5.05308 0.292884 6.84923
C 2.26754 0.108022 1.92599
H 0.0314739 0.0270204 6.94041
H 3.23566 12.2123 2.16397
C 2.81386 6.52549 5.73467
C 6.12981 6.178 0.539794
H 3.45387 6.15307 4.94482
H 10.9596 4.84939 9.1722
C 3.31752 7.56059 6.64174
C 6.40431 4.9247 1.1952
H 4.31832 7.94399 6.49942
H 0.0836722 3.52172 0.509586
C 3.45891 10.6774 6.0643
C 12.2986 1.28461 1.44416
C 4.64438 11.7993 7.77244
C 1.63674 1.00114 2.86216
H 5.06971 11.8115 8.75581
C 1.29907 7.46311 7.86367
C 4.23848 4.94907 2.09775
C 0.72808 6.56864 6.90385
C 4.14312 6.33672 1.82821
H 5.87601 5.58478 7.2895
H 3.25297 6.87139 2.14291
C 1.48422 6.01922 5.86635
C 4.92049 6.87016 0.797646
C 5.4844 1.18358 4.44375
C 2.16987 11.2903 9.96891
C 0.821868 4.9255 4.92105
C 4.35704 8.05429 -0.0642316
Ni 9.05923 9.30317 8.64042
Ni 12.3692 3.21918 3.81551
O 7.40445 4.20198 3.76423
O 10.4946 8.20533 8.68428
O 10.7662 2.33436 3.97514
O 7.63688 10.3717 8.94593
O 12.0388 4.52787 5.01705
O 8.65546 8.07364 9.90466
O 6.59578 1.88785 4.71103
O 9.62989 10.4227 9.94127
N 9.73707 10.6153 7.27458
N 7.08947 1.91264 2.04211
N 8.20631 8.10874 7.24115
N 11.8563 4.50697 2.27078
C 9.3746 0.0329535 5.7795
C 7.02558 0.640178 10.2022
H 8.66109 0.669601 5.30105
H 12.0721 0.0398021 9.89261
C 10.7291 0.416506 5.82188
C 8.19434 12.2697 0.435059
C 11.5411 12.2008 6.71328
C 8.70111 0.0587117 1.71633
H 5.58833 1.15988 7.21465
H 9.49705 11.9835 2.1408
C 7.86102 7.10467 5.02983
C 11.0021 5.13115 10.2171
H 7.92981 7.28243 3.96446
H 6.71405 6.6825 10.3525
C 8.66392 7.88087 5.94316
C 11.9114 4.25457 0.899551
H 7.39149 4.49072 1.10441
C 8.91119 11.3476 6.41928
C 6.57111 1.5648 0.784146
H 11.2896 1.64243 1.28674
C 11.0344 11.058 7.42232
C 8.21093 1.2123 2.44197
H 11.6721 10.5702 8.14319
H 8.69016 1.49121 3.34824
C 7.12085 7.35247 7.63662
C 11.1542 5.63832 2.62408
H 6.64035 7.59786 8.53849
C 6.623 6.24266 6.86321
C 10.9619 6.71338 1.70156
H 12.2369 6.17961 7.07958
H 10.6458 7.68067 2.07881
C 7.01032 6.08614 5.52285
C 10.7557 6.41947 0.351682
C 11.3067 1.68228 5.05423
C 8.39981 10.9942 9.89501
C 6.60725 4.81753 4.66537
C 9.84575 7.47624 9.64818
P 1.82826 10.1208 5.5507
H 0.940075 9.89801 6.60872
H 1.8948 9.09254 4.59509
P 2.31748 1.10805 4.4826
H 2.79015 2.34523 4.95102
H 1.67571 0.351657 5.46148
P 0.624409 7.36765 9.48887
H 0.284626 8.58215 10.1124
H 1.5509 6.4277 -0.0112158
P 2.83282 4.05586 1.55864
H 2.91684 2.9802 2.39537
H 1.76532 4.92539 1.77829
P 7.37989 10.6608 5.82179
H 6.47111 10.0318 6.68838
H 7.15503 10.8406 4.44279
P 4.97024 2.08915 0.237936
H 3.93981 1.00691 10.1308
H 4.89846 2.97222 9.42638
P 10.2983 8.39942 5.39915
H 11.2997 8.44153 6.37433
H 10.2571 9.53838 4.57243
P 9.81448 5.3591 3.63902
H 9.8986 5.32863 5.04211
H 9.4887 4.1256 3.05247
124
Atoms. Timestep: 187
Ni 3.15181 9.56458 8.93109
Ni 6.12347 3.05599 3.42815
O 1.45338 4.10963 4.04094
O 4.72859 8.68847 9.1662
O 4.78674 1.84249 3.4434
O 1.56993 10.4747 9.05164
O 5.42119 4.15717 4.71439
O 3.08964 8.49488 0.0494958
O 0.0500081 2.11573 5.21606
O 3.46485 10.8936 10.1189
N 3.77852 10.7756 7.4202
N 0.526011 1.75362 2.52899
N 2.51962 8.0951 7.652
N 5.47279 4.32401 2.02181
C 4.2335 11.4301 5.08353
C 0.365849 0.325626 0.495042
H 4.13994 11.1905 4.03393
H 6.78554 0.603965 9.15007
C 4.89447 0.115762 5.46817
C 1.64848 12.2643 0.721055
C 5.05245 0.292316 6.85019
C 2.27214 0.112478 1.92322
H 0.0326042 0.0230181 6.93812
H 3.23547 12.2093 2.16444
C 2.8127 6.52422 5.7387
C 6.1279 6.17838 0.53751
H 3.45026 6.15304 4.94672
H 10.9628 4.85696 9.17206
C 3.31763 7.55738 6.64603
C 6.40639 4.92765 1.19618
H 4.31647 7.94312 6.49694
H 0.0862358 3.51891 0.510653
C 3.46242 10.6746 6.06324
C 12.2988 1.27946 1.44725
C 4.64598 11.7972 7.77188
C 1.63863 1.0017 2.86182
H 5.06463 11.8128 8.7576
C 1.29715 7.46694 7.865
C 4.23868 4.94596 2.09665
C 0.726654 6.57275 6.90515
C 4.14032 6.33239 1.82544
H 5.88103 5.5827 7.28971
H 3.2551 6.8688 2.14947
C 1.48159 6.02394 5.86532
C 4.91759 6.8692 0.796568
C 5.48224 1.18465 4.44268
C 2.17041 11.2945 9.96752
C 0.820654 4.9247 4.92343
C 4.12635 8.05747 10.2151
Ni 9.06156 9.30445 8.64185
Ni 12.3679 3.21651 3.81535
O 7.40598 4.19999 3.76167
O 10.496 8.20518 8.68414
O 10.7644 2.33097 3.97496
O 7.64088 10.374 8.94788
O 12.0378 4.52513 5.01882
O 8.65781 8.07612 9.90671
O 6.59473 1.887 4.70704
O 9.63434 10.4274 9.94323
N 9.73743 10.6167 7.2734
N 7.08739 1.91267 2.03875
N 8.20704 8.10843 7.24267
N 11.8535 4.50309 2.27065
C 9.37584 0.034842 5.77659
C 7.02176 0.636435 10.201
H 8.66596 0.673553 5.29499
H 12.0738 0.04469 9.89427
C 10.7295 0.416202 5.81989
C 8.19139 12.2676 0.43693
C 11.5421 12.1989 6.70935
C 8.70231 0.0613634 1.71417
H 5.58851 1.15673 7.21705
H 9.49576 11.9831 2.14175
C 7.85788 7.10621 5.03048
C 11.0007 5.13104 10.2175
H 7.93063 7.28062 3.96495
H 6.94084 6.68294 0.0734778
C 8.66334 7.87984 5.94473
C 11.9096 4.25106 0.899514
H 7.39504 4.49708 1.10461
C 8.91064 11.3515 6.42059
C 6.56843 1.56214 0.781917
H 11.2921 1.63805 1.28693
C 11.0341 11.0603 7.42148
C 8.20967 1.2131 2.4389
H 11.6728 10.572 8.14091
H 8.68486 1.48907 3.34765
C 7.12175 7.35128 7.63883
C 11.1546 5.63587 2.62405
H 6.63495 7.60113 8.53598
C 6.62869 6.2384 6.86568
C 10.9631 6.71071 1.70215
H 12.2346 6.1868 7.07942
H 10.6512 7.67818 2.07982
C 7.01082 6.08457 5.52349
C 10.7557 6.41882 0.353106
C 11.3066 1.67929 5.05283
C 8.40245 10.9962 9.89734
C 6.60933 4.81232 4.66603
C 9.84746 7.47773 9.65043
P 1.83078 10.1176 5.54725
H 0.937706 9.89717 6.60301
H 1.89342 9.08636 4.59281
P 2.31675 1.10723 4.48326
H 2.78823 2.34427 4.9513
H 1.67399 0.353696 5.46231
P 0.621841 7.37212 9.48922
H 0.28906 8.58645 10.1119
H 1.31939 6.43497 10.2668
P 2.83386 4.05316 1.55679
H 2.91868 2.97768 2.39077
H 1.76821 4.93015 1.76938
P 7.37929 10.6652 5.82503
H 6.47365 10.0318 6.68763
H 7.1492 10.8308 4.44596
P 4.96944 2.08842 0.236135
H 3.94565 1.00421 10.1282
H 4.89299 2.9696 9.4244
P 10.2966 8.3971 5.39891
H 11.2971 8.44679 6.37633
H 10.2544 9.53768 4.57443
P 9.81608 5.36216 3.64051
H 9.89987 5.33113 5.04262
H 9.49509 4.12642 3.06376
124
Atoms. Timestep: 188
Ni 3.15181 9.56458 8.93109
Ni 6.12347 3.05599 3.42815
O 1.45338 4.10963 4.04094
O 4.72859 8.68847 9.1662
O 4.78674 1.84249 3.4434
O 1.56993 10.4747 9.05164
O 5.42119 4.15717 4.71439
O 3.08964 8.49488 0.0494958
O 0.0500081 2.11573 5.21606
O 3.46485 10.8936 10.1189
N 3.77852 10.7756 7.4202
N 0.526011 1.75362 2.52899
N 2.51962 8.0951 7.652
N 5.47279 4.32401 2.02181
C 4.2335 11.4301 5.08353
C 0.365849 0.325626 0.495042
H 4.13994 11.1905 4.03393
H 6.78554 0.603965 9.15007
C 4.89447 0.115762 5.46817
C 1.64848 12.2643 0.721055
C 5.05245 0.292316 6.85019
C 2.27214 0.112478 1.92322
H 0.0326042 0.0230181 6.93812
H 3.23547 12.2093 2.16444
C 2.8127 6.52422 5.7387
C 6.1279 6.17838 0.53751
H 3.45026 6.15304 4.94672
H 10.9628 4.85696 9.17206
C 3.31763 7.55738 6.64603
C 6.40639 4.92765 1.19618
H 4.31647 7.94312 6.49694
H 0.0862358 3.51891 0.510653
C 3.46242 10.6746 6.06324
C 12.2988 1.27946 1.44725
C 4.64598 11.7972 7.77188
C 1.63863 1.0017 2.86182
H 5.06463 11.8128 8.7576
C 1.29715 7.46694 7.865
C 4.23868 4.94596 2.09665
C 0.726654 6.57275 6.90515
C 4.14032 6.33239 1.82544
H 5.88103 5.5827 7.28971
H 3.2551 6.8688 2.14947
C 1.48159 6.02394 5.86532
C 4.91759 6.8692 0.796568
C 5.48224 1.18465 4.44268
C 2.17041 11.2945 9.96752
C 0.820654 4.9247 4.92343
C 4.12635 8.05747 10.2151
Ni 9.06156 9.30445 8.64185
Ni 12.3679 3.21651 3.81535
O 7.40598 4.19999 3.76167
O 10.496 8.20518 8.68414
O 10.7644 2.33097 3.97496
O 7.64088 10.374 8.94788
O 12.0378 4.52513 5.01882
O 8.65781 8.07612 9.90671
O 6.59473 1.887 4.70704
O 9.63434 10.4274 9.94323
N 9.73743 10.6167 7.2734
N 7.08739 1.91267 2.03875
N 8.20704 8.10843 7.24267
N 11.8535 4.50309 2.27065
C 9.37584 0.034842 5.77659
C 7.02176 0.636435 10.201
H 8.66596 0.673553 5.29499
H 12.0738 0.04469 9.89427
C 10.7295 0.416202 5.81989
C 8.19139 12.2676 0.43693
C 11.5421 12.1989 6.70935
C 8.70231 0.0613634 1.71417
H 5.58851 1.15673 7.21705
H 9.49576 11.9831 2.14175
C 7.85788 7.10621 5.03048
C 11.0007 5.13104 10.2175
H 7.93063 7.28062 3.96495
H 6.94084 6.68294 0.0734778
C 8.66334 7.87984 5.94473
C 11.9096 4.25106 0.899514
H 7.39504 4.49708 1.10461
C 8.91064 11.3515 6.42059
C 6.56843 1.56214 0.781917
H 11.2921 1.63805 1.28693
C 11.0341 11.0603 7.42148
C 8.20967 1.2131 2.4389
H 11.6728 10.572 8.14091
H 8.68486 1.48907 3.34765
C 7.12175 7.35128 7.63883
C 11.1546 5.63587 2.62405
H 6.63495 7.60113 8.53598
C 6.62869 6.2384 6.86568
C 10.9631 6.71071 1.70215
H 12.2346 6.1868 7.07942
H 10.6512 7.67818 2.07982
C 7.01082 6.08457 5.52349
C 10.7557 6.41882 0.353106
C 11.3066 1.67929 5.05283
C 8.40245 10.9962 9.89734
C 6.60933 4.81232 4.66603
C 9.84746 7.47773 9.65043
P 1.83078 10.1176 5.54725
H 0.937706 9.89717 6.60301
H 1.89342 9.08636 4.59281
P 2.31675 1.10723 4.48326
H 2.78823 2.34427 4.9513
H 1.67399 0.353696 5.46231
P 0.621841 7.37212 9.48922
H 0.28906 8.58645 10.1119
H 1.31939 6.43497 10.2668
P 2.83386 4.05316 1.55679
H 2.91868 2.97768 2.39077
H 1.76821 4.93015 1.76938
P 7.37929 10.6652 5.82503
H 6.47365 10.0318 6.68763
H 7.1492 10.8308 4.44596
P 4.96944 2.08842 0.236135
H 3.94565 1.00421 10.1282
H 4.89299 2.9696 9.4244
P 10.2966 8.3971 5.39891
H 11.2971 8.44679 6.37633
H 10.2544 9.53768 4.57443
P 9.81608 5.36216 3.64051
H 9.89987 5.33113 5.04262
H 9.49509 4.12642 3.06376
