124
Atoms. Timestep: 0
Ni 2.89857 9.41116 8.59265
Ni 6.17525 3.10579 3.48481
O 1.44827 4.35425 3.93374
O 4.4416 8.15245 9.05464
O 4.63665 1.84729 3.87523
O 1.36499 10.6744 9.00295
O 5.80609 4.46033 4.96242
O 2.54244 8.0327 10.0675
O 0.25117 1.69264 4.94273
O 3.23722 10.8047 10.0626
N 3.69677 10.6606 7.2416
N 0.71256 1.8642 2.11704
N 2.17217 8.14409 7.25198
N 5.44023 4.39481 2.13747
C 3.48546 12.1483 5.36301
C 0.47488 0.38955 0.2292
H 5.86971 0.03371 9.69377
C 4.76073 0.1474 5.61481
C 1.74333 12.3699 0.47412
C 5.50345 12.1502 6.68209
C 2.49852 0.35508 1.54004
H 3.49155 12.5067 1.77336
C 2.48363 6.6337 5.40822
C 5.72803 5.90364 0.28669
H 3.13294 6.27291 4.61605
C 2.92756 7.68099 6.23068
C 6.1883 4.86756 1.11596
H 3.89994 8.14655 6.0889
H 0.91589 4.41889 0.97634
C 2.98256 11.1359 6.19748
C -0.01036 1.40553 1.07106
H 1.99392 10.709 6.04703
H 5.26093 1.85011 0.92351
C 4.93641 11.1381 7.47507
C 1.94823 1.3719 2.3406
H 5.48559 10.7097 8.30944
H 2.50886 1.79214 3.17267
C 0.94573 7.62654 7.47302
C 4.21083 4.90458 2.35686
H 0.36328 8.05184 8.28732
H 3.63605 4.47744 3.17528
C 0.43859 6.57577 6.69176
C 3.68763 5.945 1.56944
H 2.69824 6.32683 1.80071
C 1.22745 6.06471 5.65205
C 4.46338 6.45777 0.52027
C 5.3126 1.24381 4.79419
C 2.0502 11.2675 9.92158
C 0.73548 4.94016 4.83586
C 3.73174 7.56629 9.95688
Ni 9.15137 9.41116 8.59265
Ni 12.4281 3.10579 3.48481
O 7.70109 4.35425 3.93374
O 10.6944 8.15245 9.05464
O 10.8895 1.84729 3.87523
O 7.61779 10.6744 9.00295
O 12.0589 4.46033 4.96242
O 8.79524 8.0327 10.0675
O 6.50397 1.69264 4.94273
O 9.49002 10.8047 10.0626
N 9.94957 10.6606 7.2416
N 6.96536 1.8642 2.11704
N 8.42499 8.14409 7.25198
N 11.693 4.39481 2.13747
C 9.73826 12.1483 5.36301
C 6.72768 0.38955 0.2292
H 9.11733 12.5181 4.55267
C 11.0135 0.1474 5.61481
C 7.99613 12.3699 0.47412
C 11.7562 12.1502 6.68209
C 8.75132 0.35508 1.54004
H 6.50047 12.5084 6.91993
C 8.73644 6.6337 5.40822
C 11.9808 5.90364 0.28669
H 9.38574 6.27291 4.61605
C 9.18036 7.68099 6.23068
C 12.4411 4.86756 1.11596
H 10.1527 8.14655 6.0889
H 7.16869 4.41889 0.97634
C 9.23536 11.1359 6.19748
C 6.24244 1.40553 1.07106
H 8.24672 10.709 6.04703
H 11.5137 1.85011 0.92351
C 11.1892 11.1381 7.47507
C 8.20102 1.3719 2.3406
H 11.7384 10.7097 8.30944
H 8.76167 1.79214 3.17267
C 7.19853 7.62654 7.47302
C 10.4636 4.90458 2.35686
H 6.61608 8.05184 8.28732
H 9.88885 4.47744 3.17528
C 6.69139 6.57577 6.69176
C 9.94043 5.945 1.56944
H 8.95104 6.32683 1.80071
C 7.48025 6.06471 5.65205
C 10.7162 6.45777 0.52027
C 11.5654 1.24381 4.79419
C 8.303 11.2675 9.92158
C 6.98827 4.94016 4.83586
C 9.98454 7.56629 9.95688
P 2.40393 0.19897 3.96514
H 1.17457 12.0621 4.36876
H 2.14365 1.49836 4.561
P 11.6551 12.3574 9.11104
H 10.6656 0.89456 9.19039
H -0.01039 0.41469 8.07745
P 11.2485 5.9407 7.09842
H 11.0708 6.62221 8.36889
H 11.7328 4.67112 7.61308
P 6.62749 6.47159 9.19576
H 7.60302 5.3979 9.27127
H 5.79736 5.92001 8.13847
P 0.95991 0.20472 7.11906
H 1.29677 11.6821 8.06905
H 1.5736 12.1399 5.94067
P 10.4589 12.2838 1.96049
H 10.5953 0.41456 3.25033
H 10.0045 10.9879 2.43513
P 4.99571 5.9407 7.09842
H 4.81795 6.62221 8.36889
H 5.47997 4.67112 7.61308
P 0.37151 6.46633 9.19096
H 1.57466 5.76781 9.60889
H 0.6551 7.75041 9.80898
124
Atoms. Timestep: 145
Ni 2.67216 8.75522 9.24921
Ni 6.23095 3.65092 3.35459
O 0.606843 5.08942 3.44408
O 4.12942 7.76134 9.46927
O 4.82913 2.6144 3.51427
O 1.2024 9.76019 9.35646
O 5.73132 4.7574 4.58037
O 2.19046 7.61703 10.519
O -0.34942 2.94593 4.54287
O 3.06837 9.95232 10.5296
N 3.4321 9.89515 7.89524
N -0.00906314 2.89292 1.96279
N 1.96954 7.54505 7.84216
N 5.46721 4.79271 2.04676
C 3.51935 10.4578 5.54825
C -0.147437 1.68375 -0.113483
H 6.06883 1.73114 10.4037
C 4.80688 11.0039 5.68325
C 1.28534 1.51779 -0.167315
C 5.41137 10.9269 6.95229
C 2.00725 2.11751 0.858327
H 3.07276 2.01809 0.899308
C 2.08232 6.58012 5.60229
C 5.7128 5.92214 -0.04272
H 2.65385 6.43681 4.68625
C 2.72015 7.15094 6.75698
C 6.25767 5.27635 1.06803
H 3.73844 7.49732 6.67014
H 0.257546 5.25708 0.897594
C 2.83223 10.0016 6.68244
C 12.9688 2.18506 1.07534
H 1.87374 9.54926 6.54545
H 5.19866 2.53352 0.800997
C 4.73334 10.3045 8.02794
C 1.35706 2.91198 1.81612
H 5.27843 10.0271 8.91128
H 1.9565 3.51009 2.46453
C 0.611626 7.43347 7.71727
C 4.16336 5.20602 2.1269
H -0.0190543 8.15798 8.18319
H 3.58487 4.97209 3.00989
C 0.0235911 6.5508 6.80229
C 3.5775 5.96878 1.08288
H 2.55171 6.30254 1.17024
C 0.699637 6.27976 5.62889
C 4.33888 6.31202 -0.056181
C 5.51483 1.98701 4.5018
C 1.80322 10.4383 10.3528
C -0.0494406 5.72071 4.42399
C 3.4344 7.10316 10.4288
Ni 9.38377 8.81137 8.99607
Ni 12.9014 4.05036 3.29074
O 7.66145 4.70268 3.49148
O 10.7819 7.75604 9.19679
O 11.4635 3.01383 3.42675
O 7.96335 9.86859 9.1289
O 12.4044 5.2088 4.52779
O 8.85386 7.71 10.2682
O 6.75315 2.51078 4.6143
O 9.87444 9.93049 10.238
N 10.1475 9.92172 7.64152
N 6.95733 2.51891 1.97974
N 8.66207 7.67487 7.63213
N 12.1683 5.14709 1.94553
C 10.0476 11.0733 5.52009
C 6.85434 1.71804 -0.297205
H 9.47127 1.67899 4.66279
C 11.4241 1.69925 5.57814
C 8.1839 10.9443 -0.238178
C 12.119 10.9358 6.71526
C 8.84321 11.0227 1.0179
H 6.41363 1.63272 7.09878
C 8.90337 6.52292 5.52158
C 12.3561 6.09454 -0.22573
H 9.51919 6.28296 4.66578
C 9.45486 7.25012 6.59468
C 12.9183 5.48086 0.885375
H 10.4986 7.53921 6.55746
H 7.30889 5.00851 1.06794
C 9.41265 10.4043 6.59573
C 6.22703 2.22495 0.860703
H 8.35873 10.1712 6.53143
H 11.8944 2.30151 1.09656
C 11.4966 10.0796 7.62843
C 8.27294 2.14868 2.03313
H 12.0845 9.60985 8.38989
H 8.89953 2.53966 2.80884
C 7.32177 7.41139 7.59447
C 10.8375 5.48613 1.97954
H 6.65963 7.92292 8.27161
H 10.2355 5.19393 2.8202
C 6.80839 6.45001 6.70267
C 10.2362 6.16252 0.898072
H 9.21839 6.51087 0.977281
C 7.56697 6.10593 5.57395
C 10.99 6.45869 -0.248882
C 12.1349 2.39919 4.4195
C 8.63857 10.4578 10.1526
C 6.94301 5.32577 4.4514
C 10.0792 7.1554 10.1902
P 2.66048 10.4442 3.98609
H 1.50595 9.64479 4.05169
H 2.20234 2.089 4.07824
P 12.3993 2.06236 10.0697
H 11.0562 2.38475 10.3511
H 12.9076 3.28024 9.63915
P 12.4468 5.42675 7.34853
H 11.2611 5.79138 7.96299
H 12.9336 4.17517 7.62798
P 6.45783 5.88835 10.1691
H 7.74885 5.75625 10.6799
H 6.4325 4.58769 9.65497
P 0.080207 1.78274 7.03774
H 0.660753 2.24775 8.22864
H 0.840434 1.62424 5.91322
P 10.1116 9.83312 1.4738
H 10.8446 10.2882 2.57884
H 9.5367 8.59271 1.7439
P 5.39733 5.4138 7.18808
H 4.54593 5.79151 8.22369
H 5.71806 4.04996 7.20336
P -0.509943 6.71548 10.2857
H 0.559238 5.81037 10.1832
H -0.223341 8.02453 10.679
124
Atoms. Timestep: 8006
Ni 2.66483 8.65641 9.17899
Ni 6.14846 3.77341 3.38675
O 0.64291 4.95887 3.44396
O 4.08933 7.63028 9.43095
O 4.75694 2.69084 3.52633
O 1.23561 9.72306 9.24275
O 5.65362 4.82911 4.67442
O 2.13955 7.6117 10.5049
O -0.340078 2.77717 4.41879
O 3.12847 9.89919 10.3794
N 3.45622 9.7079 7.74168
N 0.0117135 2.8165 1.82337
N 1.92584 7.38522 7.89171
N 5.34391 4.96817 2.13756
C 3.68193 10.1574 5.36453
C 0.165236 2.18901 -0.515519
H 6.01503 1.91494 10.3681
C 4.8357 10.9214 5.58321
C 1.4155 1.54535 -0.31441
C 5.34866 10.9669 6.89097
C 1.97744 1.64829 0.970087
H 2.96913 10.9292 1.1563
C 2.04829 6.25734 5.74217
C 5.64282 6.17667 0.121981
H 2.64495 5.99818 4.87648
C 2.67763 6.84526 6.87326
C 6.09986 5.80628 1.37882
H 3.72677 7.08541 6.80971
H 0.317975 5.98976 1.27068
C 2.95056 9.671 6.46561
C -0.588859 2.6327 0.607199
H 2.04567 9.14048 6.26806
H 5.11437 2.7522 0.753012
C 4.67589 10.2996 7.94372
C 1.28225 2.3237 2.01211
H 5.16691 10.1871 8.89406
H 1.77534 2.47123 2.96274
C 0.59115 7.08001 7.95741
C 3.98434 4.97975 1.96836
H 0.024385 7.37691 8.82561
H 3.34395 4.46675 2.66906
C -0.0495413 6.33992 6.92915
C 3.41378 5.64368 0.866031
H 2.35441 5.58165 0.694031
C 0.654017 6.04783 5.73
C 4.24305 6.2827 -0.067716
C 5.486 2.02675 4.45689
C 1.89095 10.4321 10.2012
C -0.049671 5.53592 4.45973
C 3.36996 7.05592 10.4228
Ni 9.35567 8.92931 9.04824
Ni 12.9301 3.93369 3.20173
O 7.56701 4.8263 3.55076
O 10.7998 7.91101 9.24391
O 11.4862 2.88538 3.29319
O 7.90931 9.94577 9.17772
O 12.4095 5.03195 4.48574
O 8.86079 7.80746 10.3239
O 6.70956 2.586 4.57961
O 9.82507 10.0859 10.2811
N 10.0981 10.0666 7.6889
N 6.87022 2.72369 1.95726
N 8.65319 7.74972 7.69975
N 12.2033 5.1228 1.87382
C 10.0062 11.1343 5.51249
C 6.79249 1.92767 -0.326309
H 9.414 1.78782 4.68228
C 11.4066 1.63303 5.49791
C 8.11019 1.44787 -0.234555
C 12.1123 10.8943 6.64784
C 8.74503 1.52567 1.02785
H 6.28929 1.79007 7.0889
C 8.80244 6.72064 5.51347
C 12.3905 6.80543 0.138699
H 9.36228 6.5693 4.59857
C 9.38187 7.44707 6.57593
C 12.9853 5.9116 1.07094
H 10.3903 7.81916 6.47011
H 7.14466 5.93007 1.59366
C 9.367 10.5086 6.61554
C 6.15593 2.47393 0.812811
H 8.30683 10.3087 6.56973
H 12.1127 2.97034 0.459164
C 11.4343 10.3256 7.73886
C 8.17634 2.33402 2.02662
H 11.9953 10.026 8.60751
H 8.77701 2.64964 2.85673
C 7.37293 7.27224 7.81677
C 10.8407 5.20047 1.75614
H 6.74587 7.6275 8.61885
H 10.207 4.74755 2.50269
C 6.85942 6.3416 6.88227
C 10.2455 5.89309 0.69281
H 9.17827 5.98568 0.665416
C 7.5187 6.17284 5.65854
C 11.0315 6.6154 -0.207103
C 12.1375 2.25285 4.29563
C 8.57293 10.5774 10.1816
C 6.86605 5.41065 4.54126
C 10.1109 7.30208 10.2422
P 3.32693 9.49452 3.73382
H 4.00442 8.27102 3.56989
H 1.94286 9.28031 3.5888
P -0.443229 2.95433 9.56137
H 11.8849 3.13864 9.43467
H 0.22265 4.19324 9.50429
P 12.0919 5.56031 7.29685
H 11.8541 5.59673 8.68083
H 12.1226 4.20487 6.92661
P 6.37581 5.5776 10.4404
H 7.65774 5.14707 10.7925
H 5.75339 4.35903 10.1265
P 0.161894 10.9789 6.70931
H 0.612406 2.63912 6.81935
H 0.570765 10.4674 5.46527
P 9.99917 9.9987 1.51121
H 10.3551 10.1299 2.86055
H 9.46293 8.70778 1.35827
P 5.65983 5.09979 7.40247
H 4.60733 5.49581 8.23445
H 6.34651 3.96724 7.87014
P 13.0949 8.44262 0.014775
H -0.851759 8.90741 10.3395
H 0.638935 8.495 0.634862
124
Atoms. Timestep: 8011
Ni 2.67217 8.63396 9.1522
Ni 6.14866 3.79652 3.40089
O 0.65625 4.97116 3.45062
O 4.09693 7.61781 9.39544
O 4.75803 2.72499 3.53272
O 1.244 9.68931 9.2081
O 5.65192 4.84467 4.67932
O 2.14514 7.59676 10.4703
O -0.324911 2.8085 4.42551
O 3.13873 9.8676 10.3457
N 3.46031 9.67698 7.72597
N 0.0213138 2.84817 1.84947
N 1.93627 7.37367 7.87557
N 5.34693 4.98034 2.16163
C 3.68635 10.1215 5.36061
C 0.175341 2.22574 -0.477988
H 6.0161 1.95589 10.3282
C 4.84059 10.8773 5.5798
C 1.42606 1.59003 -0.275928
C 5.35233 10.9231 6.87898
C 1.98625 1.69165 0.999896
H 2.97671 10.8846 1.18481
C 2.05806 6.25569 5.73467
C 5.6446 6.18104 0.156062
H 2.65301 5.9996 4.87539
C 2.68555 6.83572 6.85985
C 6.10111 5.81439 1.40454
H 3.73312 7.07807 6.79782
H 0.329904 5.99225 1.29828
C 2.95651 9.64064 6.45357
C -0.57706 2.66536 0.637185
H 2.05301 9.11326 6.25915
H 5.11557 2.78555 0.78407
C 4.68174 10.2618 7.92734
C 1.29348 2.36114 2.03749
H 5.17059 10.1488 8.87034
H 1.78459 2.50811 2.98131
C 0.600805 7.07305 7.94021
C 3.98671 4.99068 1.99336
H 0.0364357 7.36765 8.80232
H 3.34888 4.48221 2.68913
C -0.0362659 6.33974 6.91644
C 3.41911 5.64952 0.896419
H 2.36083 5.58795 0.725271
C 0.663577 6.04912 5.72506
C 4.24529 6.28295 -0.0322194
C 5.48746 2.06263 4.46268
C 1.89946 10.3969 10.166
C -0.0361727 5.54702 4.4656
C 3.37788 7.04524 10.3867
Ni 9.35125 8.90405 9.02229
Ni 12.9181 3.95543 3.21722
O 7.56785 4.83945 3.55737
O 10.7947 7.89546 9.20924
O 11.4751 2.9172 3.30055
O 7.90502 9.91064 9.14327
O 12.3957 5.04633 4.49257
O 8.85416 7.79003 10.2905
O 6.71263 2.61825 4.58664
O 9.82284 10.0528 10.247
N 10.0904 10.0313 7.6737
N 6.8677 2.75679 1.9827
N 8.65155 7.73559 7.68467
N 12.1942 5.13296 1.89947
C 9.99882 1.51185 5.50667
C 6.79018 1.96772 -0.290994
H 9.4083 1.83131 4.68328
C 11.3995 1.67725 5.49443
C 8.10826 1.49286 -0.197256
C 12.1018 10.8503 6.63731
C 8.74014 1.57175 1.05686
H 6.29164 1.83301 7.07556
C 8.79994 6.71537 5.50745
C 12.3805 6.80077 0.170807
H 9.35812 6.56548 4.59937
C 9.3779 7.43427 6.56383
C 12.9733 5.91548 1.09757
H 10.3847 7.80477 6.4606
H 7.14407 5.93354 1.61877
C 9.36163 10.4702 6.60337
C 6.15545 2.5084 0.841563
H 8.30295 10.27 6.55969
H 12.1008 3.00168 0.492116
C 11.4278 10.2864 7.72314
C 8.17465 2.37187 2.0512
H 11.9862 9.98916 8.58572
H 8.77319 2.68564 2.87514
C 7.37026 7.26358 7.80009
C 10.8306 5.20903 1.78238
H 6.74539 7.61671 8.59644
H 10.1993 4.76054 2.52399
C 6.85945 6.34225 6.86952
C 10.2383 5.89614 0.724335
H 9.17243 5.98856 0.697371
C 7.51574 6.17282 5.65412
C 11.021 6.6124 -0.170046
C 12.1257 2.28688 4.30219
C 8.56881 10.5411 10.1467
C 6.86693 5.42288 4.54625
C 10.1064 7.28885 10.2072
P 3.33117 9.46426 3.73908
H 4.0105 8.24914 3.58052
H 1.9504 9.25143 3.59961
P -0.431323 2.98556 9.52642
H 11.8748 3.16838 9.40419
H 0.236382 4.2157 9.47317
P 12.0802 5.56931 7.28072
H 11.8444 5.60303 8.65875
H 12.1126 4.22075 6.91308
P 6.3791 5.58569 10.4016
H 7.65733 5.157 10.7524
H 5.75428 4.37429 10.0907
P 0.173346 10.9314 6.7014
H 0.62485 2.67683 6.80771
H 0.582617 10.4262 5.46024
P 9.99569 9.96307 1.53635
H 10.3487 10.0933 2.87946
H 9.45608 8.68143 1.38485
P 5.6589 5.10919 7.38564
H 4.61002 5.50323 8.21344
H 6.3487 3.98654 7.85173
P 13.0828 8.42646 0.0527619
H 12.8555 8.88338 10.3
H 0.650445 8.47384 0.667419
124
Atoms. Timestep: 18016
Ni 2.68366 8.58337 9.12279
Ni 6.12375 3.82912 3.43888
O 0.654087 4.9578 3.44264
O 4.08827 7.54992 9.37481
O 4.75441 2.73559 3.56695
O 1.27628 9.66027 9.16272
O 5.62657 4.8498 4.74411
O 2.1359 7.5681 10.4482
O -0.325899 2.77322 4.38443
O 3.16819 9.82147 10.3055
N 3.488 9.59876 7.69214
N 0.0290745 2.86192 1.80837
N 1.93351 7.32347 7.86307
N 5.28888 5.0225 2.23069
C 3.75047 10.0165 5.32722
C 0.252953 2.30968 -0.534845
H 5.95219 1.99433 10.3148
C 4.88806 10.7897 5.56353
C 1.47218 1.63085 -0.303076
C 5.37859 10.8561 6.87084
C 1.9898 1.67595 0.994463
H 2.96221 10.7796 1.2013
C 2.05757 6.14865 5.75556
C 5.60253 6.23596 0.242651
H 2.65741 5.85221 4.90891
C 2.68548 6.73079 6.87943
C 6.01158 5.92505 1.51895
H 3.74349 6.93018 6.83397
H 0.345426 5.95817 1.25126
C 3.00472 9.54254 6.4105
C -0.524498 2.75262 0.563541
H 2.11035 9.00736 6.20145
H 5.06048 2.80239 0.834715
C 4.70256 10.1906 7.90926
C 1.27686 2.32709 2.02767
H 5.18296 10.0785 8.86018
H 1.73945 2.43052 2.99491
C 0.590587 7.06179 7.91934
C 3.93838 4.95107 2.01172
H 0.0236904 7.39059 8.7712
H 3.3033 4.40724 2.68648
C -0.0543018 6.32982 6.90157
C 3.38181 5.55502 0.878702
H 2.34291 5.40318 0.644408
C 0.656312 5.9985 5.72584
C 4.21194 6.24364 -0.00939366
C 5.5079 2.06495 4.46696
C 1.94085 10.3685 10.1105
C -0.0412533 5.51784 4.4618
C 3.35714 6.99595 10.3645
Ni 9.32065 8.94861 9.01651
Ni 12.9069 3.94573 3.19162
O 7.5256 4.88458 3.59091
O 10.7705 7.95177 9.21602
O 11.4662 2.9065 3.25236
O 7.87057 9.9438 9.12283
O 12.3806 5.01352 4.48432
O 8.83242 7.84867 10.3019
O 6.72245 2.63896 4.5957
O 9.7864 10.1179 10.2236
N 10.0462 10.0635 7.65156
N 6.83816 2.82554 2.00069
N 8.631 7.75682 7.70185
N 12.1852 5.14929 1.89918
C 9.98091 10.9846 5.41911
C 6.73523 2.01528 -0.262814
H 9.41462 1.65695 4.53675
C 11.3766 1.65181 5.42988
C 8.06152 1.56471 -0.179763
C 12.0675 10.8182 6.59758
C 8.70085 1.63973 1.07088
H 6.30199 1.84697 7.08126
C 8.76319 6.74417 5.5233
C 12.3745 6.83024 0.181487
H 9.30614 6.60826 4.60012
C 9.35163 7.45623 6.57636
C 12.9671 5.9173 1.08259
H 10.3555 7.83376 6.46124
H 7.02395 6.15174 1.79495
C 9.32736 10.4423 6.54891
C 6.10824 2.55273 0.875358
H 8.27326 10.219 6.49481
H 12.1563 3.12313 0.390042
C 11.3748 10.3465 7.71419
C 8.15078 2.46104 2.05366
H 11.9227 10.0949 8.60252
H 8.75844 2.78768 2.87187
C 7.3633 7.25847 7.84227
C 10.8228 5.28589 1.84355
H 6.73843 7.61317 8.64114
H 10.2051 4.8518 2.60981
C 6.85991 6.32162 6.92502
C 10.2175 6.02448 0.826772
H 9.15727 6.19632 0.863904
C 7.48895 6.1882 5.69127
C 11.001 6.68718 -0.111598
C 12.1121 2.25567 4.24358
C 8.52805 10.59 10.118
C 6.83103 5.44504 4.59379
C 10.0842 7.35125 10.2192
P 3.43803 9.33518 3.70103
H 4.12026 8.11468 3.57407
H 2.0597 9.11935 3.52766
P -0.290977 3.07659 9.40981
H 12.0027 3.24251 9.25258
H 0.358976 4.32014 9.39343
P 12.0248 5.60375 7.25983
H 11.7846 5.64583 8.63996
H 12.013 4.25163 6.89075
P 6.42581 5.63697 10.511
H 7.89326 5.14043 -0.51803
H 5.80147 4.43128 10.1781
P 0.15047 10.7262 6.61324
H 0.736287 2.47625 6.7039
H 0.485122 10.156 5.37345
P 9.89326 9.91857 1.57488
H 11.1941 10.4382 1.611
H 9.52578 9.34669 2.8032
P 5.76105 5.01157 7.4807
H 4.65999 5.36842 8.2639
H 6.52936 3.95947 7.99879
P -0.570152 8.44572 0.0704996
H -0.824245 8.93609 10.2815
H 0.693383 8.4705 0.684119
124
Atoms. Timestep: 20000
Ni 2.68792 8.56526 9.11508
Ni 6.11388 3.84237 3.45475
O 0.650322 4.95426 3.43562
O 4.07919 7.51674 9.3753
O 4.75673 2.73217 3.58588
O 1.2932 9.66024 9.14868
O 5.61798 4.85322 4.77486
O 2.1277 7.55989 10.4468
O -0.325598 2.75436 4.36708
O 3.18239 9.80828 10.2945
N 3.50465 9.56789 7.67856
N 0.0352697 2.85901 1.7848
N 1.92761 7.30284 7.86112
N 5.25882 5.04134 2.2598
C 3.79348 9.96976 5.31074
C 0.285255 2.33025 -0.566444
H 5.92816 2.00261 10.3188
C 4.91926 10.7584 5.5577
C 1.49692 1.64102 -0.325543
C 5.3931 10.8399 6.87324
C 1.99894 1.66682 0.982134
H 2.96532 10.7571 1.19758
C 2.05188 6.09444 5.77014
C 5.57594 6.26304 0.27712
H 2.65438 5.77471 4.92926
C 2.68034 6.67788 6.89604
C 5.96346 5.97512 1.5664
H 3.74378 6.85134 6.86049
H 0.349115 5.95169 1.22607
C 3.03665 9.49728 6.38963
C -0.503266 2.77127 0.529052
H 2.14719 8.95678 6.16955
H 5.03752 2.79899 0.851772
C 4.71312 10.1686 7.90632
C 1.27478 2.30899 2.01504
H 5.1881 10.0586 8.86439
H 1.72633 2.39633 2.99318
C 0.581382 7.06188 7.91252
C 3.91457 4.93518 2.02245
H 0.013124 7.40924 8.76071
H 3.282 4.37605 2.69274
C -0.0689089 6.32938 6.89599
C 3.36168 5.51599 0.873063
H 2.33336 5.32656 0.614835
C 0.648432 5.97678 5.72668
C 4.19195 6.22858 -0.00167709
C 5.52389 2.05864 4.47016
C 1.96305 10.3677 10.092
C -0.0479122 5.50805 4.45542
C 3.34082 6.9731 10.3642
Ni 9.31384 8.98247 9.01963
Ni 12.9075 3.93771 3.17508
O 7.50515 4.91012 3.60335
O 10.7641 7.98468 9.22645
O 11.4702 2.8928 3.22958
O 7.86366 9.97819 9.12212
O 12.3769 4.99988 4.47474
O 8.82762 7.88405 10.3128
O 6.73152 2.64515 4.60017
O 9.7768 10.1615 10.2226
N 10.0377 10.0954 7.64875
N 6.82715 2.85168 2.00398
N 8.62704 7.7801 7.70973
N 12.185 5.15212 1.88797
C 9.97422 11 5.40618
C 6.71572 2.029 -0.257337
H 9.40711 1.67456 4.52074
C 11.3727 1.63938 5.40772
C 8.04782 1.59479 -0.180527
C 12.065 10.7996 6.57541
C 8.69154 1.66943 1.0705
H 6.30316 1.85359 7.09417
C 8.74582 6.77498 5.52465
C 12.3737 6.85011 0.179592
H 9.2789 6.64819 4.5901
C 9.34164 7.4864 6.57702
C 12.9678 5.92174 1.0693
H 10.3443 7.86794 6.45383
H 6.95806 6.25229 1.869
C 9.31725 10.4741 6.545
C 6.08962 2.5643 0.885559
H 8.26195 10.2553 6.49224
H 12.1798 3.14729 0.345781
C 11.3666 10.3707 7.70699
C 8.14251 2.49736 2.05098
H 11.9146 10.1256 8.60129
H 8.75422 2.83492 2.866
C 7.36871 7.26346 7.86588
C 10.8248 5.30851 1.85459
H 6.74423 7.6173 8.66952
H 10.212 4.87692 2.63149
C 6.86801 6.31656 6.9535
C 10.2141 6.06762 0.852426
H 9.15749 6.26495 0.911903
C 7.47924 6.20619 5.70616
C 10.997 6.71982 -0.0992214
C 12.1138 2.23726 4.21929
C 8.51819 10.6301 10.1138
C 6.81463 5.46014 4.61319
C 10.0777 7.38476 10.2294
P 3.5055 9.27657 3.67843
H 4.18326 8.04721 3.56795
H 2.12747 9.06473 3.48124
P -0.248616 3.0902 9.36477
H 12.0437 3.25641 9.20594
H 0.40045 4.33875 9.34378
P 11.9993 5.62042 7.25243
H 11.7604 5.66126 8.6361
H 11.9639 4.26525 6.87874
P 6.43614 5.66321 10.573
H 7.8715 5.13563 -0.40459
H 5.81229 4.4581 10.2277
P 0.140851 10.6168 6.56142
H 0.792983 2.3372 6.66209
H 0.440829 10.0225 5.32033
P 9.86735 9.93 1.58129
H 11.1804 10.4263 1.59174
H 9.50179 9.3626 2.81628
P 5.82775 4.96323 7.52808
H 4.69455 5.29508 8.28275
H 6.63345 3.94992 8.0782
P -0.561848 8.46871 0.0750668
H -0.815008 8.97079 10.2863
H 0.701651 8.48567 0.693448
124
Atoms. Timestep: 24197
Ni 2.68787 8.56441 9.11387
Ni 6.1132 3.84501 3.45557
O 0.650065 4.95253 3.4353
O 4.07866 7.51539 9.3743
O 4.75672 2.73408 3.58705
O 1.29359 9.65991 9.14727
O 5.61683 4.85602 4.77555
O 2.12702 7.55924 10.4454
O -0.325918 2.75245 4.36688
O 3.18254 9.80717 10.2935
N 3.5054 9.5669 7.67739
N 0.0348392 2.85748 1.78395
N 1.92723 7.30229 7.85992
N 5.25732 5.04315 2.26035
C 3.79675 9.96859 5.30978
C 0.285898 2.32983 -0.567786
H 5.92755 2.00197 10.3207
C 4.92059 10.7595 5.55805
C 1.49714 1.64005 -0.326575
C 5.39273 10.8419 6.8741
C 1.99831 1.66467 0.981459
H 2.96429 10.7542 1.19719
C 2.05165 6.0914 5.77045
C 5.57458 6.26394 0.277294
H 2.65431 5.77025 4.93023
C 2.68001 6.67543 6.89611
C 5.96129 5.97756 1.5671
H 3.74365 6.84775 6.86108
H 0.348678 5.95066 1.22635
C 3.03943 9.49484 6.38771
C -0.502585 2.77194 0.527437
H 2.1511 8.95325 6.16633
H 5.03697 2.79885 0.853518
C 4.71274 10.1694 7.90642
C 1.27383 2.30635 2.01448
H 5.18695 10.0601 8.86492
H 1.72492 2.39267 2.99292
C 0.580826 7.06223 7.91104
C 3.91333 4.93533 2.02207
H 0.012457 7.41074 8.75868
H 3.28094 4.37546 2.69193
C -0.0694845 6.32906 6.89508
C 3.36061 5.51521 0.87211
H 2.3326 5.32474 0.613261
C 0.648108 5.97494 5.72641
C 4.19084 6.22822 -0.00233454
C 5.52441 2.06115 4.47125
C 1.96341 10.367 10.0909
C -0.0481445 5.50625 4.45517
C 3.33994 6.97203 10.3631
Ni 9.31355 8.98357 9.021
Ni 12.9071 3.93611 3.17475
O 7.5038 4.91356 3.60375
O 10.7636 7.98539 9.22771
O 11.4698 2.89139 3.22935
O 7.86351 9.97962 9.12363
O 12.3767 4.99812 4.47453
O 8.82719 7.88512 10.3142
O 6.73165 2.64843 4.60129
O 9.77679 10.1625 10.224
N 10.0376 10.0964 7.65013
N 6.827 2.85429 2.00497
N 8.62658 7.7815 7.71097
N 12.1845 5.15075 1.88785
C 9.9729 11.004 5.40873
C 6.71552 2.02973 -0.255703
H 9.40458 1.68336 4.52518
C 11.3719 1.63867 5.4079
C 8.04816 1.59699 -0.179186
C 12.065 10.7954 6.57389
C 8.6924 1.6735 1.07149
H 6.30158 1.85716 7.09603
C 8.74422 6.7787 5.52478
C 12.3733 6.84974 0.180395
H 9.27677 6.65294 4.58977
C 9.34062 7.48895 6.57759
C 12.9673 5.92094 1.06969
H 10.3433 7.87018 6.45443
H 6.95519 6.25646 1.87046
C 9.31643 10.4775 6.54764
C 6.08934 2.56532 0.887044
H 8.26071 10.2606 6.49597
H 12.1809 3.14884 0.343707
C 11.3672 10.3685 7.70654
C 8.14274 2.50131 2.05173
H 11.9159 10.1218 8.5999
H 8.75423 2.83953 2.8666
C 7.36863 7.26413 7.86749
C 10.8242 5.3069 1.85437
H 6.7444 7.61714 8.67169
H 10.2116 4.87524 2.63124
C 6.86788 6.31773 6.95462
C 10.2136 6.06711 0.852975
H 9.15701 6.26469 0.912838
C 7.47796 6.20933 5.70658
C 10.9965 6.72 -0.0982348
C 12.1132 2.23583 4.21919
C 8.51831 10.6314 10.1152
C 6.8132 5.4635 4.61357
C 10.0772 7.38554 10.2307
P 3.51191 9.27508 3.67704
H 4.1923 8.04712 3.56714
H 2.13452 9.06047 3.47835
P -0.249605 3.0858 9.36156
H 12.0428 3.2548 9.20464
H 0.402565 4.33261 9.3351
P 11.9984 5.62091 7.2519
H 11.7603 5.66164 8.63574
H 11.9622 4.26567 6.87842
P 6.43574 5.66284 10.5747
H 7.86951 5.13381 -0.400819
H 5.81114 4.45824 10.2289
P 0.139774 10.6051 6.55609
H 0.797286 2.3225 6.65895
H 0.436586 10.01 5.31453
P 9.8709 9.93666 1.58235
H 11.1841 10.4324 1.581
H 9.5129 9.37528 2.82224
P 5.83089 4.96201 7.52917
H 4.69614 5.29204 8.2824
H 6.63895 3.95146 8.08096
P -0.561439 8.46794 0.0755824
H -0.813956 8.96975 10.2867
H 0.702078 8.48422 0.693954
124
Atoms. Timestep: 24207
Ni 2.69179 8.55575 9.1038
Ni 6.11336 3.85411 3.46028
O 0.657144 4.95856 3.43751
O 4.08244 7.50991 9.36095
O 4.75747 2.74657 3.58921
O 1.29815 9.64745 9.13433
O 5.61588 4.86343 4.77785
O 2.13003 7.55232 10.4337
O -0.318081 2.76379 4.37037
O 3.18763 9.79627 10.2821
N 3.50734 9.55619 7.67183
N 0.0401355 2.86877 1.79412
N 1.93219 7.29674 7.85468
N 5.25834 5.04858 2.2694
C 3.79893 9.9551 5.30782
C 0.291341 2.34374 -0.554188
H 5.92771 2.0181 10.3046
C 4.9227 10.7416 5.55665
C 1.50239 1.65844 -0.312463
C 5.39508 10.8251 6.87036
C 2.0038 1.68193 0.993246
H 2.96899 10.7365 1.2079
C 2.05643 6.09067 5.76694
C 5.57551 6.26674 0.289025
H 2.65887 5.77108 4.92823
C 2.68488 6.67116 6.89169
C 5.96212 5.98154 1.57678
H 3.74709 6.84559 6.8562
H 0.355324 5.95196 1.23656
C 3.04183 9.48343 6.38345
C -0.496871 2.78455 0.538804
H 2.15451 8.94306 6.16236
H 5.0374 2.81201 0.864607
C 4.71531 10.1548 7.901
C 1.27953 2.32141 2.02458
H 5.18905 10.0446 8.85747
H 1.73033 2.40801 3.00131
C 0.586742 7.05982 7.90533
C 3.91509 4.93994 2.03204
H 0.0185244 7.40747 8.75146
H 3.28303 4.38142 2.70059
C -0.0631466 6.3292 6.89083
C 3.36279 5.51774 0.883587
H 2.33579 5.32802 0.62496
C 0.654326 5.97561 5.72431
C 4.1931 6.22819 0.0104259
C 5.52578 2.07511 4.47281
C 1.96857 10.3535 10.0774
C -0.0415188 5.5115 4.45649
C 3.34343 6.96787 10.3491
Ni 9.31084 8.97337 9.01089
Ni 12.9004 3.94484 3.17992
O 7.50408 4.91945 3.60599
O 10.7604 7.97798 9.21447
O 11.4636 2.90321 3.23175
O 7.86112 9.96628 9.1105
O 12.3692 5.00547 4.47779
O 8.82358 7.87644 10.3028
O 6.73308 2.65983 4.60465
O 9.77502 10.1506 10.2121
N 10.0337 10.0835 7.64507
N 6.82585 2.8663 2.01465
N 8.62541 7.77457 7.70575
N 12.1786 5.15532 1.89806
C 9.96912 10.9867 5.4062
C 6.71462 2.04494 -0.243183
H 9.40111 1.70143 4.52466
C 11.3667 1.6561 5.40636
C 8.04603 1.61493 -0.16585
C 12.0597 10.7779 6.57083
C 8.69077 1.69155 1.08226
H 6.30329 1.87474 7.09126
C 8.74242 6.77609 5.52189
C 12.3676 6.84777 0.190932
H 9.2747 6.65077 4.58857
C 9.33912 7.4835 6.57324
C 12.9613 5.92197 1.0794
H 10.3406 7.86419 6.45057
H 6.95558 6.25756 1.87872
C 9.31261 10.4628 6.54343
C 6.08844 2.57874 0.897714
H 8.25813 10.2452 6.49216
H 12.1737 3.16082 0.355722
C 11.3625 10.3528 7.70131
C 8.14098 2.51657 2.06117
H 11.911 10.1063 8.59313
H 8.75233 2.85416 2.87442
C 7.36752 7.26123 7.86154
C 10.8192 5.3096 1.86452
H 6.74355 7.61377 8.66411
H 10.2069 4.87941 2.64018
C 6.86637 6.31809 6.94977
C 10.2089 6.06758 0.864721
H 9.1535 6.26508 0.924275
C 7.4773 6.20971 5.7044
C 10.9917 6.71849 -0.0846866
C 12.1074 2.24901 4.22083
C 8.51644 10.6173 10.1013
C 6.81265 5.46855 4.61449
C 10.0737 7.37944 10.217
P 3.51376 9.26362 3.67727
H 4.19572 8.0379 3.57096
H 2.13787 9.04946 3.48252
P -0.243554 3.09786 9.3472
H 12.0364 3.26645 9.19388
H 0.410041 4.34239 9.32389
P 11.9914 5.62517 7.24577
H 11.7546 5.66392 8.62866
H 11.9565 4.27046 6.87313
P 6.43753 5.66651 10.5593
H 7.86878 5.13737 -0.385865
H 5.81101 4.46315 10.2151
P 0.145748 10.5865 6.55442
H 0.804228 2.33981 6.65516
H 0.443058 9.99451 5.31207
P 9.86896 9.92028 1.59143
H 11.1801 10.4168 1.5903
H 9.50922 9.36218 2.83049
P 5.82943 4.96481 7.52237
H 4.6969 5.29582 8.27476
H 6.6401 3.95858 8.07406
P -0.55433 8.46332 0.0900213
H -0.806372 8.9603 10.2711
H 0.708657 8.47567 0.706293
124
Atoms. Timestep: 29583
Ni 2.69579 8.54236 9.09672
Ni 6.10515 3.86849 3.47315
O 0.654401 4.95251 3.4337
O 4.07672 7.48608 9.35997
O 4.75844 2.74947 3.60459
O 1.3114 9.64674 9.12218
O 5.60838 4.8696 4.80006
O 2.12467 7.54762 10.4295
O -0.317805 2.74832 4.35762
O 3.19886 9.7842 10.2719
N 3.5219 9.5321 7.66032
N 0.0451284 2.8666 1.77616
N 1.92865 7.28348 7.85083
N 5.23506 5.06468 2.29066
C 3.83456 9.92177 5.29569
C 0.314371 2.35672 -0.577296
H 5.90917 2.02295 10.3118
C 4.94735 10.7233 5.55311
C 1.52125 1.66429 -0.329597
C 5.40522 10.8171 6.87217
C 2.01108 1.6756 0.981961
H 2.97228 10.7209 1.20303
C 2.05208 6.0486 5.77918
C 5.55594 6.28302 0.312245
H 2.65553 5.71013 4.94644
C 2.68023 6.63283 6.90267
C 5.92572 6.01643 1.60845
H 3.74668 6.78772 6.87488
H 0.357689 5.94833 1.22299
C 3.07024 9.4481 6.36603
C -0.480391 2.79813 0.51317
H 2.18844 8.90163 6.1362
H 5.02033 2.81103 0.879472
C 4.72415 10.1404 7.89797
C 1.2792 2.30766 2.0134
H 5.19337 10.0325 8.85884
H 1.72175 2.38233 2.99663
C 0.579916 7.05939 7.89905
C 3.89597 4.93234 2.03972
H 0.0120296 7.42083 8.74157
H 3.26621 4.36505 2.70538
C -0.0732469 6.32795 6.88649
C 3.34843 5.49253 0.879212
H 2.32871 5.27804 0.605188
C 0.64734 5.95736 5.72598
C 4.1781 6.21677 0.0140985
C 5.53707 2.07644 4.4772
C 1.98499 10.3518 10.0633
C -0.046048 5.5006 4.45399
C 3.33255 6.95108 10.3478
Ni 9.30626 8.99979 9.01601
Ni 12.9006 3.93679 3.16916
O 7.48755 4.94302 3.61542
O 10.7562 8.00434 9.22478
O 11.4663 2.89241 3.2156
O 7.85637 9.99251 9.11249
O 12.3662 4.99092 4.47117
O 8.82021 7.90593 10.3123
O 6.73943 2.67217 4.60835
O 9.76864 10.1825 10.2129
N 10.0281 10.1068 7.64461
N 6.81762 2.89073 2.01791
N 8.6223 7.79494 7.71343
N 12.1786 5.15516 1.89014
C 9.96221 11.0027 5.40089
C 6.69976 2.05637 -0.236303
H 9.39197 1.72591 4.5208
C 11.3637 1.64402 5.38994
C 8.03717 1.63923 -0.163903
C 12.0578 10.7534 6.54945
C 8.68352 1.71709 1.08364
H 6.30172 1.88521 7.10221
C 8.72848 6.80417 5.52447
C 12.3673 6.86254 0.194023
H 9.25271 6.6867 4.58367
C 9.3303 7.50919 6.57505
C 12.9612 5.926 1.07296
H 10.3317 7.89199 6.44725
H 6.90418 6.32871 1.93033
C 9.30533 10.4902 6.54446
C 6.07514 2.58951 0.906958
H 8.24893 10.2786 6.49634
H 12.1915 3.17819 0.323956
C 11.3601 10.3643 7.69291
C 8.13571 2.54701 2.06007
H 11.9099 10.1191 8.58582
H 8.74925 2.89256 2.87009
C 7.37087 7.26666 7.88038
C 10.8195 5.32318 1.87101
H 6.74828 7.61681 8.68682
H 10.2111 4.89424 2.6527
C 6.8725 6.31853 6.97121
C 10.2071 6.09625 0.882154
H 9.1537 6.30882 0.95592
C 7.46771 6.22766 5.7164
C 10.9884 6.7428 -0.0736912
C 12.1073 2.23384 4.20416
C 8.50915 10.6479 10.1016
C 6.79979 5.48481 4.62988
C 10.0697 7.40633 10.2278
P 3.56937 9.22428 3.66113
H 4.24204 7.99087 3.56792
H 2.19344 9.01789 3.44431
P -0.219948 3.09489 9.31159
H 12.0592 3.27358 9.16297
H 0.443172 4.3352 9.26733
P 11.9722 5.63823 7.24117
H 11.7375 5.6756 8.62574
H 11.9165 4.28422 6.86496
P 6.44442 5.68188 10.6042
H 7.85174 5.13319 -0.305175
H 5.81979 4.48139 10.2484
P 0.133236 10.4805 6.50429
H 0.84775 2.20159 6.61732
H 0.400616 9.87011 5.26306
P 9.84914 9.93356 1.59899
H 11.17 10.408 1.57502
H 9.49326 9.38162 2.84359
P 5.87932 4.93567 7.55558
H 4.72366 5.24274 8.2875
H 6.71423 3.95768 8.12685
P -0.546563 8.47728 0.0953631
H -0.79677 8.98273 10.2774
H 0.71657 8.48473 0.714562
124
Atoms. Timestep: 29586
Ni 2.69626 8.53948 9.09314
Ni 6.10523 3.87151 3.47466
O 0.654951 4.95415 3.43521
O 4.07709 7.48454 9.35613
O 4.75863 2.75391 3.60596
O 1.31197 9.64246 9.11855
O 5.60851 4.87135 4.80037
O 2.12519 7.54599 10.4247
O -0.317159 2.75275 4.35834
O 3.19932 9.77976 10.2672
N 3.52226 9.52798 7.65805
N 0.0456763 2.87088 1.7792
N 1.92917 7.2822 7.84838
N 5.2352 5.06618 2.29324
C 3.83486 9.91716 5.29553
C 0.314856 2.36164 -0.572143
H 5.9094 2.02829 10.3071
C 4.94758 10.7176 5.55273
C 1.52165 1.67008 -0.324657
C 5.40543 10.8113 6.87061
C 2.01146 1.68138 0.985719
H 2.97258 10.7153 1.20659
C 2.05255 6.04886 5.77859