Created on Tue Aug 25 11:51:37 2020 

         172 atoms
         192 bonds
         364 angles
         384 dihedrals
         168 impropers

           7 atom types
          10 bond types
          18 angle types
           5 dihedral types
           1 improper types
           0.000000  12.505600 xlo xhi
           0.000000  12.523400 ylo yhi
           0.000000  10.274279 zlo zhi
           0.000000  -0.227594   0.000000 xy xz yz

Masses

    1    58.693400000 # Ni4+2
    2    15.999400000 # O_R
    3    14.006700000 # N_R
    4    12.010700000 # C_R
    5     1.007940000 # H_
    6    30.973762000 # P_3+q
    7    12.010700000 # C_3

Bond Coeffs

    1      321.720028        1.793457  # Ni4+2 O_R
    2      328.673665        1.841585  # Ni4+2 N_R
    3      646.680887        1.311940  # O_R C_R
    4      663.718927        1.345073  # N_R C_R
    5      462.655054        1.379256  # C_R C_R
    6      357.440381        1.081418  # C_R H_
    7      319.631727        1.784947  # C_R P_3+q
    8      391.669513        1.458000  # C_R C_R
    9      305.050255        1.812946  # P_3+q C_3
   10      331.069389        1.109401  # C_3 H_

Angle Coeffs

    1              cosine/periodic      322.980216               1               4 # O_R Ni4+2 O_R
    2              cosine/periodic      343.030950               1               4 # O_R Ni4+2 N_R
    3              cosine/periodic      364.965660               1               4 # N_R Ni4+2 N_R
    4              cosine/periodic      238.346347              -1               3 # C_R O_R Ni4+2
    5              cosine/periodic      177.809033              -1               3 # Ni4+2 N_R C_R
    6              cosine/periodic      240.001032              -1               3 # C_R N_R C_R
    7              cosine/periodic      114.578032              -1               3 # C_R C_R H_
    8              cosine/periodic      222.595017              -1               3 # C_R C_R C_R
    9              cosine/periodic      216.173917              -1               3 # C_R C_R P_3+q
   10              cosine/periodic      204.366560              -1               3 # C_R C_R C_R
   11              cosine/periodic      307.398705              -1               3 # N_R C_R C_R
   12              cosine/periodic      159.573934              -1               3 # N_R C_R H_
   13              cosine/periodic      263.511421              -1               3 # O_R C_R C_R
   14              cosine/periodic      374.272657              -1               3 # O_R C_R O_R
   15                      fourier      127.678311        0.343737        0.374972        0.281246 # C_R P_3+q C_3
   16                      fourier      124.757497        0.343737        0.374972        0.281246 # C_3 P_3+q C_3
   17                      fourier      119.233634        0.343737        0.374972        0.281246 # P_3+q C_3 H_
   18                      fourier       75.498766        0.343737        0.374972        0.281246 # H_ C_3 H_

Dihedral Coeffs

    1        2.245703              -1               2 # Ni4+2 O_R C_R C_R
    2        1.497136              -1               2 # Ni4+2 N_R C_R C_R
    3        0.111111               1               3 # C_R C_R P_3+q C_3
    4        0.555556              -1               2 # C_R C_R C_R O_R
    5        0.093964               1               3 # C_R P_3+q C_3 H_

Improper Coeffs

    1        2.000000        1.000000       -1.000000        0.000000               0 # Ni4+2 N_R C_R C_R

Pair Coeffs

    1        0.015000        2.524807 # Ni4+2 Ni4+2
    2        0.060000        3.118146 # O_R O_R
    3        0.069000        3.260689 # N_R N_R
    4        0.105000        3.430851 # C_R C_R
    5        0.044000        2.571134 # H_ H_
    6        0.305000        3.694557 # P_3+q P_3+q
    7        0.105000        3.430851 # C_3 C_3

Atoms

       1      444        1     0.00000    2.89857    9.41116    8.59265
       2      444        1     0.00000    6.17525    3.10579    3.48481
       3      444        2     0.00000    1.44827    4.35425    3.93374
       4      444        2     0.00000    4.44160    8.15245    9.05464
       5      444        2     0.00000    4.63665    1.84729    3.87523
       6      444        2     0.00000    1.36499   10.67435    9.00295
       7      444        2     0.00000    5.80609    4.46033    4.96242
       8      444        2     0.00000    2.54244    8.03270   10.06753
       9      444        2     0.00000    0.25117    1.69264    4.94273
      10      444        2     0.00000    3.23722   10.80466   10.06262
      11      444        3     0.00000    3.69677   10.66058    7.24160
      12      444        3     0.00000    0.71256    1.86420    2.11704
      13      444        3     0.00000    2.17217    8.14409    7.25198
      14      444        3     0.00000    5.44023    4.39481    2.13747
      15      444        4     0.00000    3.48546   12.14832    5.36301
      16      444        4     0.00000    0.47488    0.38955    0.22920
      17      444        5     0.00000    2.86453   12.51808    4.55267
      18      444        5     0.00000    5.86971    0.03371    9.69377
      19      444        4     0.00000    4.76073    0.14740    5.61481
      20      444        4     0.00000    1.74333   12.36991    0.47412
      21      444        4     0.00000    5.50345   12.15023    6.68209
      22      444        4     0.00000    2.49852    0.35508    1.54004
      23      444        5     0.00000    0.24768   12.50843    6.91993
      24      444        5     0.00000    3.49155   12.50668    1.77336
      25      444        4     0.00000    2.48363    6.63370    5.40822
      26      444        4     0.00000    5.72803    5.90364    0.28669
      27      444        4     0.00000    2.92756    7.68099    6.23068
      28      444        4     0.00000    6.18830    4.86756    1.11596
      29      444        5     0.00000    3.89994    8.14655    6.08890
      30      444        5     0.00000    0.91589    4.41889    0.97634
      31      444        4     0.00000    2.98256   11.13588    6.19748
      32      444        4     0.00000   -0.01036    1.40553    1.07106
      33      444        5     0.00000    1.99392   10.70905    6.04703
      34      444        5     0.00000    5.26093    1.85011    0.92351
      35      444        4     0.00000    4.93641   11.13810    7.47507
      36      444        4     0.00000    1.94823    1.37190    2.34060
      37      444        5     0.00000    5.48559   10.70967    8.30944
      38      444        5     0.00000    2.50886    1.79214    3.17267
      39      444        4     0.00000    0.94573    7.62654    7.47302
      40      444        4     0.00000    4.21083    4.90458    2.35686
      41      444        5     0.00000    0.36328    8.05184    8.28732
      42      444        5     0.00000    3.63605    4.47744    3.17528
      43      444        4     0.00000    0.43859    6.57577    6.69176
      44      444        4     0.00000    3.68763    5.94500    1.56944
      45      444        4     0.00000    1.22745    6.06471    5.65205
      46      444        4     0.00000    4.46338    6.45777    0.52027
      47      444        4     0.00000    5.31260    1.24381    4.79419
      48      444        4     0.00000    2.05020   11.26755    9.92158
      49      444        4     0.00000    0.73548    4.94016    4.83586
      50      444        4     0.00000    3.73174    7.56629    9.95688
      51      444        1     0.00000    9.15137    9.41116    8.59265
      52      444        1     0.00000   12.42805    3.10579    3.48481
      53      444        2     0.00000    7.70109    4.35425    3.93374
      54      444        2     0.00000   10.69440    8.15245    9.05464
      55      444        2     0.00000   10.88945    1.84729    3.87523
      56      444        2     0.00000    7.61779   10.67435    9.00295
      57      444        2     0.00000   12.05889    4.46033    4.96242
      58      444        2     0.00000    8.79524    8.03270   10.06753
      59      444        2     0.00000    6.50397    1.69264    4.94273
      60      444        2     0.00000    9.49002   10.80466   10.06262
      61      444        3     0.00000    9.94957   10.66058    7.24160
      62      444        3     0.00000    6.96536    1.86420    2.11704
      63      444        3     0.00000    8.42499    8.14409    7.25198
      64      444        3     0.00000   11.69303    4.39481    2.13747
      65      444        4     0.00000    9.73826   12.14832    5.36301
      66      444        4     0.00000    6.72768    0.38955    0.22920
      67      444        4     0.00000   11.01353    0.14740    5.61481
      68      444        4     0.00000    7.99613   12.36991    0.47412
      69      444        4     0.00000   11.75625   12.15023    6.68209
      70      444        4     0.00000    8.75132    0.35508    1.54004
      71      444        4     0.00000    8.73644    6.63370    5.40822
      72      444        4     0.00000   11.98084    5.90364    0.28669
      73      444        5     0.00000    9.38574    6.27291    4.61605
      74      444        5     0.00000    6.14452    6.26667    9.76620
      75      444        4     0.00000    9.18036    7.68099    6.23068
      76      444        4     0.00000   12.44110    4.86756    1.11596
      77      444        5     0.00000   10.15274    8.14655    6.08890
      78      444        5     0.00000    7.16869    4.41889    0.97634
      79      444        4     0.00000    9.23536   11.13588    6.19748
      80      444        4     0.00000    6.24244    1.40553    1.07106
      81      444        5     0.00000    8.24672   10.70905    6.04703
      82      444        5     0.00000   11.51373    1.85011    0.92351
      83      444        4     0.00000   11.18921   11.13810    7.47507
      84      444        4     0.00000    8.20102    1.37190    2.34060
      85      444        5     0.00000   11.73839   10.70967    8.30944
      86      444        5     0.00000    8.76167    1.79214    3.17267
      87      444        4     0.00000    7.19853    7.62654    7.47302
      88      444        4     0.00000   10.46363    4.90458    2.35686
      89      444        5     0.00000    6.61608    8.05184    8.28732
      90      444        5     0.00000    9.88885    4.47744    3.17528
      91      444        4     0.00000    6.69139    6.57577    6.69176
      92      444        4     0.00000    9.94043    5.94500    1.56944
      93      444        5     0.00000   11.96054    6.17693    6.91975
      94      444        5     0.00000    8.95104    6.32683    1.80071
      95      444        4     0.00000    7.48025    6.06471    5.65205
      96      444        4     0.00000   10.71618    6.45777    0.52027
      97      444        4     0.00000   11.56540    1.24381    4.79419
      98      444        4     0.00000    8.30300   11.26755    9.92158
      99      444        4     0.00000    6.98827    4.94016    4.83586
     100      444        4     0.00000    9.98454    7.56629    9.95688
     101      444        6     0.00000    7.23811    0.23669    7.08513
     102      444        7     0.00000    7.66018   11.92794    8.70675
     103      444        5     0.00000    7.81999   10.84241    8.54271
     104      444        5     0.00000    6.85868   12.08593    9.45837
     105      444        5     0.00000    8.59881   12.36693    9.10282
     106      444        7     0.00000    6.75076    1.87573    7.83914
     107      444        5     0.00000    6.33157    2.55087    7.06777
     108      444        5     0.00000    7.64814    2.35548    8.28113
     109      444        5     0.00000    5.98827    1.72534    8.63114
     110      444        6     0.00000   11.67188   12.31924    9.07919
     111      444        7     0.00000   10.23145    0.98959    9.05784
     112      444        5     0.00000    9.58291    0.81321    9.94050
     113      444        5     0.00000   10.58390    2.04219    9.04802
     114      444        5     0.00000    9.63332    0.81530    8.13997
     115      444        7     0.00000    0.11212    0.62177    7.69509
     116      444        5     0.00000    1.10952    0.15639    7.57210
     117      444        5     0.00000   12.05279    0.50641    6.74728
     118      444        5     0.00000    0.24871    1.70159    7.91095
     119      444        6     0.00000    3.59808    6.03445    4.01348
     120      444        7     0.00000    5.00647    7.26558    3.98061
     121      444        5     0.00000    5.64765    7.12844    4.87552
     122      444        5     0.00000    4.62636    8.30777    3.94010
     123      444        5     0.00000    5.62117    7.08494    3.07501
     124      444        7     0.00000    2.64915    6.80039    2.59739
     125      444        5     0.00000    1.66618    6.30549    2.47344
     126      444        5     0.00000    3.22950    6.67699    1.65996
     127      444        5     0.00000    2.48107    7.88114    2.78452
     128      444        6     0.00000    1.97001    6.60852    1.95944
     129      444        7     0.00000    1.30133    5.43780    3.25657
     130      444        5     0.00000    1.84002    5.58947    4.21449
     131      444        5     0.00000    1.39585    4.38129    2.92923
     132      444        5     0.00000    0.22577    5.65617    3.41813
     133      444        7     0.00000    1.07302    5.82286    0.52047
     134      444        5     0.00000    1.16844    6.27793    9.83815
     135      444        5     0.00000   12.48726    5.98303    0.63920
     136      444        5     0.00000    1.28145    4.73361    0.48333
     137      444        6     0.00000    8.67102    0.24245    3.93823
     138      444        7     0.00000    7.21290   11.59405    3.90587
     139      444        5     0.00000    6.56416   11.77550    4.78735
     140      444        5     0.00000    7.54953   10.53632    3.89160
     141      444        5     0.00000    6.62050   11.78214    2.98701
     142      444        7     0.00000    9.60893   11.93311    2.55283
     143      444        5     0.00000   10.61361   12.38408    2.43556
     144      444        5     0.00000    9.04894   12.06195    1.60383
     145      444        5     0.00000    9.72857   10.85022    2.76338
     146      444        6     0.00000   10.47720   12.24023    1.93637
     147      444        7     0.00000   11.11077    0.87666    3.26065
     148      444        5     0.00000   10.56542    0.69812    4.21012
     149      444        5     0.00000   10.99976    1.93686    2.95086
     150      444        5     0.00000   12.18855    0.67547    3.42950
     151      444        7     0.00000   11.37373    0.54432    0.52075
     152      444        5     0.00000   10.84132    0.10030    9.82732
     153      444        5     0.00000   12.46664    0.40235    0.64798
     154      444        5     0.00000   11.14532    1.63000    0.50049
     155      444        6     0.00000    4.97911    5.89598    7.07512
     156      444        7     0.00000    4.28897    7.06880    8.35905
     157      444        5     0.00000    4.82297    6.93024    9.32158
     158      444        5     0.00000    4.37396    8.12383    8.02442
     159      444        5     0.00000    3.21486    6.83969    8.51523
     160      444        7     0.00000    4.08299    6.66091    5.62449
     161      444        5     0.00000    4.41734    6.20236    4.67345
     162      444        5     0.00000    2.99272    6.48951    5.73730
     163      444        5     0.00000    4.27959    7.75211    5.58054
     164      444        6     0.00000    0.35892    6.51053    9.16437
     165      444        7     0.00000    1.78535    5.30009    9.14390
     166      444        5     0.00000    2.42163    5.45251   10.03985
     167      444        5     0.00000    1.42074    4.25217    9.10911
     168      444        5     0.00000    2.40018    5.48385    8.23903
     169      444        7     0.00000   11.93142    5.72144    7.75045
     170      444        5     0.00000   10.94166    6.20099    7.62025
     171      444        5     0.00000    0.00725    5.84724    6.81403
     172      444        5     0.00000   11.77866    4.63959    7.94420

Bonds

       1        1        1        4
       2        1        1        6
       3        1        1        8
       4        1        1       10
       5        2        1       11
       6        2        1       13
       7        1        2        5
       8        1        2        7
       9        2        2       14
      10        1        2       53
      11        1        2       59
      12        2        2       62
      13        3        3       49
      14        1        3       52
      15        3        4       50
      16        3        5       47
      17        3        6       48
      18        3        7       99
      19        3        8       50
      20        1        9       52
      21        3        9       97
      22        3       10       48
      23        4       11       31
      24        4       11       35
      25        4       12       32
      26        4       12       36
      27        2       12       52
      28        4       13       27
      29        4       13       39
      30        4       14       28
      31        4       14       40
      32        6       15       17
      33        5       15       19
      34        5       15       31
      35        5       16       20
      36        5       16       32
      37        7       16      110
      38        6       18       66
      39        5       19       21
      40        8       19       47
      41        5       20       22
      42        8       20       48
      43        5       21       35
      44        7       21      101
      45        6       22       24
      46        5       22       36
      47        6       23       69
      48        5       25       27
      49        5       25       45
      50        7       25      119
      51        5       26       28
      52        5       26       46
      53        6       26       74
      54        6       27       29
      55        6       28       78
      56        6       30       76
      57        6       31       33
      58        6       32       82
      59        6       34       80
      60        6       35       37
      61        6       36       38
      62        6       39       41
      63        5       39       43
      64        6       40       42
      65        5       40       44
      66        5       43       45
      67        6       43       93
      68        5       44       46
      69        7       44      128
      70        8       45       49
      71        8       46       50
      72        3       47       59
      73        3       49       57
      74        1       51       54
      75        1       51       56
      76        1       51       58
      77        1       51       60
      78        2       51       61
      79        2       51       63
      80        1       52       55
      81        1       52       57
      82        2       52       64
      83        3       53       99
      84        3       54      100
      85        3       55       97
      86        3       56       98
      87        3       58      100
      88        3       60       98
      89        4       61       79
      90        4       61       83
      91        4       62       80
      92        4       62       84
      93        4       63       75
      94        4       63       87
      95        4       64       76
      96        4       64       88
      97        5       65       67
      98        5       65       79
      99        7       65      137
     100        5       66       68
     101        5       66       80
     102        5       67       69
     103        8       67       97
     104        5       68       70
     105        8       68       98
     106        5       69       83
     107        5       70       84
     108        7       70      146
     109        6       71       73
     110        5       71       75
     111        5       71       95
     112        5       72       76
     113        5       72       96
     114        7       72      164
     115        6       75       77
     116        6       79       81
     117        6       83       85
     118        6       84       86
     119        6       87       89
     120        5       87       91
     121        6       88       90
     122        5       88       92
     123        5       91       95
     124        7       91      155
     125        6       92       94
     126        5       92       96
     127        8       95       99
     128        8       96      100
     129        9      101      102
     130        9      101      106
     131       10      102      103
     132       10      102      104
     133       10      102      105
     134       10      106      107
     135       10      106      108
     136       10      106      109
     137        9      110      111
     138        9      110      115
     139       10      111      112
     140       10      111      113
     141       10      111      114
     142       10      115      116
     143       10      115      117
     144       10      115      118
     145        9      119      120
     146        9      119      124
     147       10      120      121
     148       10      120      122
     149       10      120      123
     150       10      124      125
     151       10      124      126
     152       10      124      127
     153        9      128      129
     154        9      128      133
     155       10      129      130
     156       10      129      131
     157       10      129      132
     158       10      133      134
     159       10      133      135
     160       10      133      136
     161        9      137      138
     162        9      137      142
     163       10      138      139
     164       10      138      140
     165       10      138      141
     166       10      142      143
     167       10      142      144
     168       10      142      145
     169        9      146      147
     170        9      146      151
     171       10      147      148
     172       10      147      149
     173       10      147      150
     174       10      151      152
     175       10      151      153
     176       10      151      154
     177        9      155      156
     178        9      155      160
     179       10      156      157
     180       10      156      158
     181       10      156      159
     182       10      160      161
     183       10      160      162
     184       10      160      163
     185        9      164      165
     186        9      164      169
     187       10      165      166
     188       10      165      167
     189       10      165      168
     190       10      169      170
     191       10      169      171
     192       10      169      172

Angles

       1        1        4        1        6
       2        1        4        1        8
       3        1        4        1       10
       4        2        4        1       11
       5        2        4        1       13
       6        1        6        1        8
       7        1        6        1       10
       8        2        6        1       11
       9        2        6        1       13
      10        1        8        1       10
      11        2        8        1       11
      12        2        8        1       13
      13        2       10        1       11
      14        2       10        1       13
      15        3       11        1       13
      16        2       14        2        5
      17        2       14        2        7
      18        2       14        2       53
      19        2       14        2       59
      20        3       14        2       62
      21        1        5        2        7
      22        1        5        2       53
      23        1        5        2       59
      24        2        5        2       62
      25        1        7        2       53
      26        1        7        2       59
      27        2        7        2       62
      28        1       53        2       59
      29        2       53        2       62
      30        2       59        2       62
      31        4       49        3       52
      32        4        1        4       50
      33        4        2        5       47
      34        4        1        6       48
      35        4        2        7       99
      36        4        1        8       50
      37        4       52        9       97
      38        4        1       10       48
      39        5        1       11       31
      40        5        1       11       35
      41        6       31       11       35
      42        6       32       12       36
      43        5       32       12       52
      44        5       36       12       52
      45        5        1       13       27
      46        5        1       13       39
      47        6       27       13       39
      48        5        2       14       28
      49        5        2       14       40
      50        6       28       14       40
      51        7       19       15       17
      52        8       19       15       31
      53        7       17       15       31
      54        8       20       16       32
      55        9       20       16      110
      56        9       32       16      110
      57        8       15       19       21
      58       10       15       19       47
      59       10       21       19       47
      60        8       16       20       22
      61       10       16       20       48
      62       10       22       20       48
      63        8       19       21       35
      64        9       19       21      101
      65        9       35       21      101
      66        8       20       22       36
      67        7       20       22       24
      68        7       36       22       24
      69        8       27       25       45
      70        9       27       25      119
      71        9       45       25      119
      72        8       28       26       46
      73        7       28       26       74
      74        7       46       26       74
      75       11       13       27       25
      76       12       13       27       29
      77        7       25       27       29
      78       11       14       28       26
      79       12       14       28       78
      80        7       26       28       78
      81       11       11       31       15
      82       12       11       31       33
      83        7       15       31       33
      84       11       12       32       16
      85       12       12       32       82
      86        7       16       32       82
      87       11       21       35       11
      88        7       21       35       37
      89       12       11       35       37
      90       11       12       36       22
      91       12       12       36       38
      92        7       22       36       38
      93       11       13       39       43
      94       12       13       39       41
      95        7       43       39       41
      96       11       14       40       44
      97       12       14       40       42
      98        7       44       40       42
      99        8       39       43       45
     100        7       39       43       93
     101        7       45       43       93
     102        8       40       44       46
     103        9       40       44      128
     104        9       46       44      128
     105        8       25       45       43
     106       10       25       45       49
     107       10       43       45       49
     108        8       26       46       44
     109       10       26       46       50
     110       10       44       46       50
     111       13        5       47       19
     112       14        5       47       59
     113       13       19       47       59
     114       13       10       48       20
     115       14       10       48        6
     116       13       20       48        6
     117       13        3       49       45
     118       14        3       49       57
     119       13       45       49       57
     120       13        8       50       46
     121       14        8       50        4
     122       13       46       50        4
     123        1       54       51       56
     124        1       54       51       58
     125        1       54       51       60
     126        2       54       51       61
     127        2       54       51       63
     128        1       56       51       58
     129        1       56       51       60
     130        2       56       51       61
     131        2       56       51       63
     132        1       58       51       60
     133        2       58       51       61
     134        2       58       51       63
     135        2       60       51       61
     136        2       60       51       63
     137        3       61       51       63
     138        2        9       52       12
     139        1        9       52       55
     140        1        9       52        3
     141        1        9       52       57
     142        2        9       52       64
     143        2       12       52       55
     144        2       12       52        3
     145        2       12       52       57
     146        3       12       52       64
     147        1       55       52        3
     148        1       55       52       57
     149        2       55       52       64
     150        1        3       52       57
     151        2        3       52       64