Created on Tue Aug 25 11:51:39 2020 

         172 atoms
         192 bonds
         364 angles
         384 dihedrals
         168 impropers

           7 atom types
          10 bond types
          19 angle types
           5 dihedral types
           1 improper types
           0.000000  12.505600 xlo xhi
           0.000000  12.523400 ylo yhi
           0.000000  10.274279 zlo zhi
           0.000000  -0.227594   0.000000 xy xz yz

Masses

    1    58.693400000 # Ni4+2
    2    15.999400000 # O_R
    3    14.006700000 # N_R
    4    12.010700000 # C_R
    5     1.007940000 # H_
    6    30.973762000 # P_3+q
    7    12.010700000 # C_3

Bond Coeffs

    1      321.720028        1.793457  # Ni4+2 O_R
    2      328.673665        1.841585  # Ni4+2 N_R
    3      646.680887        1.311940  # O_R C_R
    4      663.718927        1.345073  # N_R C_R
    5      462.655054        1.379256  # C_R C_R
    6      357.440381        1.081418  # C_R H_
    7      391.669513        1.458000  # C_R C_R
    8      319.631727        1.784947  # C_R P_3+q
    9      305.050255        1.812946  # P_3+q C_3
   10      331.069389        1.109401  # C_3 H_

Angle Coeffs

    1              cosine/periodic      322.980216               1               4 # O_R Ni4+2 O_R
    2              cosine/periodic      343.030950               1               4 # O_R Ni4+2 N_R
    3              cosine/periodic      364.965660               1               4 # N_R Ni4+2 N_R
    4              cosine/periodic      238.346347              -1               3 # C_R O_R Ni4+2
    5              cosine/periodic      177.809033              -1               3 # Ni4+2 N_R C_R
    6              cosine/periodic      240.001032              -1               3 # C_R N_R C_R
    7              cosine/periodic      114.578032              -1               3 # C_R C_R H_
    8              cosine/periodic      222.595017              -1               3 # C_R C_R C_R
    9              cosine/periodic      204.366560              -1               3 # C_R C_R C_R
   10              cosine/periodic      307.398705              -1               3 # N_R C_R C_R
   11              cosine/periodic      159.573934              -1               3 # N_R C_R H_
   12              cosine/periodic      295.880527              -1               3 # N_R C_R P_3+q
   13              cosine/periodic      216.173917              -1               3 # C_R C_R P_3+q
   14              cosine/periodic      263.511421              -1               3 # O_R C_R C_R
   15              cosine/periodic      374.272657              -1               3 # O_R C_R O_R
   16                      fourier      127.678311        0.343737        0.374972        0.281246 # C_R P_3+q C_3
   17                      fourier      124.757497        0.343737        0.374972        0.281246 # C_3 P_3+q C_3
   18                      fourier      119.233634        0.343737        0.374972        0.281246 # P_3+q C_3 H_
   19                      fourier       75.498766        0.343737        0.374972        0.281246 # H_ C_3 H_

Dihedral Coeffs

    1        2.245703              -1               2 # Ni4+2 O_R C_R C_R
    2        1.497136              -1               2 # Ni4+2 N_R C_R C_R
    3        0.555556              -1               2 # C_R C_R C_R O_R
    4        0.111111               1               3 # N_R C_R P_3+q C_3
    5        0.093964               1               3 # C_R P_3+q C_3 H_

Improper Coeffs

    1        2.000000        1.000000       -1.000000        0.000000               0 # Ni4+2 N_R C_R C_R

Pair Coeffs

    1        0.015000        2.524807 # Ni4+2 Ni4+2
    2        0.060000        3.118146 # O_R O_R
    3        0.069000        3.260689 # N_R N_R
    4        0.105000        3.430851 # C_R C_R
    5        0.044000        2.571134 # H_ H_
    6        0.305000        3.694557 # P_3+q P_3+q
    7        0.105000        3.430851 # C_3 C_3

Atoms

       1      444        1     0.00000    2.89857    9.41116    8.59265
       2      444        1     0.00000    6.17525    3.10579    3.48481
       3      444        2     0.00000    1.44827    4.35425    3.93374
       4      444        2     0.00000    4.44160    8.15245    9.05464
       5      444        2     0.00000    4.63665    1.84729    3.87523
       6      444        2     0.00000    1.36499   10.67435    9.00295
       7      444        2     0.00000    5.80609    4.46033    4.96242
       8      444        2     0.00000    2.54244    8.03270   10.06753
       9      444        2     0.00000    0.25117    1.69264    4.94273
      10      444        2     0.00000    3.23722   10.80466   10.06262
      11      444        3     0.00000    3.69677   10.66058    7.24160
      12      444        3     0.00000    0.71256    1.86420    2.11704
      13      444        3     0.00000    2.17217    8.14409    7.25198
      14      444        3     0.00000    5.44023    4.39481    2.13747
      15      444        4     0.00000    3.48546   12.14832    5.36301
      16      444        4     0.00000    0.47488    0.38955    0.22920
      17      444        5     0.00000    2.86453   12.51808    4.55267
      18      444        5     0.00000    5.86971    0.03371    9.69377
      19      444        4     0.00000    4.76073    0.14740    5.61481
      20      444        4     0.00000    1.74333   12.36991    0.47412
      21      444        4     0.00000    5.50345   12.15023    6.68209
      22      444        4     0.00000    2.49852    0.35508    1.54004
      23      444        5     0.00000    0.24768   12.50843    6.91993
      24      444        5     0.00000    3.49155   12.50668    1.77336
      25      444        4     0.00000    2.48363    6.63370    5.40822
      26      444        4     0.00000    5.72803    5.90364    0.28669
      27      444        5     0.00000    3.13294    6.27291    4.61605
      28      444        5     0.00000   -0.10828    6.26667    9.76620
      29      444        4     0.00000    2.92756    7.68099    6.23068
      30      444        4     0.00000    6.18830    4.86756    1.11596
      31      444        5     0.00000    3.89994    8.14655    6.08890
      32      444        4     0.00000    2.98256   11.13588    6.19748
      33      444        4     0.00000   -0.01036    1.40553    1.07106
      34      444        5     0.00000    1.99392   10.70905    6.04703
      35      444        5     0.00000    5.26093    1.85011    0.92351
      36      444        4     0.00000    4.93641   11.13810    7.47507
      37      444        4     0.00000    1.94823    1.37190    2.34060
      38      444        4     0.00000    0.94573    7.62654    7.47302
      39      444        4     0.00000    4.21083    4.90458    2.35686
      40      444        5     0.00000    3.63605    4.47744    3.17528
      41      444        4     0.00000    0.43859    6.57577    6.69176
      42      444        4     0.00000    3.68763    5.94500    1.56944
      43      444        5     0.00000    5.70774    6.17693    6.91975
      44      444        5     0.00000    2.69824    6.32683    1.80071
      45      444        4     0.00000    1.22745    6.06471    5.65205
      46      444        4     0.00000    4.46338    6.45777    0.52027
      47      444        4     0.00000    5.31260    1.24381    4.79419
      48      444        4     0.00000    2.05020   11.26755    9.92158
      49      444        4     0.00000    0.73548    4.94016    4.83586
      50      444        4     0.00000    3.73174    7.56629    9.95688
      51      444        1     0.00000    9.15137    9.41116    8.59265
      52      444        1     0.00000   12.42805    3.10579    3.48481
      53      444        2     0.00000    7.70109    4.35425    3.93374
      54      444        2     0.00000   10.69440    8.15245    9.05464
      55      444        2     0.00000   10.88945    1.84729    3.87523
      56      444        2     0.00000    7.61779   10.67435    9.00295
      57      444        2     0.00000   12.05889    4.46033    4.96242
      58      444        2     0.00000    8.79524    8.03270   10.06753
      59      444        2     0.00000    6.50397    1.69264    4.94273
      60      444        2     0.00000    9.49002   10.80466   10.06262
      61      444        3     0.00000    9.94957   10.66058    7.24160
      62      444        3     0.00000    6.96536    1.86420    2.11704
      63      444        3     0.00000    8.42499    8.14409    7.25198
      64      444        3     0.00000   11.69303    4.39481    2.13747
      65      444        4     0.00000    9.73826   12.14832    5.36301
      66      444        4     0.00000    6.72768    0.38955    0.22920
      67      444        5     0.00000    9.11733   12.51808    4.55267
      68      444        5     0.00000   12.12251    0.03371    9.69377
      69      444        4     0.00000   11.01353    0.14740    5.61481
      70      444        4     0.00000    7.99613   12.36991    0.47412
      71      444        4     0.00000   11.75625   12.15023    6.68209
      72      444        4     0.00000    8.75132    0.35508    1.54004
      73      444        5     0.00000    6.50047   12.50843    6.91993
      74      444        5     0.00000    9.74435   12.50668    1.77336
      75      444        4     0.00000    8.73644    6.63370    5.40822
      76      444        4     0.00000   11.98084    5.90364    0.28669
      77      444        5     0.00000    9.38574    6.27291    4.61605
      78      444        5     0.00000    6.14452    6.26667    9.76620
      79      444        4     0.00000    9.18036    7.68099    6.23068
      80      444        4     0.00000   12.44110    4.86756    1.11596
      81      444        5     0.00000   10.15274    8.14655    6.08890
      82      444        4     0.00000    9.23536   11.13588    6.19748
      83      444        4     0.00000    6.24244    1.40553    1.07106
      84      444        5     0.00000    8.24672   10.70905    6.04703
      85      444        5     0.00000   11.51373    1.85011    0.92351
      86      444        4     0.00000   11.18921   11.13810    7.47507
      87      444        4     0.00000    8.20102    1.37190    2.34060
      88      444        4     0.00000    7.19853    7.62654    7.47302
      89      444        4     0.00000   10.46363    4.90458    2.35686
      90      444        5     0.00000    9.88885    4.47744    3.17528
      91      444        4     0.00000    6.69139    6.57577    6.69176
      92      444        4     0.00000    9.94043    5.94500    1.56944
      93      444        5     0.00000   11.96054    6.17693    6.91975
      94      444        5     0.00000    8.95104    6.32683    1.80071
      95      444        4     0.00000    7.48025    6.06471    5.65205
      96      444        4     0.00000   10.71618    6.45777    0.52027
      97      444        4     0.00000   11.56540    1.24381    4.79419
      98      444        4     0.00000    8.30300   11.26755    9.92158
      99      444        4     0.00000    6.98827    4.94016    4.83586
     100      444        4     0.00000    9.98454    7.56629    9.95688
     101      444        6     0.00000    5.93967   10.40414    8.92702
     102      444        7     0.00000    4.70978    9.30306    9.80751
     103      444        5     0.00000    4.48931    8.41153    9.18511
     104      444        5     0.00000    3.77153    9.85157   10.03360
     105      444        5     0.00000    5.38042    8.96342    0.49185
     106      444        7     0.00000    5.77031   11.84772   10.10169
     107      444        5     0.00000    6.33815    0.19917    9.72924
     108      444        5     0.00000    6.40048   11.55966    0.82026
     109      444        5     0.00000    4.70415   12.13615   10.20841
     110      444        6     0.00000    2.97005    2.08942    3.78751
     111      444        7     0.00000    1.75907    3.20178    4.67991
     112      444        5     0.00000    1.54457    4.09773    4.06180
     113      444        5     0.00000    0.81614    2.66339    4.91087
     114      444        5     0.00000    2.21263    3.53330    5.63646
     115      444        7     0.00000    2.79225    0.64419    4.95891
     116      444        5     0.00000    3.34738   12.28745    4.57983
     117      444        5     0.00000    3.20498    0.92449    5.94980
     118      444        5     0.00000    1.72360    0.36770    5.07218
     119      444        6     0.00000   -0.11509    8.35494    8.88386
     120      444        7     0.00000    1.05232    9.52292    9.76321
     121      444        5     0.00000    1.25250   10.40740    9.12413
     122      444        5     0.00000    2.00549    9.01638   10.02243
     123      444        5     0.00000    0.80319    9.86768    0.42938
     124      444        7     0.00000    0.08290    6.94693   10.09663
     125      444        5     0.00000   12.06267    6.04238    9.73360
     126      444        5     0.00000   12.38101    7.24255    0.79913
     127      444        5     0.00000    1.15663    6.70235   10.23292
     128      444        6     0.00000    7.90559    4.09530    0.80445
     129      444        7     0.00000    8.16109    2.96554    2.27368
     130      444        5     0.00000    7.48152    2.09175    2.19964
     131      444        5     0.00000    7.98637    3.50449    3.22831
     132      444        5     0.00000    9.20830    2.59963    2.26836
     133      444        7     0.00000    8.93658    5.50378    1.47208
     134      444        5     0.00000    8.85871    6.39073    0.81345
     135      444        5     0.00000    9.99918    5.18829    1.51861
     136      444        5     0.00000    8.59339    5.78582    2.48890
     137      444        6     0.00000   12.19247   10.40414    8.92702
     138      444        7     0.00000   10.96258    9.30306    9.80751
     139      444        5     0.00000   10.74211    8.41153    9.18511
     140      444        5     0.00000   10.02433    9.85157   10.03360
     141      444        5     0.00000   11.63322    8.96342    0.49185
     142      444        7     0.00000   12.02311   11.84772   10.10169
     143      444        5     0.00000    0.08535    0.19917    9.72924
     144      444        5     0.00000    0.14768   11.55966    0.82026
     145      444        5     0.00000   10.95695   12.13615   10.20841
     146      444        6     0.00000    9.21947    2.08336    3.79287
     147      444        7     0.00000    8.19761    3.53424    4.38532
     148      444        5     0.00000    7.27779    3.16782    4.88579
     149      444        5     0.00000    7.93127    4.20680    3.54327
     150      444        5     0.00000    8.79111    4.11622    5.11994
     151      444        7     0.00000   10.41763    3.10084    2.78211
     152      444        5     0.00000   11.09748    2.44392    2.20524
     153      444        5     0.00000   11.02595    3.73122    3.46281
     154      444        5     0.00000    9.86788    3.75309    2.07245
     155      444        6     0.00000    6.14116    8.34914    8.88942
     156      444        7     0.00000    7.11518    9.84228    9.45698
     157      444        5     0.00000    8.03660    9.51419    9.98058
     158      444        5     0.00000    7.37650   10.49889    8.60091
     159      444        5     0.00000    6.49536   10.42762   10.16677
     160      444        7     0.00000    4.93214    9.30665    7.83400
     161      444        5     0.00000    4.27877    8.61650    7.26538
     162      444        5     0.00000    4.29705    9.93852    8.48835
     163      444        5     0.00000    5.47525    9.95414    7.11492
     164      444        6     0.00000    1.65640    4.10119    0.80982
     165      444        7     0.00000    1.71000    2.64105    1.97832
     166      444        5     0.00000    1.78325    2.99929    3.02574
     167      444        5     0.00000    0.81316    1.99817    1.85718
     168      444        5     0.00000    2.60786    2.03069    1.75049
     169      444        7     0.00000    0.99118    3.10618    9.56393
     170      444        5     0.00000    0.78020    3.77528    8.70700
     171      444        5     0.00000    1.84501    2.44903    9.29947
     172      444        5     0.00000    0.09414    2.48182    9.75570

Bonds

       1        1        1        4
       2        1        1        6
       3        1        1        8
       4        1        1       10
       5        2        1       11
       6        2        1       13
       7        1        2        5
       8        1        2        7
       9        2        2       14
      10        1        2       53
      11        1        2       59
      12        2        2       62
      13        3        3       49
      14        1        3       52
      15        3        4       50
      16        3        5       47
      17        3        6       48
      18        3        7       99
      19        3        8       50
      20        1        9       52
      21        3        9       97
      22        3       10       48
      23        4       11       32
      24        4       11       36
      25        4       12       33
      26        4       12       37
      27        2       12       52
      28        4       13       29
      29        4       13       38
      30        4       14       30
      31        4       14       39
      32        6       15       17
      33        5       15       19
      34        5       15       32
      35        5       16       20
      36        5       16       33
      37        6       16       68
      38        6       18       66
      39        5       19       21
      40        7       19       47
      41        5       20       22
      42        7       20       48
      43        5       21       36
      44        6       21       73
      45        6       22       24
      46        5       22       37
      47        6       23       71
      48        6       25       27
      49        5       25       29
      50        5       25       45
      51        5       26       30
      52        5       26       46
      53        6       26       78
      54        6       28       76
      55        6       29       31
      56        8       30      128
      57        6       32       34
      58        6       33       85
      59        6       35       83
      60        8       36      101
      61        8       37      110
      62        5       38       41
      63        8       38      119
      64        6       39       40
      65        5       39       42
      66        5       41       45
      67        6       41       93
      68        6       42       44
      69        5       42       46
      70        6       43       91
      71        7       45       49
      72        7       46       50
      73        3       47       59
      74        3       49       57
      75        1       51       54
      76        1       51       56
      77        1       51       58
      78        1       51       60
      79        2       51       61
      80        2       51       63
      81        1       52       55
      82        1       52       57
      83        2       52       64
      84        3       53       99
      85        3       54      100
      86        3       55       97
      87        3       56       98
      88        3       58      100
      89        3       60       98
      90        4       61       82
      91        4       61       86
      92        4       62       83
      93        4       62       87
      94        4       63       79
      95        4       63       88
      96        4       64       80
      97        4       64       89
      98        6       65       67
      99        5       65       69
     100        5       65       82
     101        5       66       70
     102        5       66       83
     103        5       69       71
     104        7       69       97
     105        5       70       72
     106        7       70       98
     107        5       71       86
     108        6       72       74
     109        5       72       87
     110        6       75       77
     111        5       75       79
     112        5       75       95
     113        5       76       80
     114        5       76       96
     115        6       79       81
     116        8       80      164
     117        6       82       84
     118        8       86      137
     119        8       87      146
     120        5       88       91
     121        8       88      155
     122        6       89       90
     123        5       89       92
     124        5       91       95
     125        6       92       94
     126        5       92       96
     127        7       95       99
     128        7       96      100
     129        9      101      102
     130        9      101      106
     131       10      102      103
     132       10      102      104
     133       10      102      105
     134       10      106      107
     135       10      106      108
     136       10      106      109
     137        9      110      111
     138        9      110      115
     139       10      111      112
     140       10      111      113
     141       10      111      114
     142       10      115      116
     143       10      115      117
     144       10      115      118
     145        9      119      120
     146        9      119      124
     147       10      120      121
     148       10      120      122
     149       10      120      123
     150       10      124      125
     151       10      124      126
     152       10      124      127
     153        9      128      129
     154        9      128      133
     155       10      129      130
     156       10      129      131
     157       10      129      132
     158       10      133      134
     159       10      133      135
     160       10      133      136
     161        9      137      138
     162        9      137      142
     163       10      138      139
     164       10      138      140
     165       10      138      141
     166       10      142      143
     167       10      142      144
     168       10      142      145
     169        9      146      147
     170        9      146      151
     171       10      147      148
     172       10      147      149
     173       10      147      150
     174       10      151      152
     175       10      151      153
     176       10      151      154
     177        9      155      156
     178        9      155      160
     179       10      156      157
     180       10      156      158
     181       10      156      159
     182       10      160      161
     183       10      160      162
     184       10      160      163
     185        9      164      165
     186        9      164      169
     187       10      165      166
     188       10      165      167
     189       10      165      168
     190       10      169      170
     191       10      169      171
     192       10      169      172

Angles

       1        1        4        1        6
       2        1        4        1        8
       3        1        4        1       10
       4        2        4        1       11
       5        2        4        1       13
       6        1        6        1        8
       7        1        6        1       10
       8        2        6        1       11
       9        2        6        1       13
      10        1        8        1       10
      11        2        8        1       11
      12        2        8        1       13
      13        2       10        1       11
      14        2       10        1       13
      15        3       11        1       13
      16        2       14        2        5
      17        2       14        2        7
      18        2       14        2       53
      19        2       14        2       59
      20        3       14        2       62
      21        1        5        2        7
      22        1        5        2       53
      23        1        5        2       59
      24        2        5        2       62
      25        1        7        2       53
      26        1        7        2       59
      27        2        7        2       62
      28        1       53        2       59
      29        2       53        2       62
      30        2       59        2       62
      31        4       49        3       52
      32        4        1        4       50
      33        4        2        5       47
      34        4        1        6       48
      35        4        2        7       99
      36        4        1        8       50
      37        4       52        9       97
      38        4        1       10       48
      39        5        1       11       32
      40        5        1       11       36
      41        6       32       11       36
      42        6       33       12       37
      43        5       33       12       52
      44        5       37       12       52
      45        5        1       13       29
      46        5        1       13       38
      47        6       29       13       38
      48        5        2       14       30
      49        5        2       14       39
      50        6       30       14       39
      51        7       19       15       17
      52        8       19       15       32
      53        7       17       15       32
      54        8       20       16       33
      55        7       20       16       68
      56        7       33       16       68
      57        8       15       19       21
      58        9       15       19       47
      59        9       21       19       47
      60        8       16       20       22
      61        9       16       20       48
      62        9       22       20       48
      63        8       19       21       36
      64        7       19       21       73
      65        7       36       21       73
      66        8       20       22       37
      67        7       20       22       24
      68        7       37       22       24
      69        8       29       25       45
      70        7       29       25       27
      71        7       45       25       27
      72        8       30       26       46
      73        7       30       26       78
      74        7       46       26       78
      75       10       13       29       25
      76       11       13       29       31
      77        7       25       29       31
      78       10       14       30       26
      79       12       14       30      128
      80       13       26       30      128
      81       10       11       32       15
      82       11       11       32       34
      83        7       15       32       34
      84       10       12       33       16
      85       11       12       33       85
      86        7       16       33       85
      87       10       21       36       11
      88       13       21       36      101
      89       12       11       36      101
      90       10       12       37       22
      91       12       12       37      110
      92       13       22       37      110
      93       10       13       38       41
      94       12       13       38      119
      95       13       41       38      119
      96       10       14       39       42
      97       11       14       39       40
      98        7       42       39       40
      99        8       38       41       45
     100        7       38       41       93
     101        7       45       41       93
     102        8       39       42       46
     103        7       39       42       44
     104        7       46       42       44
     105        8       25       45       41
     106        9       25       45       49
     107        9       41       45       49
     108        8       26       46       42
     109        9       26       46       50
     110        9       42       46       50
     111       14        5       47       19
     112       15        5       47       59
     113       14       19       47       59
     114       14       10       48       20
     115       15       10       48        6
     116       14       20       48        6
     117       14        3       49       45
     118       15        3       49       57
     119       14       45       49       57
     120       14        8       50       46
     121       15        8       50        4
     122       14       46       50        4
     123        1       54       51       56
     124        1       54       51       58
     125        1       54       51       60
     126        2       54       51       61
     127        2       54       51       63
     128        1       56       51       58
     129        1       56       51       60
     130        2       56       51       61
     131        2       56       51       63
     132        1       58       51       60
     133        2       58       51       61
     134        2       58       51       63
     135        2       60       51       61
     136        2       60       51       63
     137        3       61       51       63
     138        2        9       52       12
     139        1        9       52       55
     140        1        9       52        3
     141        1        9       52       57
     142        2        9       52       64
     143        2       12       52       55
     144        2       12       52        3
     145        2       12       52       57
     146        3       12       52       64
     147        1       55       52        3
     148        1       55       52       57
     149        2       55       52       64