ITEM: TIMESTEP
0
ITEM: NUMBER OF ATOMS
172
ITEM: BOX BOUNDS xy xz yz pp pp pp
-2.2759399999999999e-01 1.2505599999999999e+01 0.0000000000000000e+00
0.0000000000000000e+00 1.2523400000000001e+01 -2.2759399999999999e-01
0.0000000000000000e+00 1.0274279000000000e+01 0.0000000000000000e+00
ITEM: ATOMS id type x y z
1 1 3.27145 9.93648 8.88495
2 1 6.51262 3.11343 3.1339
3 2 1.28442 4.30368 4.42608
4 2 4.7888 8.91329 9.00304
5 2 4.91675 2.199 3.26063
6 2 1.79106 10.9597 9.12884
7 2 6.01544 4.2919 4.25174
8 2 2.95224 8.80217 10.2091
9 2 0.0225221 2.06505 5.34169
10 2 3.74986 11.1846 10.129
11 3 3.90823 11.158 7.41125
12 3 0.688804 2.06157 2.6738
13 3 2.42901 8.61674 7.5768
14 3 6.04027 4.44928 1.65619
15 4 3.82458 12.0973 5.13513
16 4 0.93863 1.03543 0.416998
17 5 3.53414 11.898 4.1361
18 5 6.04904 11.2877 0.745749
19 4 4.76425 0.611686 5.42755
20 4 2.07739 0.283734 0.768224
21 4 5.26307 0.601272 6.75342
22 4 2.6061 0.587 2.03713
23 5 0.0983631 11.789 6.12357
24 5 3.57371 0.200258 2.27828
25 4 2.38855 7.17585 5.57994
26 4 6.30507 6.84709 0.980642
27 4 3.11225 7.94938 6.58457
28 4 6.84534 5.56803 1.43131
29 5 4.15634 8.18027 6.42206
30 5 0.336046 4.0148 0.921142
31 4 3.33789 11.1999 6.15981
32 4 0.173043 1.76793 1.42438
33 5 2.50416 10.5621 5.93514
34 5 5.29274 1.07934 1.29037
35 4 4.92489 12.0612 7.66983
36 4 1.92024 1.49009 2.96829
37 5 5.45362 12.0022 8.60257
38 5 2.38418 1.71489 3.91703
39 4 1.1048 8.26301 7.74582
40 4 4.76255 4.53721 1.17322
41 5 0.534005 8.77734 8.49411
42 5 4.15031 3.64592 1.17354
43 4 0.459078 7.21583 6.95816
44 4 4.16781 5.82214 0.767308
45 4 1.16074 6.50913 5.95362
46 4 4.96266 6.97733 0.557447
47 4 5.49459 1.50711 4.30943
48 4 2.4848 11.6819 10.0621
49 4 0.587156 5.10544 5.26273
50 4 4.18601 8.27568 10.0528
51 1 8.92951 9.08581 8.57807
52 1 12.2975 3.33236 4.03754
53 2 8.0615 4.0415 3.4601
54 2 10.4057 8.04559 8.73975
55 2 10.7517 2.32359 4.05168
56 2 7.43426 10.1064 8.80071
57 2 11.8069 4.59158 5.31741
58 2 8.45713 7.83203 9.76612
59 2 6.75957 1.94447 4.45712
60 2 9.34802 10.1 9.87599
61 3 9.65959 10.449 7.27023
62 3 7.23621 1.73662 1.83717
63 3 8.26644 7.97347 7.11773
64 3 11.7025 4.66529 2.56764
65 4 9.2933 12.1757 5.58319
66 4 6.72966 12.1126 0.771948
67 4 10.68 0.126546 5.64418
68 4 8.03499 11.9042 0.366493
69 4 11.5418 11.7244 6.28904
70 4 9.02913 0.189373 0.980313
71 4 8.64247 6.77183 5.03628
72 4 11.2662 5.22363 0.205405
73 5 8.99957 6.85973 4.04329
74 5 6.91439 7.73311 1.05358
75 4 9.03472 7.73454 6.00936
76 4 11.9453 4.4832 1.22333
77 5 9.98169 8.23447 5.89858
78 5 7.90241 5.50848 1.62431
79 4 8.83243 11.3803 6.68237
80 4 6.3278 0.813722 1.35988
81 5 7.77362 11.329 6.85751
82 5 11.6687 2.06154 1.19794
83 4 11.0085 10.5878 7.01891
84 4 8.59752 1.4223 1.68225
85 5 11.6705 9.83625 7.34604
86 5 9.34046 2.08886 2.08301
87 4 7.10559 7.25574 7.27653
88 4 11.0131 5.82549 2.89263
89 5 6.50613 7.42992 8.14995
90 5 11.0504 6.20232 3.8944
91 4 6.75571 6.18982 6.38399
92 4 10.4187 6.67992 1.88132
93 5 11.9214 7.02903 7.09429
94 5 9.94934 7.60412 2.17523
95 4 7.61759 5.8678 5.29998
96 4 10.5576 6.39684 0.510355
97 4 11.2671 1.57749 5.08452
98 4 8.16453 10.6644 9.81488
99 4 7.23864 4.76276 4.30206
100 4 9.69982 7.32399 9.67327
101 6 6.17151 2.02678 7.35335
102 7 7.96803 1.94984 7.31281
103 5 8.29051 1.03771 7.83577
104 5 8.34234 2.78835 7.91836
105 5 8.36749 2.036 6.28766
106 7 5.85656 2.37202 9.06533
107 5 6.10822 3.4105 9.30631
108 5 6.63483 1.79986 9.55973
109 5 4.82416 2.09576 9.36044
110 6 0.258591 1.12847 8.97583
111 7 11.0374 1.46486 8.57979
112 5 10.4873 0.510557 8.50359
113 5 10.5648 2.07073 9.37393
114 5 10.9904 2.01496 7.63264
115 7 1.66537 1.24399 7.81609
116 5 2.61764 1.26866 8.38022
117 5 1.66092 0.369499 7.15677
118 5 1.65057 2.13601 7.18216
119 6 2.45628 7.87301 3.94855
120 7 4.0883 8.56318 3.55854
121 5 4.36319 9.32956 4.30626
122 5 4.0618 9.03478 2.55702
123 5 4.84334 7.75011 3.57239
124 7 1.12352 9.09818 3.78391
125 5 0.212568 8.59536 3.39955
126 5 1.43355 9.89911 3.08226
127 5 0.876507 9.53837 4.76873
128 6 2.39995 5.91625 0.695172
129 7 2.20951 5.16638 2.26363
130 5 3.0608 5.36482 2.93141
131 5 2.11845 4.07759 2.14301
132 5 1.35072 5.65323 2.71364
133 7 1.21429 7.30602 0.806697
134 5 0.520548 7.47342 10.1128
135 5 1.58758 8.20994 1.29621
136 5 0.394663 7.05061 1.46826
137 6 8.58703 11.5876 4.01247
138 7 6.81617 11.1448 4.06382
139 5 6.45084 11.0597 5.1003
140 5 6.62332 10.176 3.56434
141 5 6.22854 11.8469 3.47478
142 7 9.25868 9.93967 3.62267
143 5 10.1396 9.72006 4.25094
144 5 9.49778 9.87232 2.54568
145 5 8.5117 9.15592 3.81822
146 6 10.7783 12.0423 1.14903
147 7 11.5418 11.8864 2.74212
148 5 11.5056 10.8651 3.12049
149 5 11.0029 0.0837668 3.28511
150 5 0.109948 12.0995 2.72829
151 7 11.8641 10.8098 0.322213
152 5 11.6527 10.9593 9.5076
153 5 11.5912 9.77253 0.608077
154 5 0.378364 10.8812 0.716528
155 6 5.33523 5.13083 6.78905
156 7 4.67118 5.36696 8.37333
157 5 5.55474 5.47594 9.01597
158 5 4.03019 6.25942 8.34832
159 5 4.05632 4.48579 8.65024
160 7 3.93203 4.54536 5.80602
161 5 4.06138 3.48165 5.54139
162 5 3.01339 4.59428 6.41722
163 5 3.84229 5.16046 4.90317
164 6 11.3784 4.8107 8.80355
165 7 0.585709 4.40145 8.41523
166 5 1.21948 5.29744 8.38264
167 5 1.02208 3.75047 9.18895
168 5 0.587385 3.89387 7.4511
169 7 10.031 4.83608 7.60524
170 5 9.0608 4.95562 8.1286
171 5 10.1876 5.68204 6.93482
172 5 10.0365 3.91988 6.99179
