172
Atoms. Timestep: 0
Ni 2.89857 9.41116 8.59265
Ni 6.17525 3.10579 3.48481
O 1.44827 4.35425 3.93374
O 4.4416 8.15245 9.05464
O 4.63665 1.84729 3.87523
O 1.36499 10.6744 9.00295
O 5.80609 4.46033 4.96242
O 2.54244 8.0327 10.0675
O 0.25117 1.69264 4.94273
O 3.23722 10.8047 10.0626
N 3.69677 10.6606 7.2416
N 0.71256 1.8642 2.11704
N 2.17217 8.14409 7.25198
N 5.44023 4.39481 2.13747
C 3.48546 12.1483 5.36301
C 0.47488 0.38955 0.2292
H 2.86453 12.5181 4.55267
H 5.86971 0.03371 9.69377
C 4.76073 0.1474 5.61481
C 1.74333 12.3699 0.47412
C 5.50345 12.1502 6.68209
C 2.49852 0.35508 1.54004
H 0.24768 12.5084 6.91993
H 3.49155 12.5067 1.77336
C 2.48363 6.6337 5.40822
C 5.72803 5.90364 0.28669
C 2.92756 7.68099 6.23068
C 6.1883 4.86756 1.11596
H 3.89994 8.14655 6.0889
H 0.91589 4.41889 0.97634
C 2.98256 11.1359 6.19748
C -0.01036 1.40553 1.07106
H 1.99392 10.709 6.04703
H 5.26093 1.85011 0.92351
C 4.93641 11.1381 7.47507
C 1.94823 1.3719 2.3406
H 5.48559 10.7097 8.30944
H 2.50886 1.79214 3.17267
C 0.94573 7.62654 7.47302
C 4.21083 4.90458 2.35686
H 0.36328 8.05184 8.28732
H 3.63605 4.47744 3.17528
C 0.43859 6.57577 6.69176
C 3.68763 5.945 1.56944
C 1.22745 6.06471 5.65205
C 4.46338 6.45777 0.52027
C 5.3126 1.24381 4.79419
C 2.0502 11.2675 9.92158
C 0.73548 4.94016 4.83586
C 3.73174 7.56629 9.95688
Ni 9.15137 9.41116 8.59265
Ni 12.4281 3.10579 3.48481
O 7.70109 4.35425 3.93374
O 10.6944 8.15245 9.05464
O 10.8895 1.84729 3.87523
O 7.61779 10.6744 9.00295
O 12.0589 4.46033 4.96242
O 8.79524 8.0327 10.0675
O 6.50397 1.69264 4.94273
O 9.49002 10.8047 10.0626
N 9.94957 10.6606 7.2416
N 6.96536 1.8642 2.11704
N 8.42499 8.14409 7.25198
N 11.693 4.39481 2.13747
C 9.73826 12.1483 5.36301
C 6.72768 0.38955 0.2292
C 11.0135 0.1474 5.61481
C 7.99613 12.3699 0.47412
C 11.7562 12.1502 6.68209
C 8.75132 0.35508 1.54004
C 8.73644 6.6337 5.40822
C 11.9808 5.90364 0.28669
H 9.38574 6.27291 4.61605
H 6.14452 6.26667 9.7662
C 9.18036 7.68099 6.23068
C 12.4411 4.86756 1.11596
H 10.1527 8.14655 6.0889
H 7.16869 4.41889 0.97634
C 9.23536 11.1359 6.19748
C 6.24244 1.40553 1.07106
H 8.24672 10.709 6.04703
H 11.5137 1.85011 0.92351
C 11.1892 11.1381 7.47507
C 8.20102 1.3719 2.3406
H 11.7384 10.7097 8.30944
H 8.76167 1.79214 3.17267
C 7.19853 7.62654 7.47302
C 10.4636 4.90458 2.35686
H 6.61608 8.05184 8.28732
H 9.88885 4.47744 3.17528
C 6.69139 6.57577 6.69176
C 9.94043 5.945 1.56944
H 11.9605 6.17693 6.91975
H 8.95104 6.32683 1.80071
C 7.48025 6.06471 5.65205
C 10.7162 6.45777 0.52027
C 11.5654 1.24381 4.79419
C 8.303 11.2675 9.92158
C 6.98827 4.94016 4.83586
C 9.98454 7.56629 9.95688
P 7.23811 0.23669 7.08513
C 7.66018 11.9279 8.70675
H 7.81999 10.8424 8.54271
H 6.85868 12.0859 9.45837
H 8.59881 12.3669 9.10282
C 6.75076 1.87573 7.83914
H 6.33157 2.55087 7.06777
H 7.64814 2.35548 8.28113
H 5.98827 1.72534 8.63114
P 11.6719 12.3192 9.07919
C 10.2315 0.98959 9.05784
H 9.58291 0.81321 9.9405
H 10.5839 2.04219 9.04802
H 9.63332 0.8153 8.13997
C 0.11212 0.62177 7.69509
H 1.10952 0.15639 7.5721
H 12.0528 0.50641 6.74728
H 0.24871 1.70159 7.91095
P 3.59808 6.03445 4.01348
C 5.00647 7.26558 3.98061
H 5.64765 7.12844 4.87552
H 4.62636 8.30777 3.9401
H 5.62117 7.08494 3.07501
C 2.64915 6.80039 2.59739
H 1.66618 6.30549 2.47344
H 3.2295 6.67699 1.65996
H 2.48107 7.88114 2.78452
P 1.97001 6.60852 1.95944
C 1.30133 5.4378 3.25657
H 1.84002 5.58947 4.21449
H 1.39585 4.38129 2.92923
H 0.22577 5.65617 3.41813
C 1.07302 5.82286 0.52047
H 1.16844 6.27793 9.83815
H 12.4873 5.98303 0.6392
H 1.28145 4.73361 0.48333
P 8.67102 0.24245 3.93823
C 7.2129 11.594 3.90587
H 6.56416 11.7755 4.78735
H 7.54953 10.5363 3.8916
H 6.6205 11.7821 2.98701
C 9.60893 11.9331 2.55283
H 10.6136 12.3841 2.43556
H 9.04894 12.0619 1.60383
H 9.72857 10.8502 2.76338
P 10.4772 12.2402 1.93637
C 11.1108 0.87666 3.26065
H 10.5654 0.69812 4.21012
H 10.9998 1.93686 2.95086
H 12.1885 0.67547 3.4295
C 11.3737 0.54432 0.52075
H 10.8413 0.1003 9.82732
H 12.4666 0.40235 0.64798
H 11.1453 1.63 0.50049
P 4.97911 5.89598 7.07512
C 4.28897 7.0688 8.35905
H 4.82297 6.93024 9.32158
H 4.37396 8.12383 8.02442
H 3.21486 6.83969 8.51523
C 4.08299 6.66091 5.62449
H 4.41734 6.20236 4.67345
H 2.99272 6.48951 5.7373
H 4.27959 7.75211 5.58054
P 0.35892 6.51053 9.16437
C 1.78535 5.30009 9.1439
H 2.42163 5.45251 10.0398
H 1.42074 4.25217 9.10911
H 2.40018 5.48385 8.23903
C 11.9314 5.72144 7.75045
H 10.9417 6.20099 7.62025
H 0.00725 5.84724 6.81403
H 11.7787 4.63959 7.9442
172
Atoms. Timestep: 162
Ni 3.26108 9.93768 8.87495
Ni 6.50923 3.12575 3.13223
O 1.28974 4.29603 4.41571
O 4.77846 8.92001 8.99012
O 4.91739 2.20227 3.24849
O 1.77795 10.9541 9.12271
O 5.99904 4.2951 4.25725
O 2.93925 8.79782 10.1919
O 0.0381485 2.05465 5.33517
O 3.7364 11.1784 10.1233
N 3.89826 11.1707 7.40504
N 0.694553 2.06378 2.66417
N 2.42354 8.61971 7.56266
N 6.04594 4.4742 1.6586
C 3.82286 12.1084 5.12617
C 0.936195 1.03364 0.406872
H 3.54812 11.8964 4.12304
H 6.03872 11.3378 0.675847
C 4.77509 0.609344 5.41387
C 2.07063 0.276811 0.762041
C 5.27488 0.601107 6.74048
C 2.60954 0.59037 2.0243
H 0.0839755 11.7403 6.09034
H 3.58681 0.221804 2.25661
C 2.39599 7.16725 5.57337
C 6.28826 6.87808 0.98583
C 3.11337 7.95316 6.57311
C 6.83432 5.61341 1.46555
H 4.14954 8.20637 6.39571
H 0.346279 4.03081 0.928119
C 3.31419 11.2308 6.15982
C 0.178643 1.77833 1.41101
H 2.46838 10.6084 5.94023
H 5.30177 1.11776 1.26685
C 4.92544 12.0656 7.66113
C 1.92932 1.49642 2.95304
H 5.44467 12.0132 8.59905
H 2.40432 1.7294 3.89525
C 1.10488 8.24628 7.74431
C 4.78585 4.53914 1.13188
H 0.537798 8.74155 8.50734
H 4.19884 3.63239 1.08663
C 0.462185 7.20356 6.94888
C 4.17248 5.81971 0.739657
C 1.16978 6.4967 5.94938
C 4.95229 6.98578 0.540345
C 5.49941 1.50516 4.29422
C 2.47058 11.6696 10.0629
C 0.59573 5.09456 5.25778
C 4.17202 8.27645 10.0343
Ni 8.91844 9.09635 8.58818
Ni 12.3044 3.32467 4.03445
O 8.05118 4.05696 3.47396
O 10.3889 8.04676 8.74613
O 10.7606 2.31371 4.05244
O 7.43069 10.1269 8.81106
O 11.8169 4.57746 5.32166
O 8.44526 7.85115 9.78818
O 6.75861 1.9506 4.44714
O 9.35244 10.1159 9.8765
N 9.64986 10.4489 7.27483
N 7.24569 1.7592 1.83083
N 8.24079 7.97907 7.13385
N 11.6978 4.66184 2.57535
C 9.29641 12.1765 5.58428
C 6.73495 12.1448 0.748939
C 10.6824 0.124877 5.6563
C 8.04512 11.9177 0.376213
C 11.5372 11.7155 6.29664
C 9.03914 0.192026 1.0039
C 8.60433 6.78888 5.04178
C 11.2675 5.2439 0.215621
H 8.93591 6.89416 4.03923
H 6.8842 7.77311 1.06059
C 8.99986 7.74978 6.01644
C 11.9557 4.50115 1.22957
H 9.93067 8.27249 5.88846
H 7.88092 5.58252 1.70232
C 8.82609 11.3772 6.67642
C 6.33589 0.847454 1.33518
H 7.76405 11.3267 6.84292
H 11.678 2.07946 1.18287
C 11.0023 10.6023 7.05676
C 8.60692 1.43096 1.69707
H 11.6739 9.90263 7.47385
H 9.34931 2.09731 2.09517
C 7.08108 7.25971 7.29452
C 10.98 5.8023 2.90849
H 6.47526 7.4422 8.16082
H 10.9703 6.14664 3.92311
C 6.72445 6.20123 6.39315
C 10.4095 6.67926 1.90403
H 11.9174 7.03182 7.06575
H 9.95462 7.60473 2.20823
C 7.58689 5.88038 5.31
C 10.5509 6.40787 0.528153
C 11.2806 1.56693 5.08102
C 8.17357 10.6889 9.81434
C 7.21972 4.76712 4.31855
C 9.68674 7.33635 9.6913
P 6.19081 2.0295 7.33707
C 7.98793 1.9542 7.2877
H 8.31555 1.04154 7.80457
H 8.36212 2.78399 7.90401
H 8.38884 2.05181 6.2649
C 5.91575 2.39169 9.05394
H 6.17198 3.43502 9.26968
H 6.71118 1.83459 9.54355
H 4.89244 2.11693 9.38094
P 0.236762 1.09858 8.96917
C 11.0158 1.46285 8.59915
H 10.4474 0.515351 8.58458
H 10.5728 2.12999 9.36242
H 10.9558 1.95634 7.62413
C 1.62799 1.22713 7.78867
H 2.58358 1.04721 8.30833
H 1.50865 0.487569 6.99216
H 1.73034 2.20741 7.31804
P 2.4599 7.86525 3.9409
C 4.06777 8.61937 3.54872
H 4.28062 9.4419 4.25457
H 4.04324 9.0387 2.52339
H 4.87052 7.85693 3.62168
C 1.11043 9.07445 3.80307
H 0.184284 8.55875 3.47458
H 1.38443 9.86108 3.07022
H 0.905529 9.5411 4.78523
P 2.40372 5.89378 0.675937
C 2.25367 5.13253 2.24707
H 3.10375 5.3632 2.91044
H 2.18799 4.04159 2.12504
H 1.38915 5.59906 2.7014
C 1.22694 7.28897 0.840307
H 0.506138 7.48523 10.1635
H 1.63145 8.17934 1.32882
H 0.423696 7.03291 1.52622
P 8.61649 11.5823 4.00833
C 6.85621 11.1043 4.01546
H 6.48185 10.9411 5.04207
H 6.70597 10.1637 3.44779
H 6.25813 11.8333 3.46863
C 9.32712 9.94983 3.63768
H 10.2111 9.7558 4.26974
H 9.57458 9.87609 2.56385
H 8.59124 9.15949 3.83743
P 10.7968 12.0435 1.16257
C 11.5724 11.8864 2.75121
H 11.5753 10.8569 3.1114
H 11.011 0.0537505 3.30472
H 0.131203 12.1334 2.75237
C 11.8753 10.7836 0.35671
H 11.6952 10.9324 9.54314
H 11.5762 9.75132 0.634681
H 0.387282 10.8329 0.768115
P 5.28455 5.15908 6.77835
C 4.64515 5.3401 8.37397
H 5.53641 5.47775 9.00239
H 3.95263 6.19757 8.36418
H 4.08507 4.4235 8.64927
C 3.89612 4.49465 5.82537
H 4.07712 3.43674 5.57771
H 2.97995 4.51029 6.44578
H 3.7619 5.08602 4.91469
P 11.3801 4.85756 8.80782
C 0.560687 4.37727 8.41248
H 1.2285 5.24911 8.35259
H 0.976637 3.71887 9.19137
H 0.515843 3.85766 7.4545
C 10.0258 4.83336 7.61982
H 9.05549 4.94264 8.14646
H 10.1577 5.66762 6.92514
H 10.0557 3.90358 7.02665
172
Atoms. Timestep: 198
Ni 3.27157 9.93625 8.88517
Ni 6.51267 3.11399 3.13372
O 1.28447 4.30313 4.42666
O 4.78894 8.91349 9.00318
O 4.91697 2.19897 3.26049
O 1.7909 10.9597 9.12866
O 6.01537 4.29147 4.25184
O 2.95244 8.80267 10.2092
O 0.0225286 2.0648 5.34174
O 3.74965 11.1848 10.1288
N 3.90852 11.1579 7.41084
N 0.688833 2.06117 2.67428
N 2.42896 8.6164 7.57659
N 6.04028 4.44923 1.65611
C 3.82458 12.0974 5.13517
C 0.938938 1.03541 0.416746
H 3.53394 11.8982 4.13617
H 6.04934 11.2879 0.746079
C 4.76403 0.611682 5.42767
C 2.07744 0.283555 0.768045
C 5.26295 0.601255 6.75346
C 2.60661 0.587041 2.0371
H 0.0990764 11.7891 6.12344
H 3.57366 0.200014 2.27813
C 2.3889 7.17626 5.58
C 6.30538 6.84707 0.980523
C 3.11233 7.94931 6.58453
C 6.84531 5.56818 1.4312
H 4.15667 8.18021 6.42224
H 0.335807 4.01464 0.921079
C 3.33747 11.1997 6.15966
C 0.172808 1.76809 1.4242
H 2.50395 10.562 5.93511
H 5.29279 1.07917 1.29011
C 4.92482 12.0614 7.67008
C 1.92016 1.49008 2.96851
H 5.45406 12.0024 8.60239
H 2.38397 1.71499 3.91707
C 1.10419 8.26288 7.74557
C 4.76233 4.5376 1.17359
H 0.534241 8.77737 8.49366
H 4.1504 3.64575 1.17365
C 0.459024 7.21623 6.95804
C 4.16807 5.82132 0.767965
C 1.16094 6.50955 5.95383
C 4.96256 6.977 0.55773
C 5.49474 1.50747 4.30919
C 2.48473 11.682 10.0624
C 0.587909 5.10574 5.26234
C 4.18558 8.2758 10.0527
Ni 8.92972 9.08568 8.57779
Ni 12.2978 3.33213 4.03743
O 8.06146 4.04168 3.45982
O 10.4058 8.04589 8.74016
O 10.7518 2.32312 4.05171
O 7.43477 10.1062 8.80055
O 11.8067 4.59199 5.31782
O 8.45679 7.83176 9.76579
O 6.75962 1.94436 4.45686
O 9.34836 10.0999 9.87609
N 9.65921 10.4488 7.27026
N 7.23592 1.73634 1.83713
N 8.26643 7.97313 7.11742
N 11.7025 4.66538 2.568
C 9.29288 12.1753 5.58282
C 6.72996 12.1128 0.771668
C 10.6799 0.126405 5.64419
C 8.03498 11.904 0.366567
C 11.5416 11.7243 6.28957
C 9.02921 0.189539 0.980058
C 8.64213 6.77204 5.0364
C 11.2665 5.22341 0.205832
H 8.99994 6.85957 4.04324
H 6.91399 7.73302 1.05342
C 9.03482 7.73452 6.00952
C 11.9448 4.48293 1.22329
H 9.98149 8.23492 5.89798
H 7.90233 5.50817 1.62435
C 8.83232 11.3806 6.6824
C 6.32745 0.813712 1.36016
H 7.77383 11.3289 6.85745
H 11.6683 2.06125 1.19814
C 11.0087 10.588 7.01884
C 8.59752 1.42261 1.68253
H 11.6703 9.83611 7.34586
H 9.3405 2.08899 2.08287
C 7.10537 7.25624 7.2765
C 11.0136 5.82568 2.8925
H 6.50647 7.43006 8.15036
H 11.0501 6.20267 3.89442
C 6.75553 6.18957 6.3844
C 10.4187 6.6798 1.88143
H 11.9215 7.02908 7.09429
H 9.94911 7.60426 2.17496
C 7.61796 5.86774 5.3001
C 10.5577 6.39672 0.510524
C 11.2675 1.57756 5.0849
C 8.16462 10.6641 9.81529
C 7.23876 4.76302 4.30241
C 9.69993 7.32433 9.67388
P 6.17163 2.02665 7.35317
C 7.96812 1.94999 7.31284
H 8.2905 1.03807 7.83598
H 8.34231 2.78846 7.91851
H 8.36754 2.03602 6.28772
C 5.85662 2.37218 9.06511
H 6.10826 3.41061 9.30626
H 6.63509 1.80007 9.55954
H 4.82426 2.09581 9.36066
P 0.258377 1.12829 8.97619
C 11.0379 1.46488 8.57944
H 10.4874 0.510767 8.50335
H 10.5651 2.07067 9.37379
H 10.9909 2.01505 7.63233
C 1.66578 1.24389 7.81576
H 2.61791 1.26801 8.38022
H 1.66096 0.369704 7.156
H 1.65077 2.13644 7.18262
P 2.45606 7.87312 3.94841
C 4.08848 8.56325 3.55852
H 4.36307 9.32947 4.30629
H 4.06176 9.03462 2.55701
H 4.84324 7.7499 3.57251
C 1.12389 9.09773 3.78389
H 0.212293 8.59494 3.39958
H 1.43322 9.89896 3.08219
H 0.876227 9.53831 4.76884
P 2.40035 5.91676 0.695133
C 2.2094 5.16669 2.26332
H 3.06051 5.36471 2.93134
H 2.11843 4.07779 2.14307
H 1.35069 5.65295 2.71339
C 1.21453 7.30599 0.806871
H 0.520762 7.47333 10.1126
H 1.58732 8.21009 1.29593
H 0.394624 7.05042 1.46811
P 8.58717 11.5874 4.01173
C 6.81619 11.1449 4.06366
H 6.45024 11.0598 5.10017
H 6.62294 10.1765 3.56413
H 6.22854 11.8469 3.47446
C 9.25869 9.9394 3.62269
H 10.1393 9.71978 4.25127
H 9.49767 9.87186 2.54585
H 8.51186 9.15588 3.81821
P 10.7781 12.0422 1.14929
C 11.5417 11.8865 2.7421
H 11.5053 10.8651 3.12037
H 11.0028 0.0841015 3.2853
H 0.109983 12.0992 2.72793
C 11.8643 10.8097 0.322365
H 11.6528 10.9593 9.50769
H 11.5909 9.77265 0.608138
H 0.378474 10.8815 0.716588
P 5.3353 5.13123 6.78933
C 4.67104 5.36673 8.37355
H 5.55468 5.47587 9.01608
H 4.03034 6.25945 8.34822
H 4.05585 4.48568 8.65019
C 3.932 4.54556 5.80607
H 4.06112 3.48186 5.54148
H 3.01307 4.59401 6.41708
H 3.84213 5.1604 4.90331
P 11.3781 4.81135 8.80362
C 0.585626 4.40118 8.41515
H 1.21928 5.29763 8.38283
H 1.02184 3.7503 9.18937
H 0.587168 3.89374 7.45063
C 10.0313 4.83608 7.60549
H 9.06046 4.9556 8.12871
H 10.1874 5.68219 6.93475
H 10.0365 3.9197 6.9917
172
Atoms. Timestep: 200
Ni 3.27141 9.93657 8.8849
Ni 6.51259 3.11342 3.13385
O 1.28464 4.30335 4.4263
O 4.78886 8.91341 9.00315
O 4.91688 2.19909 3.26047
O 1.79101 10.9597 9.12883
O 6.01549 4.29184 4.25185
O 2.95223 8.80249 10.2092
O 0.0226851 2.06495 5.34174
O 3.74979 11.1847 10.129
N 3.90836 11.1578 7.41113
N 0.688722 2.06137 2.67397
N 2.42897 8.6165 7.57676
N 6.04022 4.44936 1.65612
C 3.82447 12.0973 5.13509
C 0.938718 1.03549 0.416944
H 3.53402 11.8982 4.13615
H 6.04926 11.2878 0.745956
C 4.76416 0.61174 5.42758
C 2.07745 0.283653 0.76816
C 5.26302 0.601288 6.75347
C 2.6063 0.587085 2.03708
H 0.0987464 11.789 6.12352
H 3.57372 0.200083 2.2782
C 2.38872 7.17609 5.57993
C 6.30511 6.847 0.980533
C 3.1123 7.94935 6.58455
C 6.84543 5.56812 1.43126
H 4.15655 8.18022 6.42218
H 0.335855 4.01472 0.921103
C 3.3378 11.1999 6.15977
C 0.173089 1.76795 1.42435
H 2.50399 10.562 5.9351
H 5.29272 1.07924 1.29019
C 4.9248 12.0614 7.66985
C 1.92026 1.49001 2.96838
H 5.45391 12.0023 8.60247
H 2.38405 1.71496 3.91709
C 1.10463 8.26301 7.74565
C 4.76251 4.53716 1.17356
H 0.534092 8.77735 8.49383
H 4.15036 3.64586 1.1736
C 0.458983 7.21603 6.95805
C 4.16783 5.82197 0.767625
C 1.16102 6.50935 5.95367
C 4.96269 6.97712 0.557663
C 5.49461 1.50719 4.3094
C 2.48471 11.6819 10.0621
C 0.58718 5.10566 5.26269
C 4.18593 8.27561 10.0528
Ni 8.92963 9.0858 8.57804
Ni 12.2975 3.33218 4.0377
O 8.06148 4.04174 3.45998
O 10.4057 8.04572 8.73999
O 10.7519 2.32336 4.05172
O 7.43455 10.1063 8.80061
O 11.807 4.59185 5.31757
O 8.45695 7.83182 9.76593
O 6.75965 1.9445 4.45692
O 9.34815 10.1 9.87605
N 9.65955 10.449 7.27011
N 7.23608 1.73669 1.8372
N 8.26644 7.9734 7.11775
N 11.7026 4.6653 2.56774
C 9.29314 12.1755 5.58296
C 6.72964 12.1127 0.771786
C 10.68 0.126425 5.64425
C 8.03509 11.9041 0.366574
C 11.5418 11.7245 6.28928
C 9.02916 0.189507 0.980164
C 8.64234 6.772 5.03626
C 11.2663 5.22367 0.205538
H 8.9998 6.85962 4.0433
H 6.91417 7.73309 1.05348
C 9.03476 7.73441 6.00931
C 11.9451 4.48289 1.22338
H 9.98154 8.23478 5.89822
H 7.90235 5.50829 1.62433
C 8.83231 11.3804 6.68242
C 6.32779 0.813628 1.36
H 7.77372 11.3289 6.85746
H 11.6684 2.06135 1.19807
C 11.0084 10.5877 7.019
C 8.59744 1.42234 1.68233
H 11.6704 9.83619 7.3459
H 9.34048 2.08899 2.08294
C 7.10541 7.25595 7.2764
C 11.0133 5.82572 2.89263
H 6.50636 7.43004 8.15024
H 11.0502 6.20253 3.89441
C 6.75577 6.18978 6.38423
C 10.4187 6.67986 1.88135
H 11.9214 7.02906 7.09429
H 9.9492 7.60419 2.17506
C 7.61763 5.86773 5.30022
C 10.5576 6.39672 0.510611
C 11.2671 1.5774 5.08467
C 8.16464 10.6641 9.81508
C 7.23868 4.7627 4.30208
C 9.69992 7.32425 9.67355
P 6.17158 2.0267 7.35323
C 7.96808 1.94994 7.31283
H 8.29051 1.03795 7.83591
H 8.34232 2.78842 7.91846
H 8.36753 2.03601 6.2877
C 5.8566 2.37212 9.0652
H 6.10825 3.41058 9.30627
H 6.63499 1.80001 9.55961
H 4.82424 2.09579 9.36058
P 0.258592 1.12832 8.97593
C 11.0377 1.46489 8.57958
H 10.4873 0.510701 8.50343
H 10.565 2.07068 9.37382
H 10.9907 2.01503 7.63243
C 1.66555 1.24392 7.81595
H 2.61783 1.26822 8.38021
H 1.66095 0.36964 7.15625
H 1.65072 2.1363 7.18246
P 2.45626 7.87305 3.94849
C 4.08836 8.56319 3.55853
H 4.36312 9.32951 4.30629
H 4.06178 9.03468 2.55701
H 4.84328 7.74997 3.57247
C 1.12362 9.09795 3.7839
H 0.212431 8.59509 3.39959
H 1.43333 9.899 3.08222
H 0.87634 9.53831 4.76877
P 2.40024 5.91647 0.695168
C 2.20943 5.16654 2.26345
H 3.0606 5.36476 2.93137
H 2.11843 4.07773 2.14304
H 1.35068 5.65305 2.71349
C 1.2144 7.30603 0.80676
H 0.520709 7.47335 10.1127
H 1.58742 8.21005 1.29603
H 0.394647 7.05048 1.46816
P 8.58709 11.5874 4.01201
C 6.81617 11.1449 4.06372
H 6.45045 11.0598 5.1002
H 6.62307 10.1763 3.56419
H 6.22854 11.8469 3.47457
C 9.25869 9.9395 3.62268
H 10.1394 9.71988 4.25116
H 9.49772 9.872 2.54578
H 8.51179 9.15588 3.81821
P 10.7782 12.0422 1.14917
C 11.5417 11.8865 2.74214
H 11.5054 10.8651 3.12041
H 11.0029 0.0839804 3.28523
H 0.109964 12.0993 2.72805
C 11.8642 10.8097 0.322313
H 11.6527 10.9593 9.50767
H 11.591 9.7726 0.608123
H 0.378452 10.8814 0.716575
P 5.33521 5.13103 6.78922
C 4.67109 5.36683 8.37347
H 5.55469 5.47589 9.01605
H 4.03029 6.25943 8.34826
H 4.056 4.48571 8.65021
C 3.93201 4.54549 5.80609
H 4.06121 3.48179 5.54145
H 3.01319 4.5941 6.41712
H 3.84218 5.16043 4.90324
P 11.3783 4.81107 8.80365
C 0.585613 4.4013 8.41519
H 1.21934 5.29754 8.38276
H 1.02191 3.75036 9.18922
H 0.587239 3.89379 7.4508
C 10.0311 4.83608 7.60535
H 9.06061 4.9556 8.12866
H 10.1875 5.68212 6.93479
H 10.0365 3.91978 6.99175
172
Atoms. Timestep: 202
Ni 3.27139 9.93636 8.88515
Ni 6.51272 3.11393 3.13388
O 1.28437 4.30358 4.42628
O 4.78883 8.91336 9.00305
O 4.91677 2.19894 3.26058
O 1.79102 10.9597 9.12877
O 6.01546 4.29174 4.25176
O 2.95226 8.80232 10.2091
O 0.0225064 2.065 5.34177
O 3.74981 11.1847 10.1289
N 3.90837 11.1581 7.41102
N 0.688905 2.06142 2.67401
N 2.42911 8.61668 7.57673
N 6.0403 4.449 1.65628
C 3.82461 12.0974 5.13514
C 0.938773 1.03542 0.417074
H 3.53407 11.8981 4.13611
H 6.04912 11.2877 0.745847
C 4.76417 0.611665 5.42758
C 2.07729 0.283749 0.768122
C 5.26303 0.60132 6.75336
C 2.60629 0.586997 2.03715
H 0.098527 11.789 6.12355
H 3.57371 0.20018 2.27824
C 2.38871 7.17596 5.57986
C 6.30516 6.84702 0.98062
C 3.11219 7.94937 6.58459
C 6.84525 5.56816 1.43122
H 4.15644 8.18025 6.42212
H 0.335964 4.01475 0.921145
C 3.33772 11.1998 6.15985
C 0.172897 1.76798 1.42429
H 2.5041 10.5621 5.93511
H 5.29275 1.07927 1.29028
C 4.92484 12.0612 7.66999
C 1.92012 1.49009 2.96825
H 5.45376 12.0023 8.6025
H 2.38414 1.71492 3.91707
C 1.10462 8.26302 7.7458
C 4.76249 4.5374 1.1733
H 0.534048 8.77735 8.49398
H 4.15035 3.64585 1.17359
C 0.459228 7.21595 6.95804
C 4.16785 5.822 0.76747
C 1.1606 6.50918 5.95377
C 4.96262 6.9773 0.557506
C 5.49465 1.50722 4.30936
C 2.48487 11.6819 10.0622
C 0.587502 5.10552 5.26256
C 4.18597 8.27563 10.0528
Ni 8.92969 9.08586 8.57801
Ni 12.2977 3.33227 4.0373
O 8.0615 4.04148 3.46001
O 10.4057 8.04565 8.73984
O 10.7517 2.32351 4.05173
O 7.43436 10.1063 8.80067
O 11.8068 4.59167 5.31756
O 8.45705 7.83195 9.76604
O 6.75958 1.94438 4.45705
O 9.34805 10.1 9.87602
N 9.65936 10.4489 7.27032
N 7.23616 1.73633 1.83704
N 8.26631 7.97329 7.11764
N 11.7025 4.66532 2.56795
C 9.2932 12.1756 5.58314
C 6.72977 12.1127 0.771865
C 10.68 0.126536 5.64416
C 8.03499 11.9041 0.366508
C 11.5418 11.7244 6.28918
C 9.0291 0.189388 0.980217
C 8.64231 6.77184 5.03631
C 11.2663 5.22362 0.205572
H 8.99968 6.85969 4.0433
H 6.91428 7.73311 1.05353
C 9.03488 7.73462 6.00939
C 11.9452 4.48307 1.2232
H 9.9816 8.2346 5.8984
H 7.90241 5.50838 1.62433
C 8.83255 11.3804 6.68227
C 6.32767 0.813831 1.36
H 7.77362 11.329 6.85751
H 11.6686 2.06144 1.198
C 11.0086 10.5879 7.01886
C 8.59754 1.4225 1.6824
H 11.6705 9.83619 7.34599
H 9.34047 2.08889 2.08296
C 7.1056 7.25596 7.27655
C 11.0132 5.82556 2.89245
H 6.50622 7.42994 8.15007
H 11.0503 6.20242 3.89443
C 6.75567 6.18974 6.38409
C 10.4187 6.67992 1.88145
H 11.9214 7.02904 7.09429
H 9.94928 7.60414 2.17514
C 7.61772 5.86779 5.30001
C 10.5576 6.39683 0.510351
C 11.2672 1.57746 5.08462
C 8.1646 10.6643 9.81499
C 7.23859 4.76285 4.3022
C 9.69987 7.32406 9.67345
P 6.17154 2.02675 7.35331
C 7.96805 1.94989 7.31282
H 8.29051 1.03782 7.83584
H 8.34233 2.78839 7.91841
H 8.36751 2.036 6.28768
C 5.85658 2.37206 9.06528
H 6.10824 3.41054 9.30629
H 6.6349 1.79993 9.55968
H 4.8242 2.09577 9.36051
P 0.2586 1.1284 8.97584
C 11.0375 1.46488 8.5797
H 10.4873 0.510625 8.50351
H 10.5649 2.07071 9.37387
H 10.9906 2.01499 7.63254
C 1.66544 1.24396 7.81604
H 2.61773 1.26845 8.38021
H 1.66093 0.36957 7.15653
H 1.65065 2.13614 7.1823
P 2.45629 7.87302 3.94853
C 4.08832 8.56317 3.55853
H 4.36316 9.32954 4.30628
H 4.06179 9.03473 2.55701
H 4.84331 7.75005 3.57243
C 1.12353 9.09809 3.78391
H 0.212518 8.59524 3.39957
H 1.43345 9.89906 3.08224
H 0.876435 9.53833 4.76874
P 2.40007 5.91635 0.695167
C 2.20948 5.16644 2.26355
H 3.0607 5.36479 2.93139
H 2.11844 4.07766 2.14302
H 1.35069 5.65315 2.71358
C 1.21433 7.30602 0.806709
H 0.520628 7.47339 10.1127
H 1.58751 8.21 1.29613
H 0.394659 7.05055 1.46822
P 8.58706 11.5875 4.01227
C 6.81616 11.1449 4.06378
H 6.45066 11.0598 5.10025
H 6.62321 10.1762 3.56426
H 6.22854 11.8469 3.47468
C 9.25868 9.93959 3.62268
H 10.1395 9.71998 4.25104
H 9.49776 9.87217 2.54573
H 8.51173 9.1559 3.81822
P 10.7782 12.0423 1.14909
C 11.5418 11.8865 2.74214
H 11.5055 10.8651 3.12045
H 11.0029 0.0838603 3.28516
H 0.109952 12.0994 2.72818
C 11.8641 10.8098 0.322257
H 11.6527 10.9593 9.50763
H 11.5911 9.77255 0.608101
H 0.378408 10.8813 0.716553
P 5.33522 5.13092 6.78913
C 4.67114 5.3669 8.3734
H 5.55471 5.47591 9.01601
H 4.03023 6.25942 8.34829
H 4.05617 4.48575 8.65023
C 3.93201 4.54541 5.80606
H 4.06131 3.48172 5.54142
H 3.0133 4.5942 6.41717
H 3.84224 5.16045 4.9032
P 11.3783 4.81087 8.80358
C 0.585663 4.40139 8.41522
H 1.21941 5.29748 8.3827
H 1.022 3.75042 9.18907
H 0.587314 3.89384 7.45097
C 10.031 4.83608 7.60528
H 9.06073 4.95561 8.12862
H 10.1875 5.68207 6.93481
H 10.0365 3.91984 6.99178
172
Atoms. Timestep: 204
Ni 3.27145 9.93648 8.88495
Ni 6.51262 3.11343 3.1339
O 1.28442 4.30368 4.42608
O 4.7888 8.91329 9.00304
O 4.91675 2.199 3.26063
O 1.79106 10.9597 9.12884
O 6.01544 4.2919 4.25174
O 2.95224 8.80217 10.2091
O 0.0225221 2.06505 5.34169
O 3.74986 11.1846 10.129
N 3.90823 11.158 7.41125
N 0.688804 2.06157 2.6738
N 2.42901 8.61674 7.5768
N 6.04027 4.44928 1.65619
C 3.82458 12.0973 5.13513
C 0.93863 1.03543 0.416998
H 3.53414 11.898 4.1361
H 6.04904 11.2877 0.745749
C 4.76425 0.611686 5.42755
C 2.07739 0.283734 0.768224
C 5.26307 0.601272 6.75342
C 2.6061 0.587 2.03713
H 0.0983631 11.789 6.12357
H 3.57371 0.200258 2.27828
C 2.38855 7.17585 5.57994
C 6.30507 6.84709 0.980642
C 3.11225 7.94938 6.58457
C 6.84534 5.56803 1.43131
H 4.15634 8.18027 6.42206
H 0.336046 4.0148 0.921142
C 3.33789 11.1999 6.15981
C 0.173043 1.76793 1.42438
H 2.50416 10.5621 5.93514
H 5.29274 1.07934 1.29037
C 4.92489 12.0612 7.66983
C 1.92024 1.49009 2.96829
H 5.45362 12.0022 8.60257
H 2.38418 1.71489 3.91703
C 1.1048 8.26301 7.74582
C 4.76255 4.53721 1.17322
H 0.534005 8.77734 8.49411
H 4.15031 3.64592 1.17354
C 0.459078 7.21583 6.95816
C 4.16781 5.82214 0.767308
C 1.16074 6.50913 5.95362
C 4.96266 6.97733 0.557447
C 5.49459 1.50711 4.30943
C 2.4848 11.6819 10.0621
C 0.587156 5.10544 5.26273
C 4.18601 8.27568 10.0528
Ni 8.92951 9.08581 8.57807
Ni 12.2975 3.33236 4.03754
O 8.0615 4.0415 3.4601
O 10.4057 8.04559 8.73975
O 10.7517 2.32359 4.05168
O 7.43426 10.1064 8.80071
O 11.8069 4.59158 5.31741
O 8.45713 7.83203 9.76612
O 6.75957 1.94447 4.45712
O 9.34802 10.1 9.87599
N 9.65959 10.449 7.27023
N 7.23621 1.73662 1.83717
N 8.26644 7.97347 7.11773
N 11.7025 4.66529 2.56764
C 9.2933 12.1757 5.58319
C 6.72966 12.1126 0.771948
C 10.68 0.126546 5.64418
C 8.03499 11.9042 0.366493
C 11.5418 11.7244 6.28904
C 9.02913 0.189373 0.980313
C 8.64247 6.77183 5.03628
C 11.2662 5.22363 0.205405
H 8.99957 6.85973 4.04329
H 6.91439 7.73311 1.05358
C 9.03472 7.73454 6.00936
C 11.9453 4.4832 1.22333
H 9.98169 8.23447 5.89858
H 7.90241 5.50848 1.62431
C 8.83243 11.3803 6.68237
C 6.3278 0.813722 1.35988
H 7.77362 11.329 6.85751
H 11.6687 2.06154 1.19794
C 11.0085 10.5878 7.01891
C 8.59752 1.4223 1.68225
H 11.6705 9.83625 7.34604
H 9.34046 2.08886 2.08301
C 7.10559 7.25574 7.27653
C 11.0131 5.82549 2.89263
H 6.50613 7.42992 8.14995
H 11.0504 6.20232 3.8944
C 6.75571 6.18982 6.38399
C 10.4187 6.67992 1.88132
H 11.9214 7.02903 7.09429
H 9.94934 7.60412 2.17523
C 7.61759 5.8678 5.29998
C 10.5576 6.39684 0.510355
C 11.2671 1.57749 5.08452
C 8.16453 10.6644 9.81488
C 7.23864 4.76276 4.30206
C 9.69982 7.32399 9.67327
P 6.17151 2.02678 7.35335
C 7.96803 1.94984 7.31281
H 8.29051 1.03771 7.83577
H 8.34234 2.78835 7.91836
H 8.36749 2.036 6.28766
C 5.85656 2.37202 9.06533
H 6.10822 3.4105 9.30631
H 6.63483 1.79986 9.55973
H 4.82416 2.09576 9.36044
P 0.258591 1.12847 8.97583
C 11.0374 1.46486 8.57979
H 10.4873 0.510557 8.50359
H 10.5648 2.07073 9.37393
H 10.9904 2.01496 7.63264
C 1.66537 1.24399 7.81609
H 2.61764 1.26866 8.38022
H 1.66092 0.369499 7.15677
H 1.65057 2.13601 7.18216
P 2.45628 7.87301 3.94855
C 4.0883 8.56318 3.55854
H 4.36319 9.32956 4.30626
H 4.0618 9.03478 2.55702
H 4.84334 7.75011 3.57239
C 1.12352 9.09818 3.78391
H 0.212568 8.59536 3.39955
H 1.43355 9.89911 3.08226
H 0.876507 9.53837 4.76873
P 2.39995 5.91625 0.695172
C 2.20951 5.16638 2.26363
H 3.0608 5.36482 2.93141
H 2.11845 4.07759 2.14301
H 1.35072 5.65323 2.71364
C 1.21429 7.30602 0.806697
H 0.520548 7.47342 10.1128
H 1.58758 8.20994 1.29621
H 0.394663 7.05061 1.46826
P 8.58703 11.5876 4.01247
C 6.81617 11.1448 4.06382
H 6.45084 11.0597 5.1003
H 6.62332 10.176 3.56434
H 6.22854 11.8469 3.47478
C 9.25868 9.93967 3.62267
H 10.1396 9.72006 4.25094
H 9.49778 9.87232 2.54568
H 8.5117 9.15592 3.81822
P 10.7783 12.0423 1.14903
C 11.5418 11.8864 2.74212
H 11.5056 10.8651 3.12049
H 11.0029 0.0837668 3.28511
H 0.109948 12.0995 2.72829
C 11.8641 10.8098 0.322213
H 11.6527 10.9593 9.5076
H 11.5912 9.77253 0.608077
H 0.378364 10.8812 0.716528
P 5.33523 5.13083 6.78905
C 4.67118 5.36696 8.37333
H 5.55474 5.47594 9.01597
H 4.03019 6.25942 8.34832
H 4.05632 4.48579 8.65024
C 3.93203 4.54536 5.80602
H 4.06138 3.48165 5.54139
H 3.01339 4.59428 6.41722
H 3.84229 5.16046 4.90317
P 11.3784 4.8107 8.80355
C 0.585709 4.40145 8.41523
H 1.21948 5.29744 8.38264
H 1.02208 3.75047 9.18895
H 0.587385 3.89387 7.4511
C 10.031 4.83608 7.60524
H 9.0608 4.95562 8.1286
H 10.1876 5.68204 6.93482
H 10.0365 3.91988 6.99179
172
Atoms. Timestep: 205
Ni 3.27145 9.93648 8.88495
Ni 6.51262 3.11343 3.1339
O 1.28442 4.30368 4.42608
O 4.7888 8.91329 9.00304
O 4.91675 2.199 3.26063
O 1.79106 10.9597 9.12884
O 6.01544 4.2919 4.25174
O 2.95224 8.80217 10.2091
O 0.0225221 2.06505 5.34169
O 3.74986 11.1846 10.129
N 3.90823 11.158 7.41125
N 0.688804 2.06157 2.6738
N 2.42901 8.61674 7.5768
N 6.04027 4.44928 1.65619
C 3.82458 12.0973 5.13513
C 0.93863 1.03543 0.416998
H 3.53414 11.898 4.1361
H 6.04904 11.2877 0.745749
C 4.76425 0.611686 5.42755
C 2.07739 0.283734 0.768224
C 5.26307 0.601272 6.75342
C 2.6061 0.587 2.03713
H 0.0983631 11.789 6.12357
H 3.57371 0.200258 2.27828
C 2.38855 7.17585 5.57994
C 6.30507 6.84709 0.980642
C 3.11225 7.94938 6.58457
C 6.84534 5.56803 1.43131
H 4.15634 8.18027 6.42206
H 0.336046 4.0148 0.921142
C 3.33789 11.1999 6.15981
C 0.173043 1.76793 1.42438
H 2.50416 10.5621 5.93514
H 5.29274 1.07934 1.29037
C 4.92489 12.0612 7.66983
C 1.92024 1.49009 2.96829
H 5.45362 12.0022 8.60257
H 2.38418 1.71489 3.91703
C 1.1048 8.26301 7.74582
C 4.76255 4.53721 1.17322
H 0.534005 8.77734 8.49411
H 4.15031 3.64592 1.17354
C 0.459078 7.21583 6.95816
C 4.16781 5.82214 0.767308
C 1.16074 6.50913 5.95362
C 4.96266 6.97733 0.557447
C 5.49459 1.50711 4.30943
C 2.4848 11.6819 10.0621
C 0.587156 5.10544 5.26273
C 4.18601 8.27568 10.0528
Ni 8.92951 9.08581 8.57807
Ni 12.2975 3.33236 4.03754
O 8.0615 4.0415 3.4601
O 10.4057 8.04559 8.73975
O 10.7517 2.32359 4.05168
O 7.43426 10.1064 8.80071
O 11.8069 4.59158 5.31741
O 8.45713 7.83203 9.76612
O 6.75957 1.94447 4.45712
O 9.34802 10.1 9.87599
N 9.65959 10.449 7.27023
N 7.23621 1.73662 1.83717
N 8.26644 7.97347 7.11773
N 11.7025 4.66529 2.56764
C 9.2933 12.1757 5.58319
C 6.72966 12.1126 0.771948
C 10.68 0.126546 5.64418
C 8.03499 11.9042 0.366493
C 11.5418 11.7244 6.28904
C 9.02913 0.189373 0.980313
C 8.64247 6.77183 5.03628
C 11.2662 5.22363 0.205405
H 8.99957 6.85973 4.04329
H 6.91439 7.73311 1.05358
C 9.03472 7.73454 6.00936
C 11.9453 4.4832 1.22333
H 9.98169 8.23447 5.89858
H 7.90241 5.50848 1.62431
C 8.83243 11.3803 6.68237
C 6.3278 0.813722 1.35988
H 7.77362 11.329 6.85751
H 11.6687 2.06154 1.19794
C 11.0085 10.5878 7.01891
C 8.59752 1.4223 1.68225
H 11.6705 9.83625 7.34604
H 9.34046 2.08886 2.08301
C 7.10559 7.25574 7.27653
C 11.0131 5.82549 2.89263
H 6.50613 7.42992 8.14995
H 11.0504 6.20232 3.8944
C 6.75571 6.18982 6.38399
C 10.4187 6.67992 1.88132
H 11.9214 7.02903 7.09429
H 9.94934 7.60412 2.17523
C 7.61759 5.8678 5.29998
C 10.5576 6.39684 0.510355
C 11.2671 1.57749 5.08452
C 8.16453 10.6644 9.81488
C 7.23864 4.76276 4.30206
C 9.69982 7.32399 9.67327
P 6.17151 2.02678 7.35335
C 7.96803 1.94984 7.31281
H 8.29051 1.03771 7.83577
H 8.34234 2.78835 7.91836
H 8.36749 2.036 6.28766
C 5.85656 2.37202 9.06533
H 6.10822 3.4105 9.30631
H 6.63483 1.79986 9.55973
H 4.82416 2.09576 9.36044
P 0.258591 1.12847 8.97583
C 11.0374 1.46486 8.57979
H 10.4873 0.510557 8.50359
H 10.5648 2.07073 9.37393
H 10.9904 2.01496 7.63264
C 1.66537 1.24399 7.81609
H 2.61764 1.26866 8.38022
H 1.66092 0.369499 7.15677