Created on Wed Aug 12 11:02:29 2020 

         188 atoms
         204 bonds
         387 angles
         428 dihedrals
         171 impropers

          10 atom types
          14 bond types
          26 angle types
           7 dihedral types
           1 improper types
           0.000000  12.505600 xlo xhi
           0.000000  12.523400 ylo yhi
           0.000000  10.274279 zlo zhi
           0.000000  -0.227594   0.000000 xy xz yz

Masses

    1    58.693400000 # Ni4+2
    2    15.999400000 # O_R
    3    14.006700000 # N_R
    4    12.010700000 # C_R
    5     1.007940000 # H_
    6    15.999400000 # O_3
    7    12.010700000 # C_3
    8    12.010700000 # C_2
    9    12.010700000 # C_1
   10     1.007940000 # H_

Bond Coeffs

    1      321.720028        1.793457  # Ni4+2 O_R
    2      328.673665        1.841585  # Ni4+2 N_R
    3      646.680887        1.311940  # O_R C_R
    4      663.718927        1.345073  # N_R C_R
    5      462.655054        1.379256  # C_R C_R
    6      357.440381        1.081418  # C_R H_
    7      391.669513        1.458000  # C_R C_R
    8      572.510195        1.366311  # C_R O_3
    9      539.248552        1.393845  # O_3 C_3
   10      349.795899        1.514000  # C_3 C_3
   11      331.069389        1.109401  # C_3 H_
   12      367.712375        1.489000  # C_3 C_2
   13      408.240118        1.438000  # C_2 C_1
   14      354.483902        1.084416  # C_2 H_

Angle Coeffs

    1              cosine/periodic      322.980216               1               4 # O_R Ni4+2 O_R
    2              cosine/periodic      343.030950               1               4 # O_R Ni4+2 N_R
    3              cosine/periodic      364.965660               1               4 # N_R Ni4+2 N_R
    4              cosine/periodic      238.346347              -1               3 # C_R O_R Ni4+2
    5              cosine/periodic      177.809033              -1               3 # Ni4+2 N_R C_R
    6              cosine/periodic      240.001032              -1               3 # C_R N_R C_R
    7              cosine/periodic      114.578032              -1               3 # C_R C_R H_
    8              cosine/periodic      222.595017              -1               3 # C_R C_R C_R
    9              cosine/periodic      204.366560              -1               3 # C_R C_R C_R
   10              cosine/periodic      307.398705              -1               3 # N_R C_R C_R
   11              cosine/periodic      159.573934              -1               3 # N_R C_R H_
   12              cosine/periodic      375.147287              -1               3 # N_R C_R O_3
   13              cosine/periodic      271.563462              -1               3 # C_R C_R O_3
   14              cosine/periodic      263.511421              -1               3 # O_R C_R C_R
   15              cosine/periodic      374.272657              -1               3 # O_R C_R O_R
   16                      fourier      320.948910        0.300235        0.267331        0.266745 # C_R O_3 C_3
   17                      fourier      290.032745        0.343737        0.374972        0.281246 # O_3 C_3 C_3
   18                      fourier      165.777838        0.343737        0.374972        0.281246 # O_3 C_3 H_
   19                      fourier      117.318683        0.343737        0.374972        0.281246 # C_3 C_3 H_
   20                      fourier       75.498766        0.343737        0.374972        0.281246 # H_ C_3 H_
   21                      fourier      214.211821        0.343737        0.374972        0.281246 # C_3 C_3 C_3
   22                      fourier      297.988866        0.343737        0.374972        0.281246 # O_3 C_3 C_2
   23                      fourier      121.290688        0.343737        0.374972        0.281246 # C_2 C_3 H_
   24              cosine/periodic      186.251973              -1               3 # C_3 C_2 C_1
   25              cosine/periodic       98.867873              -1               3 # C_3 C_2 H_
   26              cosine/periodic      105.680144              -1               3 # C_1 C_2 H_

Dihedral Coeffs

    1        2.245703              -1               2 # Ni4+2 O_R C_R C_R
    2        1.497136              -1               2 # Ni4+2 N_R C_R C_R
    3        0.555556              -1               2 # C_R C_R C_R O_R
    4        0.833333               1               2 # N_R C_R O_3 C_3
    5        0.128665               1               2 # C_R O_3 C_3 C_3
    6        0.066219               1               3 # O_3 C_3 C_3 C_3
    7        0.083333               1               3 # O_3 C_3 C_2 C_1

Improper Coeffs

    1        2.000000        1.000000       -1.000000        0.000000               0 # Ni4+2 N_R C_R C_R

Pair Coeffs

    1        0.015000        2.524807 # Ni4+2 Ni4+2
    2        0.060000        3.118146 # O_R O_R
    3        0.069000        3.260689 # N_R N_R
    4        0.105000        3.430851 # C_R C_R
    5        0.044000        2.571134 # H_ H_
    6        0.060000        3.118146 # O_3 O_3
    7        0.105000        3.430851 # C_3 C_3
    8        0.105000        3.430851 # C_2 C_2
    9        0.105000        3.430851 # C_1 C_1
   10        0.044000        2.571134 # H_ H_

Atoms

       1      444        1     0.00000    2.89857    9.41116    8.59265
       2      444        1     0.00000    6.17525    3.10579    3.48481
       3      444        2     0.00000    1.44827    4.35425    3.93374
       4      444        2     0.00000    4.44160    8.15245    9.05464
       5      444        2     0.00000    4.63665    1.84729    3.87523
       6      444        2     0.00000    1.36499   10.67435    9.00295
       7      444        2     0.00000    5.80609    4.46033    4.96242
       8      444        2     0.00000    2.54244    8.03270   10.06753
       9      444        2     0.00000    0.25117    1.69264    4.94273
      10      444        2     0.00000    3.23722   10.80466   10.06262
      11      444        3     0.00000    3.69677   10.66058    7.24160
      12      444        3     0.00000    0.71256    1.86420    2.11704
      13      444        3     0.00000    2.17217    8.14409    7.25198
      14      444        3     0.00000    5.44023    4.39481    2.13747
      15      444        4     0.00000    3.48546   12.14832    5.36301
      16      444        4     0.00000    0.47488    0.38955    0.22920
      17      444        5     0.00000    2.86453   12.51808    4.55267
      18      444        5     0.00000    5.86971    0.03371    9.69377
      19      444        4     0.00000    4.76073    0.14740    5.61481
      20      444        4     0.00000    1.74333   12.36991    0.47412
      21      444        4     0.00000    5.50345   12.15023    6.68209
      22      444        4     0.00000    2.49852    0.35508    1.54004
      23      444        5     0.00000    0.24768   12.50843    6.91993
      24      444        5     0.00000    3.49155   12.50668    1.77336
      25      444        4     0.00000    2.48363    6.63370    5.40822
      26      444        4     0.00000    5.72803    5.90364    0.28669
      27      444        5     0.00000    3.13294    6.27291    4.61605
      28      444        5     0.00000   -0.10828    6.26667    9.76620
      29      444        4     0.00000    2.92756    7.68099    6.23068
      30      444        4     0.00000    6.18830    4.86756    1.11596
      31      444        5     0.00000    3.89994    8.14655    6.08890
      32      444        4     0.00000    2.98256   11.13588    6.19748
      33      444        4     0.00000   -0.01036    1.40553    1.07106
      34      444        5     0.00000    1.99392   10.70905    6.04703
      35      444        4     0.00000    4.93641   11.13810    7.47507
      36      444        4     0.00000    1.94823    1.37190    2.34060
      37      444        5     0.00000    2.50886    1.79214    3.17267
      38      444        4     0.00000    0.94573    7.62654    7.47302
      39      444        4     0.00000    4.21083    4.90458    2.35686
      40      444        5     0.00000    3.63605    4.47744    3.17528
      41      444        4     0.00000    0.43859    6.57577    6.69176
      42      444        4     0.00000    3.68763    5.94500    1.56944
      43      444        5     0.00000    5.70774    6.17693    6.91975
      44      444        5     0.00000    2.69824    6.32683    1.80071
      45      444        4     0.00000    1.22745    6.06471    5.65205
      46      444        4     0.00000    4.46338    6.45777    0.52027
      47      444        4     0.00000    5.31260    1.24381    4.79419
      48      444        4     0.00000    2.05020   11.26755    9.92158
      49      444        4     0.00000    0.73548    4.94016    4.83586
      50      444        4     0.00000    3.73174    7.56629    9.95688
      51      444        1     0.00000    9.15137    9.41116    8.59265
      52      444        1     0.00000   12.42805    3.10579    3.48481
      53      444        2     0.00000    7.70109    4.35425    3.93374
      54      444        2     0.00000   10.69440    8.15245    9.05464
      55      444        2     0.00000   10.88945    1.84729    3.87523
      56      444        2     0.00000    7.61779   10.67435    9.00295
      57      444        2     0.00000   12.05889    4.46033    4.96242
      58      444        2     0.00000    8.79524    8.03270   10.06753
      59      444        2     0.00000    6.50397    1.69264    4.94273
      60      444        2     0.00000    9.49002   10.80466   10.06262
      61      444        3     0.00000    9.94957   10.66058    7.24160
      62      444        3     0.00000    6.96536    1.86420    2.11704
      63      444        3     0.00000    8.42499    8.14409    7.25198
      64      444        3     0.00000   11.69303    4.39481    2.13747
      65      444        4     0.00000    9.73826   12.14832    5.36301
      66      444        4     0.00000    6.72768    0.38955    0.22920
      67      444        5     0.00000    9.11733   12.51808    4.55267
      68      444        5     0.00000   12.12251    0.03371    9.69377
      69      444        4     0.00000   11.01353    0.14740    5.61481
      70      444        4     0.00000    7.99613   12.36991    0.47412
      71      444        4     0.00000   11.75625   12.15023    6.68209
      72      444        4     0.00000    8.75132    0.35508    1.54004
      73      444        5     0.00000    6.50047   12.50843    6.91993
      74      444        5     0.00000    9.74435   12.50668    1.77336
      75      444        4     0.00000    8.73644    6.63370    5.40822
      76      444        4     0.00000   11.98084    5.90364    0.28669
      77      444        5     0.00000    9.38574    6.27291    4.61605
      78      444        5     0.00000    6.14452    6.26667    9.76620
      79      444        4     0.00000    9.18036    7.68099    6.23068
      80      444        4     0.00000   12.44110    4.86756    1.11596
      81      444        4     0.00000    9.23536   11.13588    6.19748
      82      444        4     0.00000    6.24244    1.40553    1.07106
      83      444        5     0.00000    8.24672   10.70905    6.04703
      84      444        4     0.00000   11.18921   11.13810    7.47507
      85      444        4     0.00000    8.20102    1.37190    2.34060
      86      444        5     0.00000    8.76167    1.79214    3.17267
      87      444        4     0.00000    7.19853    7.62654    7.47302
      88      444        4     0.00000   10.46363    4.90458    2.35686
      89      444        5     0.00000    6.61608    8.05184    8.28732
      90      444        5     0.00000    9.88885    4.47744    3.17528
      91      444        4     0.00000    6.69139    6.57577    6.69176
      92      444        4     0.00000    9.94043    5.94500    1.56944
      93      444        5     0.00000   11.96054    6.17693    6.91975
      94      444        5     0.00000    8.95104    6.32683    1.80071
      95      444        4     0.00000    7.48025    6.06471    5.65205
      96      444        4     0.00000   10.71618    6.45777    0.52027
      97      444        4     0.00000   11.56540    1.24381    4.79419
      98      444        4     0.00000    8.30300   11.26755    9.92158
      99      444        4     0.00000    6.98827    4.94016    4.83586
     100      444        4     0.00000    9.98454    7.56629    9.95688
     101      444        6     0.00000    5.71376   10.64206    8.52325
     102      444        7     0.00000    5.31826    9.65038    9.40006
     103      444        7     0.00000    6.66868    9.38619    0.12718
     104      444        5     0.00000    4.40669    9.97690    9.94804
     105      444        5     0.00000    5.10202    8.71622    8.83578
     106      444        7     0.00000    6.27963    8.29519    1.12048
     107      444        5     0.00000    7.35598    9.06957    9.85480
     108      444        5     0.00000    6.89308   10.32139    0.68499
     109      444        5     0.00000    6.06994    7.34378    0.58662
     110      444        5     0.00000    7.11398    8.12640    1.83342
     111      444        5     0.00000    5.37775    8.59863    1.69379
     112      444        6     0.00000   11.23395    1.92376    0.78384
     113      444        7     0.00000   10.60602    2.92165    1.50394
     114      444        7     0.00000    9.24280    3.21220    0.87901
     115      444        5     0.00000   11.22502    3.84586    1.48117
     116      444        5     0.00000   10.46449    2.59104    2.55680
     117      444        7     0.00000    8.50717    4.31087    1.64064
     118      444        5     0.00000    8.62646    2.28696    0.89162
     119      444        5     0.00000    9.15406    3.53300   10.09786
     120      444        5     0.00000    8.33889    4.00369    2.69490
     121      444        5     0.00000    7.52229    4.49887    1.16357
     122      444        5     0.00000    9.09593    5.25279    1.62428
     123      444        6     0.00000    0.12857    8.11648    8.49089
     124      444        7     0.00000    0.46665    9.14297    9.35151
     125      444        7     0.00000   12.04591    9.38722    0.04786
     126      444        5     0.00000    1.37761    8.86473    9.92647
     127      444        5     0.00000    0.65970   10.07124    8.76937
     128      444        7     0.00000   12.37120   10.51542    1.02236
     129      444        5     0.00000   10.90439    9.65547    9.74867
     130      444        5     0.00000   11.84489    8.45744    0.62337
     131      444        5     0.00000    0.05078   11.46138    0.47010
     132      444        5     0.00000   11.51547   10.66868    1.71313
     133      444        5     0.00000    0.76544   10.26045    1.62188
     134      444        6     0.00000    7.45040    4.34412    0.84378
     135      444        7     0.00000    8.05529    3.32630    1.55569
     136      444        7     0.00000    9.42839    3.03659    0.95235
     137      444        5     0.00000    8.17830    3.63413    2.61774
     138      444        5     0.00000    7.42915    2.40822    1.50154
     139      444        7     0.00000   10.13921    1.91613    1.70578
     140      444        5     0.00000    9.08063    2.73864   10.16226
     141      444        5     0.00000   10.05209    3.95592    0.99639
     142      444        5     0.00000    9.54301    0.97997    1.65818
     143      444        5     0.00000   11.13192    1.72927    1.24478
     144      444        5     0.00000   10.28869    2.20019    2.76930
     145      444        6     0.00000   11.96656   10.64207    8.52326
     146      444        7     0.00000   11.57095    9.65057    9.40023
     147      444        7     0.00000    0.41582    9.38630    0.12727
     148      444        5     0.00000   11.35449    8.71636    8.83609
     149      444        5     0.00000   10.65950    9.97734    9.94823
     150      444        7     0.00000    0.02662    8.29558    1.12082
     151      444        5     0.00000    0.64051   10.32154    0.68489
     152      444        5     0.00000    1.10299    9.06937    9.85484
     153      444        5     0.00000   11.63050    8.59936    1.69419
     154      444        5     0.00000    0.86101    8.12670    1.83369
     155      444        5     0.00000   12.32222    7.34414    0.58718
     156      444        6     0.00000    4.98115    1.92376    0.78384
     157      444        7     0.00000    4.35322    2.92165    1.50394
     158      444        7     0.00000    2.99000    3.21220    0.87901
     159      444        5     0.00000    4.97222    3.84586    1.48117
     160      444        5     0.00000    4.21169    2.59104    2.55680
     161      444        7     0.00000    2.25437    4.31087    1.64064
     162      444        5     0.00000    2.37366    2.28696    0.89162
     163      444        5     0.00000    2.90126    3.53300   10.09786
     164      444        5     0.00000    2.08609    4.00369    2.69490
     165      444        5     0.00000    1.26949    4.49887    1.16357
     166      444        5     0.00000    2.84313    5.25279    1.62428
     167      444        6     0.00000   10.43153    8.22621    5.95399
     168      444        7     0.00000   11.01925    9.25799    6.66015
     169      444        7     0.00000   -0.12003    9.57003    6.05258
     170      444        5     0.00000   11.15007    8.95711    7.72327
     171      444        5     0.00000   10.37639   10.16425    6.60337
     172      444        7     0.00000    0.57183   10.70653    6.79957
     173      444        5     0.00000   12.25776    9.86106    4.98718
     174      444        5     0.00000    0.52042    8.66242    6.09924
     175      444        5     0.00000   -0.04143   11.63147    6.74921
     176      444        5     0.00000    1.56000   10.90943    6.33561
     177      444        5     0.00000    0.72869   10.42993    7.86400
     178      444        6     0.00000    1.19760    4.34410    0.84378
     179      444        7     0.00000    1.80247    3.32629    1.55569
     180      444        8     0.00000    3.17557    3.03656    0.95235
     181      444        5     0.00000    1.92549    3.63412    2.61775
     182      444        5     0.00000    1.17634    2.40822    1.50154
     183      444        9     0.00000    3.88640    1.91611    1.70578
     184      444        5     0.00000    2.82782    2.73862   10.16226
     185        1       10     0.00000    3.79929    3.95589    0.99639
     186        2       10     0.00000    3.29018    0.97994    1.65819
     187        3       10     0.00000    4.87911    1.72923    1.24479
     188        4       10     0.00000    4.03586    2.20016    2.76931

Bonds

       1        1        1        4
       2        1        1        6
       3        1        1        8
       4        1        1       10
       5        2        1       11
       6        2        1       13
       7        1        2        5
       8        1        2        7
       9        2        2       14
      10        1        2       53
      11        1        2       59
      12        2        2       62
      13        3        3       49
      14        1        3       52
      15        3        4       50
      16        3        5       47
      17        3        6       48
      18        3        7       99
      19        3        8       50
      20        1        9       52
      21        3        9       97
      22        3       10       48
      23        4       11       32
      24        4       11       35
      25        4       12       33
      26        4       12       36
      27        2       12       52
      28        4       13       29
      29        4       13       38
      30        4       14       30
      31        4       14       39
      32        6       15       17
      33        5       15       19
      34        5       15       32
      35        5       16       20
      36        5       16       33
      37        6       16       68
      38        6       18       66
      39        5       19       21
      40        7       19       47
      41        5       20       22
      42        7       20       48
      43        5       21       35
      44        6       21       73
      45        6       22       24
      46        5       22       36
      47        6       23       71
      48        6       25       27
      49        5       25       29
      50        5       25       45
      51        5       26       30
      52        5       26       46
      53        6       26       78
      54        6       28       76
      55        6       29       31
      56        8       30      134
      57        6       32       34
      58        8       33      112
      59        8       35      101
      60        6       36       37
      61        5       38       41
      62        8       38      123
      63        6       39       40
      64        5       39       42
      65        5       41       45
      66        6       41       93
      67        6       42       44
      68        5       42       46
      69        6       43       91
      70        7       45       49
      71        7       46       50
      72        3       47       59
      73        3       49       57
      74        1       51       54
      75        1       51       56
      76        1       51       58
      77        1       51       60
      78        2       51       61
      79        2       51       63
      80        1       52       55
      81        1       52       57
      82        2       52       64
      83        3       53       99
      84        3       54      100
      85        3       55       97
      86        3       56       98
      87        3       58      100
      88        3       60       98
      89        4       61       81
      90        4       61       84
      91        4       62       82
      92        4       62       85
      93        4       63       79
      94        4       63       87
      95        4       64       80
      96        4       64       88
      97        6       65       67
      98        5       65       69
      99        5       65       81
     100        5       66       70
     101        5       66       82
     102        5       69       71
     103        7       69       97
     104        5       70       72
     105        7       70       98
     106        5       71       84
     107        6       72       74
     108        5       72       85
     109        6       75       77
     110        5       75       79
     111        5       75       95
     112        5       76       80
     113        5       76       96
     114        8       79      167
     115        8       80      178
     116        6       81       83
     117        8       82      156
     118        8       84      145
     119        6       85       86
     120        6       87       89
     121        5       87       91
     122        6       88       90
     123        5       88       92
     124        5       91       95
     125        6       92       94
     126        5       92       96
     127        7       95       99
     128        7       96      100
     129        9      101      102
     130       10      102      103
     131       11      102      104
     132       11      102      105
     133       10      103      106
     134       11      103      107
     135       11      103      108
     136       11      106      109
     137       11      106      110
     138       11      106      111
     139        9      112      113
     140       10      113      114
     141       11      113      115
     142       11      113      116
     143       10      114      117
     144       11      114      118
     145       11      114      119
     146       11      117      120
     147       11      117      121
     148       11      117      122
     149        9      123      124
     150       10      124      125
     151       11      124      126
     152       11      124      127
     153       10      125      128
     154       11      125      129
     155       11      125      130
     156       11      128      131
     157       11      128      132
     158       11      128      133
     159        9      134      135
     160       10      135      136
     161       11      135      137
     162       11      135      138
     163       10      136      139
     164       11      136      140
     165       11      136      141
     166       11      139      142
     167       11      139      143
     168       11      139      144
     169        9      145      146
     170       10      146      147
     171       11      146      148
     172       11      146      149
     173       10      147      150
     174       11      147      151
     175       11      147      152
     176       11      150      153
     177       11      150      154
     178       11      150      155
     179        9      156      157
     180       10      157      158
     181       11      157      159
     182       11      157      160
     183       10      158      161
     184       11      158      162
     185       11      158      163
     186       11      161      164
     187       11      161      165
     188       11      161      166
     189        9      167      168
     190       10      168      169
     191       11      168      170
     192       11      168      171
     193       10      169      172
     194       11      169      173
     195       11      169      174
     196       11      172      175
     197       11      172      176
     198       11      172      177
     199        9      178      179
     200       12      179      180
     201       11      179      181
     202       11      179      182
     203       13      180      183
     204       14      180      184

Angles

       1        1        4        1        6
       2        1        4        1        8
       3        1        4        1       10
       4        2        4        1       11
       5        2        4        1       13
       6        1        6        1        8
       7        1        6        1       10
       8        2        6        1       11
       9        2        6        1       13
      10        1        8        1       10
      11        2        8        1       11
      12        2        8        1       13
      13        2       10        1       11
      14        2       10        1       13
      15        3       11        1       13
      16        2       14        2        5
      17        2       14        2        7
      18        2       14        2       53
      19        2       14        2       59
      20        3       14        2       62
      21        1        5        2        7
      22        1        5        2       53
      23        1        5        2       59
      24        2        5        2       62
      25        1        7        2       53
      26        1        7        2       59
      27        2        7        2       62
      28        1       53        2       59
      29        2       53        2       62
      30        2       59        2       62
      31        4       49        3       52
      32        4        1        4       50
      33        4        2        5       47
      34        4        1        6       48
      35        4        2        7       99
      36        4        1        8       50
      37        4       52        9       97
      38        4        1       10       48
      39        5        1       11       32
      40        5        1       11       35
      41        6       32       11       35
      42        6       33       12       36
      43        5       33       12       52
      44        5       36       12       52
      45        5        1       13       29
      46        5        1       13       38
      47        6       29       13       38
      48        5        2       14       30
      49        5        2       14       39
      50        6       30       14       39
      51        7       19       15       17
      52        8       19       15       32
      53        7       17       15       32
      54        8       20       16       33
      55        7       20       16       68
      56        7       33       16       68
      57        8       15       19       21
      58        9       15       19       47
      59        9       21       19       47
      60        8       16       20       22
      61        9       16       20       48
      62        9       22       20       48
      63        8       19       21       35
      64        7       19       21       73
      65        7       35       21       73
      66        8       20       22       36
      67        7       20       22       24
      68        7       36       22       24
      69        8       29       25       45
      70        7       29       25       27
      71        7       45       25       27
      72        8       30       26       46
      73        7       30       26       78
      74        7       46       26       78
      75       10       13       29       25
      76       11       13       29       31
      77        7       25       29       31
      78       10       14       30       26
      79       12       14       30      134
      80       13       26       30      134
      81       10       11       32       15
      82       11       11       32       34
      83        7       15       32       34
      84       10       12       33       16
      85       12       12       33      112