Created on Tue Aug 25 11:51:28 2020 

         188 atoms
         204 bonds
         387 angles
         428 dihedrals
         171 impropers

          10 atom types
          14 bond types
          25 angle types
           7 dihedral types
           1 improper types
           0.000000  12.505600 xlo xhi
           0.000000  12.523400 ylo yhi
           0.000000  10.274279 zlo zhi
           0.000000  -0.227594   0.000000 xy xz yz

Masses

    1    58.693400000 # Ni4+2
    2    15.999400000 # O_R
    3    14.006700000 # N_R
    4    12.010700000 # C_R
    5     1.007940000 # H_
    6    15.999400000 # O_3
    7    12.010700000 # C_3
    8    12.010700000 # C_2
    9    12.010700000 # C_1
   10     1.007940000 # H_

Bond Coeffs

    1      321.720028        1.793457  # Ni4+2 O_R
    2      328.673665        1.841585  # Ni4+2 N_R
    3      646.680887        1.311940  # O_R C_R
    4      663.718927        1.345073  # N_R C_R
    5      462.655054        1.379256  # C_R C_R
    6      572.510195        1.366311  # C_R O_3
    7      357.440381        1.081418  # C_R H_
    8      391.669513        1.458000  # C_R C_R
    9      539.248552        1.393845  # O_3 C_3
   10      349.795899        1.514000  # C_3 C_3
   11      331.069389        1.109401  # C_3 H_
   12      367.712375        1.489000  # C_3 C_2
   13      408.240118        1.438000  # C_2 C_1
   14      354.483902        1.084416  # C_2 H_

Angle Coeffs

    1              cosine/periodic      322.980216               1               4 # O_R Ni4+2 O_R
    2              cosine/periodic      343.030950               1               4 # O_R Ni4+2 N_R
    3              cosine/periodic      364.965660               1               4 # N_R Ni4+2 N_R
    4              cosine/periodic      238.346347              -1               3 # C_R O_R Ni4+2
    5              cosine/periodic      177.809033              -1               3 # Ni4+2 N_R C_R
    6              cosine/periodic      240.001032              -1               3 # C_R N_R C_R
    7              cosine/periodic      222.595017              -1               3 # C_R C_R C_R
    8              cosine/periodic      271.563462              -1               3 # C_R C_R O_3
    9              cosine/periodic      114.578032              -1               3 # C_R C_R H_
   10              cosine/periodic      204.366560              -1               3 # C_R C_R C_R
   11              cosine/periodic      307.398705              -1               3 # N_R C_R C_R
   12              cosine/periodic      159.573934              -1               3 # N_R C_R H_
   13              cosine/periodic      263.511421              -1               3 # O_R C_R C_R
   14              cosine/periodic      374.272657              -1               3 # O_R C_R O_R
   15                      fourier      320.948910        0.300235        0.267331        0.266745 # C_R O_3 C_3
   16                      fourier      290.032745        0.343737        0.374972        0.281246 # O_3 C_3 C_3
   17                      fourier      165.777838        0.343737        0.374972        0.281246 # O_3 C_3 H_
   18                      fourier      117.318683        0.343737        0.374972        0.281246 # C_3 C_3 H_
   19                      fourier       75.498766        0.343737        0.374972        0.281246 # H_ C_3 H_
   20                      fourier      214.211821        0.343737        0.374972        0.281246 # C_3 C_3 C_3
   21                      fourier      297.988866        0.343737        0.374972        0.281246 # O_3 C_3 C_2
   22                      fourier      121.290688        0.343737        0.374972        0.281246 # C_2 C_3 H_
   23              cosine/periodic      186.251973              -1               3 # C_3 C_2 C_1
   24              cosine/periodic       98.867873              -1               3 # C_3 C_2 H_
   25              cosine/periodic      105.680144              -1               3 # C_1 C_2 H_

Dihedral Coeffs

    1        2.245703              -1               2 # Ni4+2 O_R C_R C_R
    2        1.497136              -1               2 # Ni4+2 N_R C_R C_R
    3        0.833333               1               2 # C_R C_R O_3 C_3
    4        0.555556              -1               2 # C_R C_R C_R O_R
    5        0.128665               1               2 # C_R O_3 C_3 C_3
    6        0.066219               1               3 # O_3 C_3 C_3 C_3
    7        0.083333               1               3 # O_3 C_3 C_2 C_1

Improper Coeffs

    1        2.000000        1.000000       -1.000000        0.000000               0 # Ni4+2 N_R C_R C_R

Pair Coeffs

    1        0.015000        2.524807 # Ni4+2 Ni4+2
    2        0.060000        3.118146 # O_R O_R
    3        0.069000        3.260689 # N_R N_R
    4        0.105000        3.430851 # C_R C_R
    5        0.044000        2.571134 # H_ H_
    6        0.060000        3.118146 # O_3 O_3
    7        0.105000        3.430851 # C_3 C_3
    8        0.105000        3.430851 # C_2 C_2
    9        0.105000        3.430851 # C_1 C_1
   10        0.044000        2.571134 # H_ H_

Atoms

       1      444        1     0.00000    2.89857    9.41116    8.59265
       2      444        1     0.00000    6.17525    3.10579    3.48481
       3      444        2     0.00000    1.44827    4.35425    3.93374
       4      444        2     0.00000    4.44160    8.15245    9.05464
       5      444        2     0.00000    4.63665    1.84729    3.87523
       6      444        2     0.00000    1.36499   10.67435    9.00295
       7      444        2     0.00000    5.80609    4.46033    4.96242
       8      444        2     0.00000    2.54244    8.03270   10.06753
       9      444        2     0.00000    0.25117    1.69264    4.94273
      10      444        2     0.00000    3.23722   10.80466   10.06262
      11      444        3     0.00000    3.69677   10.66058    7.24160
      12      444        3     0.00000    0.71256    1.86420    2.11704
      13      444        3     0.00000    2.17217    8.14409    7.25198
      14      444        3     0.00000    5.44023    4.39481    2.13747
      15      444        4     0.00000    3.48546   12.14832    5.36301
      16      444        4     0.00000    0.47488    0.38955    0.22920
      17      444        4     0.00000    4.76073    0.14740    5.61481
      18      444        4     0.00000    1.74333   12.36991    0.47412
      19      444        4     0.00000    5.50345   12.15023    6.68209
      20      444        4     0.00000    2.49852    0.35508    1.54004
      21      444        4     0.00000    2.48363    6.63370    5.40822
      22      444        4     0.00000    5.72803    5.90364    0.28669
      23      444        4     0.00000    2.92756    7.68099    6.23068
      24      444        4     0.00000    6.18830    4.86756    1.11596
      25      444        5     0.00000    3.89994    8.14655    6.08890
      26      444        5     0.00000    0.91589    4.41889    0.97634
      27      444        4     0.00000    2.98256   11.13588    6.19748
      28      444        4     0.00000   -0.01036    1.40553    1.07106
      29      444        5     0.00000    1.99392   10.70905    6.04703
      30      444        5     0.00000    5.26093    1.85011    0.92351
      31      444        4     0.00000    4.93641   11.13810    7.47507
      32      444        4     0.00000    1.94823    1.37190    2.34060
      33      444        5     0.00000    5.48559   10.70967    8.30944
      34      444        5     0.00000    2.50886    1.79214    3.17267
      35      444        4     0.00000    0.94573    7.62654    7.47302
      36      444        4     0.00000    4.21083    4.90458    2.35686
      37      444        5     0.00000    0.36328    8.05184    8.28732
      38      444        5     0.00000    3.63605    4.47744    3.17528
      39      444        4     0.00000    0.43859    6.57577    6.69176
      40      444        4     0.00000    3.68763    5.94500    1.56944
      41      444        4     0.00000    1.22745    6.06471    5.65205
      42      444        4     0.00000    4.46338    6.45777    0.52027
      43      444        4     0.00000    5.31260    1.24381    4.79419
      44      444        4     0.00000    2.05020   11.26755    9.92158
      45      444        4     0.00000    0.73548    4.94016    4.83586
      46      444        4     0.00000    3.73174    7.56629    9.95688
      47      444        1     0.00000    9.15137    9.41116    8.59265
      48      444        1     0.00000   12.42805    3.10579    3.48481
      49      444        2     0.00000    7.70109    4.35425    3.93374
      50      444        2     0.00000   10.69440    8.15245    9.05464
      51      444        2     0.00000   10.88945    1.84729    3.87523
      52      444        2     0.00000    7.61779   10.67435    9.00295
      53      444        2     0.00000   12.05889    4.46033    4.96242
      54      444        2     0.00000    8.79524    8.03270   10.06753
      55      444        2     0.00000    6.50397    1.69264    4.94273
      56      444        2     0.00000    9.49002   10.80466   10.06262
      57      444        3     0.00000    9.94957   10.66058    7.24160
      58      444        3     0.00000    6.96536    1.86420    2.11704
      59      444        3     0.00000    8.42499    8.14409    7.25198
      60      444        3     0.00000   11.69303    4.39481    2.13747
      61      444        4     0.00000    9.73826   12.14832    5.36301
      62      444        4     0.00000    6.72768    0.38955    0.22920
      63      444        5     0.00000    9.11733   12.51808    4.55267
      64      444        5     0.00000   12.12251    0.03371    9.69377
      65      444        4     0.00000   11.01353    0.14740    5.61481
      66      444        4     0.00000    7.99613   12.36991    0.47412
      67      444        4     0.00000   11.75625   12.15023    6.68209
      68      444        4     0.00000    8.75132    0.35508    1.54004
      69      444        5     0.00000    6.50047   12.50843    6.91993
      70      444        5     0.00000    9.74435   12.50668    1.77336
      71      444        4     0.00000    8.73644    6.63370    5.40822
      72      444        4     0.00000   11.98084    5.90364    0.28669
      73      444        5     0.00000    9.38574    6.27291    4.61605
      74      444        5     0.00000    6.14452    6.26667    9.76620
      75      444        4     0.00000    9.18036    7.68099    6.23068
      76      444        4     0.00000   12.44110    4.86756    1.11596
      77      444        5     0.00000   10.15274    8.14655    6.08890
      78      444        5     0.00000    7.16869    4.41889    0.97634
      79      444        4     0.00000    9.23536   11.13588    6.19748
      80      444        4     0.00000    6.24244    1.40553    1.07106
      81      444        5     0.00000    8.24672   10.70905    6.04703
      82      444        5     0.00000   11.51373    1.85011    0.92351
      83      444        4     0.00000   11.18921   11.13810    7.47507
      84      444        4     0.00000    8.20102    1.37190    2.34060
      85      444        5     0.00000   11.73839   10.70967    8.30944
      86      444        5     0.00000    8.76167    1.79214    3.17267
      87      444        4     0.00000    7.19853    7.62654    7.47302
      88      444        4     0.00000   10.46363    4.90458    2.35686
      89      444        5     0.00000    6.61608    8.05184    8.28732
      90      444        5     0.00000    9.88885    4.47744    3.17528
      91      444        4     0.00000    6.69139    6.57577    6.69176
      92      444        4     0.00000    9.94043    5.94500    1.56944
      93      444        5     0.00000   11.96054    6.17693    6.91975
      94      444        5     0.00000    8.95104    6.32683    1.80071
      95      444        4     0.00000    7.48025    6.06471    5.65205
      96      444        4     0.00000   10.71618    6.45777    0.52027
      97      444        4     0.00000   11.56540    1.24381    4.79419
      98      444        4     0.00000    8.30300   11.26755    9.92158
      99      444        4     0.00000    6.98827    4.94016    4.83586
     100      444        4     0.00000    9.98454    7.56629    9.95688
     101      444        6     0.00000    2.75214    0.10614    4.31312
     102      444        7     0.00000    1.48714   12.20774    3.95187
     103      444        7     0.00000    1.02377    0.47229    2.72804
     104      444        5     0.00000    1.51080   11.12352    3.70329
     105      444        5     0.00000    0.77949   12.38440    4.79201
     106      444        7     0.00000   12.13298    0.04204    2.28840
     107      444        5     0.00000    1.00930    1.55701    2.97148
     108      444        5     0.00000    1.73544    0.30496    1.89041
     109      444        5     0.00000   11.39967    0.21913    3.10390
     110      444        5     0.00000   11.82488    0.63122    1.39909
     111      444        5     0.00000   12.12756   11.48741    2.02020
     112      444        6     0.00000    3.74803   12.38264    1.78336
     113      444        7     0.00000    4.59551    0.26781    2.79503
     114      444        7     0.00000    5.89288   11.98836    2.72035
     115      444        5     0.00000    4.11196    0.09346    3.78176
     116      444        5     0.00000    4.82578    1.34981    2.67633
     117      444        7     0.00000    6.86540   12.40373    3.82036
     118      444        5     0.00000    6.37239   12.15337    1.73093
     119      444        5     0.00000    5.66357   10.90585    2.82863
     120      444        5     0.00000    7.12533    0.95575    3.72017
     121      444        5     0.00000    7.79636   11.80393    3.73988
     122      444        5     0.00000    6.41479   12.22861    4.82056
     123      444        6     0.00000    3.25268    6.16380    4.38036
     124      444        7     0.00000    4.50476    6.63132    4.03056
     125      444        7     0.00000    5.02056    5.84019    2.82998
     126      444        5     0.00000    4.44003    7.70862    3.76018
     127      444        5     0.00000    5.20528    6.50063    4.88497
     128      444        7     0.00000    6.40486    6.32015    2.40371
     129      444        5     0.00000    5.07622    4.76189    3.09508
     130      444        5     0.00000    4.31637    5.96141    1.97819
     131      444        5     0.00000    7.13143    6.18967    3.23388
     132      444        5     0.00000    6.75177    5.72749    1.53117
     133      444        5     0.00000    6.36975    7.39212    2.11429
     134      444        6     0.00000    2.44523    6.45991    1.80874
     135      444        7     0.00000    1.57986    6.04965    2.80446
     136      444        7     0.00000    0.29845    6.87785    2.73095
     137      444        5     0.00000    2.05632    6.19764    3.79891
     138      444        5     0.00000    1.33080    4.97439    2.66435
     139      444        7     0.00000   11.81264    6.46161    3.81362
     140      444        5     0.00000   12.33185    6.73917    1.73400
     141      444        5     0.00000    0.54667    7.95381    2.86065
     142      444        5     0.00000   11.53386    5.39315    3.69184
     143      444        5     0.00000   10.89385    7.08004    3.73440
     144      444        5     0.00000   12.25602    6.61073    4.82124
     145      444        6     0.00000    0.50473    0.10667    6.93428
     146      444        7     0.00000    1.34137   12.20792    7.94938
     147      444        7     0.00000    2.64879    0.47181    7.88479
     148      444        5     0.00000    1.55920   11.12360    7.82841
     149      444        5     0.00000    0.85428   12.38492    8.93390
     150      444        7     0.00000    3.60981    0.04115    8.98901
     151      444        5     0.00000    2.43200    1.55665    7.99530
     152      444        5     0.00000    3.13196    0.30414    6.89760
     153      444        5     0.00000    3.15558    0.21855    9.98718
     154      444        5     0.00000    4.54844    0.62984    8.91582
     155      444        5     0.00000    3.85726   11.48639    8.88683
     156      444        6     0.00000    5.75623   12.44854    9.45368
     157      444        7     0.00000    4.49655    0.36781    9.09885
     158      444        7     0.00000    4.01741   12.11683    7.87244
     159      444        5     0.00000    4.53572    1.45285    8.85592
     160      444        5     0.00000    3.78905    0.19733    9.94040
     161      444        7     0.00000    2.62623    0.04693    7.43971
     162      444        5     0.00000    3.98742   11.03116    8.11020
     163      444        5     0.00000    4.72881   12.27790    7.03334
     164      444        5     0.00000    1.89299   12.39994    8.25669
     165      444        5     0.00000    2.30644   11.99059    6.54833
     166      444        5     0.00000    2.63618    1.12634    7.17721
     167      444        6     0.00000    5.45364    6.04873    6.92642
     168      444        7     0.00000    4.57734    6.45655    7.91354
     169      444        7     0.00000    3.30564    5.61373    7.83783
     170      444        5     0.00000    4.31735    7.52797    7.76402
     171      444        5     0.00000    5.04893    6.32101    8.91207
     172      444        7     0.00000    2.30273    6.02669    8.91112
     173      444        5     0.00000    3.56485    4.54154    7.97686
     174      444        5     0.00000    2.83840    5.74005    6.83690
     175      444        5     0.00000    2.74121    5.88964    9.92260
     176      444        5     0.00000    1.39134    5.39759    8.83049
     177      444        5     0.00000    2.01300    7.09109    8.77988
     178      444        6     0.00000    0.01428    6.37852    9.53103
     179      444        7     0.00000    1.27420    5.92723    9.18813
     180      444        8     0.00000    1.78209    6.71800    7.98395
     181      444        5     0.00000    1.22619    4.84734    8.92467
     182      444        5     0.00000    1.97004    6.07379   10.04381
     183      444        9     0.00000    3.17463    6.25571    7.56508
     184      444        5     0.00000    1.82104    7.79871    8.24212
     185        1       10     0.00000    1.08244    6.58083    7.13084
     186        2       10     0.00000    3.89658    6.40231    8.39659
     187        3       10     0.00000    3.51553    6.84769    6.68972
     188        4       10     0.00000    3.15621    5.18147    7.28263

Bonds

       1        1        1        4
       2        1        1        6
       3        1        1        8
       4        1        1       10
       5        2        1       11
       6        2        1       13
       7        1        2        5
       8        1        2        7
       9        2        2       14
      10        1        2       49
      11        1        2       55
      12        2        2       58
      13        3        3       45
      14        1        3       48
      15        3        4       46
      16        3        5       43
      17        3        6       44
      18        3        7       99
      19        3        8       46
      20        1        9       48
      21        3        9       97
      22        3       10       44
      23        4       11       27
      24        4       11       31
      25        4       12       28
      26        4       12       32
      27        2       12       48
      28        4       13       23
      29        4       13       35
      30        4       14       24
      31        4       14       36
      32        5       15       17
      33        5       15       27
      34        6       15      101
      35        5       16       18
      36        5       16       28
      37        7       16       64
      38        5       17       19
      39        8       17       43
      40        5       18       20
      41        8       18       44
      42        5       19       31
      43        7       19       69
      44        5       20       32
      45        6       20      112
      46        5       21       23
      47        5       21       41
      48        6       21      123
      49        5       22       24
      50        5       22       42
      51        7       22       74
      52        7       23       25
      53        7       24       78
      54        7       26       76
      55        7       27       29
      56        7       28       82
      57        7       30       80
      58        7       31       33
      59        7       32       34
      60        7       35       37
      61        5       35       39
      62        7       36       38
      63        5       36       40
      64        5       39       41
      65        7       39       93
      66        5       40       42
      67        6       40      134
      68        8       41       45
      69        8       42       46
      70        3       43       55
      71        3       45       53
      72        1       47       50
      73        1       47       52
      74        1       47       54
      75        1       47       56
      76        2       47       57
      77        2       47       59
      78        1       48       51
      79        1       48       53
      80        2       48       60
      81        3       49       99
      82        3       50      100
      83        3       51       97
      84        3       52       98
      85        3       54      100
      86        3       56       98
      87        4       57       79
      88        4       57       83
      89        4       58       80
      90        4       58       84
      91        4       59       75
      92        4       59       87
      93        4       60       76
      94        4       60       88
      95        7       61       63
      96        5       61       65
      97        5       61       79
      98        5       62       66
      99        5       62       80
     100        6       62      156
     101        5       65       67
     102        8       65       97
     103        5       66       68
     104        8       66       98
     105        5       67       83
     106        6       67      145
     107        7       68       70
     108        5       68       84
     109        7       71       73
     110        5       71       75
     111        5       71       95
     112        5       72       76
     113        5       72       96
     114        6       72      178
     115        7       75       77
     116        7       79       81
     117        7       83       85
     118        7       84       86
     119        7       87       89
     120        5       87       91
     121        7       88       90
     122        5       88       92
     123        5       91       95
     124        6       91      167
     125        7       92       94
     126        5       92       96
     127        8       95       99
     128        8       96      100
     129        9      101      102
     130       10      102      103
     131       11      102      104
     132       11      102      105
     133       10      103      106
     134       11      103      107
     135       11      103      108
     136       11      106      109
     137       11      106      110
     138       11      106      111
     139        9      112      113
     140       10      113      114
     141       11      113      115
     142       11      113      116
     143       10      114      117
     144       11      114      118
     145       11      114      119
     146       11      117      120
     147       11      117      121
     148       11      117      122
     149        9      123      124
     150       10      124      125
     151       11      124      126
     152       11      124      127
     153       10      125      128
     154       11      125      129
     155       11      125      130
     156       11      128      131
     157       11      128      132
     158       11      128      133
     159        9      134      135
     160       10      135      136
     161       11      135      137
     162       11      135      138
     163       10      136      139
     164       11      136      140
     165       11      136      141
     166       11      139      142
     167       11      139      143
     168       11      139      144
     169        9      145      146
     170       10      146      147
     171       11      146      148
     172       11      146      149
     173       10      147      150
     174       11      147      151
     175       11      147      152
     176       11      150      153
     177       11      150      154
     178       11      150      155
     179        9      156      157
     180       10      157      158
     181       11      157      159
     182       11      157      160
     183       10      158      161
     184       11      158      162
     185       11      158      163
     186       11      161      164
     187       11      161      165
     188       11      161      166
     189        9      167      168
     190       10      168      169
     191       11      168      170
     192       11      168      171
     193       10      169      172
     194       11      169      173
     195       11      169      174
     196       11      172      175
     197       11      172      176
     198       11      172      177
     199        9      178      179
     200       12      179      180
     201       11      179      181
     202       11      179      182
     203       13      180      183
     204       14      180      184

Angles

       1        1        4        1        6
       2        1        4        1        8
       3        1        4        1       10
       4        2        4        1       11
       5        2        4        1       13
       6        1        6        1        8
       7        1        6        1       10
       8        2        6        1       11
       9        2        6        1       13
      10        1        8        1       10
      11        2        8        1       11
      12        2        8        1       13
      13        2       10        1       11
      14        2       10        1       13
      15        3       11        1       13
      16        2       14        2        5
      17        2       14        2        7
      18        2       14        2       49
      19        2       14        2       55
      20        3       14        2       58
      21        1        5        2        7
      22        1        5        2       49
      23        1        5        2       55
      24        2        5        2       58
      25        1        7        2       49
      26        1        7        2       55
      27        2        7        2       58
      28        1       49        2       55
      29        2       49        2       58
      30        2       55        2       58
      31        4       45        3       48
      32        4        1        4       46
      33        4        2        5       43
      34        4        1        6       44
      35        4        2        7       99
      36        4        1        8       46
      37        4       48        9       97
      38        4        1       10       44
      39        5        1       11       27
      40        5        1       11       31
      41        6       27       11       31
      42        6       28       12       32
      43        5       28       12       48
      44        5       32       12       48
      45        5        1       13       23
      46        5        1       13       35
      47        6       23       13       35
      48        5        2       14       24
      49        5        2       14       36
      50        6       24       14       36
      51        7       17       15       27
      52        8       17       15      101
      53        8       27       15      101
      54        7       18       16       28
      55        9       18       16       64
      56        9       28       16       64
      57        7       15       17       19
      58       10       15       17       43
      59       10       19       17       43
      60        7       16       18       20
      61       10       16       18       44
      62       10       20       18       44
      63        7       17       19       31
      64        9       17       19       69
      65        9       31       19       69
      66        7       18       20       32
      67        8       18       20      112
      68        8       32       20      112
      69        7       23       21       41
      70        8       23       21      123
      71        8       41       21      123
      72        7       24       22       42
      73        9       24       22       74
      74        9       42       22       74
      75       11       13       23       21
      76       12       13       23       25
      77        9       21       23       25
      78       11       14       24       22
      79       12       14       24       78
      80        9       22       24       78
      81       11       11       27       15
      82       12       11       27       29
      83        9       15       27       29
      84       11       12       28       16
      85       12       12       28       82
      86        9       16       28       82
      87       11       19       31       11