188
Atoms. Timestep: 0
Ni 2.89857 9.41116 8.59265
Ni 6.17525 3.10579 3.48481
O 1.44827 4.35425 3.93374
O 4.4416 8.15245 9.05464
O 4.63665 1.84729 3.87523
O 1.36499 10.6744 9.00295
O 5.80609 4.46033 4.96242
O 2.54244 8.0327 10.0675
O 0.25117 1.69264 4.94273
O 3.23722 10.8047 10.0626
N 3.69677 10.6606 7.2416
N 0.71256 1.8642 2.11704
N 2.17217 8.14409 7.25198
N 5.44023 4.39481 2.13747
C 3.48546 12.1483 5.36301
C 0.47488 0.38955 0.2292
C 4.76073 0.1474 5.61481
C 1.74333 12.3699 0.47412
C 5.50345 12.1502 6.68209
C 2.49852 0.35508 1.54004
C 2.48363 6.6337 5.40822
C 5.72803 5.90364 0.28669
C 2.92756 7.68099 6.23068
C 6.1883 4.86756 1.11596
H 3.89994 8.14655 6.0889
H 0.91589 4.41889 0.97634
C 2.98256 11.1359 6.19748
C -0.01036 1.40553 1.07106
H 1.99392 10.709 6.04703
H 5.26093 1.85011 0.92351
C 4.93641 11.1381 7.47507
C 1.94823 1.3719 2.3406
H 5.48559 10.7097 8.30944
H 2.50886 1.79214 3.17267
C 0.94573 7.62654 7.47302
C 4.21083 4.90458 2.35686
H 0.36328 8.05184 8.28732
H 3.63605 4.47744 3.17528
C 0.43859 6.57577 6.69176
C 3.68763 5.945 1.56944
C 1.22745 6.06471 5.65205
C 4.46338 6.45777 0.52027
C 5.3126 1.24381 4.79419
C 2.0502 11.2675 9.92158
C 0.73548 4.94016 4.83586
C 3.73174 7.56629 9.95688
Ni 9.15137 9.41116 8.59265
Ni 12.4281 3.10579 3.48481
O 7.70109 4.35425 3.93374
O 10.6944 8.15245 9.05464
O 10.8895 1.84729 3.87523
O 7.61779 10.6744 9.00295
O 12.0589 4.46033 4.96242
O 8.79524 8.0327 10.0675
O 6.50397 1.69264 4.94273
O 9.49002 10.8047 10.0626
N 9.94957 10.6606 7.2416
N 6.96536 1.8642 2.11704
N 8.42499 8.14409 7.25198
N 11.693 4.39481 2.13747
C 9.73826 12.1483 5.36301
C 6.72768 0.38955 0.2292
H 9.11733 12.5181 4.55267
H 12.1225 0.03371 9.69377
C 11.0135 0.1474 5.61481
C 7.99613 12.3699 0.47412
C 11.7562 12.1502 6.68209
C 8.75132 0.35508 1.54004
H 6.50047 12.5084 6.91993
H 9.74435 12.5067 1.77336
C 8.73644 6.6337 5.40822
C 11.9808 5.90364 0.28669
H 9.38574 6.27291 4.61605
H 6.14452 6.26667 9.7662
C 9.18036 7.68099 6.23068
C 12.4411 4.86756 1.11596
H 10.1527 8.14655 6.0889
H 7.16869 4.41889 0.97634
C 9.23536 11.1359 6.19748
C 6.24244 1.40553 1.07106
H 8.24672 10.709 6.04703
H 11.5137 1.85011 0.92351
C 11.1892 11.1381 7.47507
C 8.20102 1.3719 2.3406
H 11.7384 10.7097 8.30944
H 8.76167 1.79214 3.17267
C 7.19853 7.62654 7.47302
C 10.4636 4.90458 2.35686
H 6.61608 8.05184 8.28732
H 9.88885 4.47744 3.17528
C 6.69139 6.57577 6.69176
C 9.94043 5.945 1.56944
H 11.9605 6.17693 6.91975
H 8.95104 6.32683 1.80071
C 7.48025 6.06471 5.65205
C 10.7162 6.45777 0.52027
C 11.5654 1.24381 4.79419
C 8.303 11.2675 9.92158
C 6.98827 4.94016 4.83586
C 9.98454 7.56629 9.95688
O 2.75214 0.10614 4.31312
C 1.48714 12.2077 3.95187
C 1.02377 0.47229 2.72804
H 1.5108 11.1235 3.70329
H 0.77949 12.3844 4.79201
C 12.133 0.04204 2.2884
H 1.0093 1.55701 2.97148
H 1.73544 0.30496 1.89041
H 11.3997 0.21913 3.1039
H 11.8249 0.63122 1.39909
H 12.1276 11.4874 2.0202
O 3.74803 12.3826 1.78336
C 4.59551 0.26781 2.79503
C 5.89288 11.9884 2.72035
H 4.11196 0.09346 3.78176
H 4.82578 1.34981 2.67633
C 6.8654 12.4037 3.82036
H 6.37239 12.1534 1.73093
H 5.66357 10.9058 2.82863
H 7.12533 0.95575 3.72017
H 7.79636 11.8039 3.73988
H 6.41479 12.2286 4.82056
O 3.25268 6.1638 4.38036
C 4.50476 6.63132 4.03056
C 5.02056 5.84019 2.82998
H 4.44003 7.70862 3.76018
H 5.20528 6.50063 4.88497
C 6.40486 6.32015 2.40371
H 5.07622 4.76189 3.09508
H 4.31637 5.96141 1.97819
H 7.13143 6.18967 3.23388
H 6.75177 5.72749 1.53117
H 6.36975 7.39212 2.11429
O 2.44523 6.45991 1.80874
C 1.57986 6.04965 2.80446
C 0.29845 6.87785 2.73095
H 2.05632 6.19764 3.79891
H 1.3308 4.97439 2.66435
C 11.8126 6.46161 3.81362
H 12.3318 6.73917 1.734
H 0.54667 7.95381 2.86065
H 11.5339 5.39315 3.69184
H 10.8939 7.08004 3.7344
H 12.256 6.61073 4.82124
O 0.50473 0.10667 6.93428
C 1.34137 12.2079 7.94938
C 2.64879 0.47181 7.88479
H 1.5592 11.1236 7.82841
H 0.85428 12.3849 8.9339
C 3.60981 0.04115 8.98901
H 2.432 1.55665 7.9953
H 3.13196 0.30414 6.8976
H 3.15558 0.21855 9.98718
H 4.54844 0.62984 8.91582
H 3.85726 11.4864 8.88683
O 5.75623 12.4485 9.45368
C 4.49655 0.36781 9.09885
C 4.01741 12.1168 7.87244
H 4.53572 1.45285 8.85592
H 3.78905 0.19733 9.9404
C 2.62623 0.04693 7.43971
H 3.98742 11.0312 8.1102
H 4.72881 12.2779 7.03334
H 1.89299 12.3999 8.25669
H 2.30644 11.9906 6.54833
H 2.63618 1.12634 7.17721
O 5.45364 6.04873 6.92642
C 4.57734 6.45655 7.91354
C 3.30564 5.61373 7.83783
H 4.31735 7.52797 7.76402
H 5.04893 6.32101 8.91207
C 2.30273 6.02669 8.91112
H 3.56485 4.54154 7.97686
H 2.8384 5.74005 6.8369
H 2.74121 5.88964 9.9226
H 1.39134 5.39759 8.83049
H 2.013 7.09109 8.77988
O 0.01428 6.37852 9.53103
C 1.2742 5.92723 9.18813
C 1.78209 6.718 7.98395
H 1.22619 4.84734 8.92467
H 1.97004 6.07379 10.0438
C 3.17463 6.25571 7.56508
H 1.82104 7.79871 8.24212
H 1.08244 6.58083 7.13084
H 3.89658 6.40231 8.39659
H 3.51553 6.84769 6.68972
H 3.15621 5.18147 7.28263
188
Atoms. Timestep: 283
Ni 3.03814 9.0118 8.47496
Ni 6.29844 3.13068 3.71006
O 1.22331 4.08091 3.45233
O 4.06312 9.23653 10.0294
O 4.77674 2.06238 3.63257
O 1.48957 9.94689 9.08898
O 5.72481 4.31385 4.98224
O 2.70884 7.59277 9.49609
O 0.303531 1.89015 4.78514
O 3.38146 10.1844 10.006
N 3.66963 10.5537 7.34919
N 0.466571 1.64287 2.09201
N 2.23059 8.1124 6.9516
N 5.71882 4.45015 2.30233
C 3.18639 12.1199 5.4964
C 0.256585 12.0956 0.727712
C 4.60433 12.3989 5.25316
C 1.65429 11.8248 0.711013
C 5.44303 11.4506 5.88066
C 2.41713 0.163199 1.54375
C 2.55817 6.3176 5.38366
C 5.9841 6.61046 1.1069
C 2.93615 7.02533 6.54074
C 6.53394 5.43947 1.78849
H 3.93135 6.91176 6.8808
H 11.6724 3.17403 0.287706
C 2.78785 11.3488 6.68066
C 12.189 0.755328 1.38084
H 1.74633 11.1386 6.82369
H 6.61462 2.88376 0.672167
C 5.00627 10.6888 7.02539
C 1.82638 1.36507 2.12518
H 5.75748 10.2132 7.6337
H 2.45287 1.97564 2.7382
C 0.874229 8.06672 6.70071
C 4.36753 4.5754 2.06948
H 0.210139 8.74543 7.21219
H 3.70342 3.82029 2.44129
C 0.317914 7.03966 5.82616
C 3.78096 5.79723 1.59757
C 1.17309 6.1002 5.16414
C 4.58504 6.82198 1.02194
C 5.26889 1.29241 4.64028
C 2.08448 10.6302 10.0567
C 0.598262 4.8113 4.41678
C 3.89979 7.90499 0.0713662
Ni 9.25645 9.50002 8.91967
Ni 12.2544 2.99169 3.46206
O 7.75655 4.13402 4.10104
O 10.6075 8.30587 9.06346
O 10.8198 1.96816 3.81034
O 7.89583 10.69 9.12454
O 11.9025 4.24327 4.67262
O 8.67819 8.35808 10.1754
O 6.50391 1.82628 4.97909
O 9.82259 10.5959 10.2215
N 10.0708 10.7095 7.55247
N 7.26344 1.96117 2.42044
N 8.42839 8.33105 7.48583
N 11.3171 4.1662 2.12793
C 9.61327 -0.0562807 5.91268
C 7.8124 1.1175 0.205188
H 8.83508 0.653102 5.74457
H 11.8884 11.3786 10.5724
C 10.9558 0.387898 5.88908
C 8.4887 -0.00329023 0.722772
C 11.7587 12.4255 6.92027
C 8.81438 0.0831856 2.0863
H 6.47815 11.4381 5.61041
H 9.47138 11.8741 2.53765
C 8.51263 7.03764 5.36351
C 10.6436 5.18518 10.2249
H 8.92475 6.93144 4.3853
H 6.65484 7.36692 0.730389
C 8.98899 8.1214 6.23098
C 11.387 4.09467 0.760806
H 9.83718 8.70599 5.91712
H 7.60027 5.34773 1.88998
C 9.24593 11.2804 6.62286
C 7.21861 2.11212 1.07928
H 8.24266 10.9211 6.55468
H 11.1323 0.930427 1.30966
C 11.3183 11.2845 7.72729
C 8.2597 1.14088 2.88821
H 11.9682 10.8862 8.46772
H 8.5893 1.26914 3.8719
C 7.48052 7.41346 7.8609
C 10.4449 5.12161 2.63603
H 6.95227 7.56103 8.78167
H 10.0376 5.00908 3.62485
C 7.39414 6.1318 7.20418
C 10.0916 6.28536 1.89266
H 11.7564 6.99984 5.66216
H 9.55963 7.09569 2.36373
C 7.54142 6.09623 5.8315
C 10.4286 6.38589 0.552108
C 11.541 1.37398 4.78816
C 8.66496 11.2757 10.1007
C 7.00694 4.83891 4.97387
C 9.82532 7.67447 10.0026
O 2.26408 12.2104 4.4655
C 1.80892 10.8974 4.07964
C 0.350797 10.9249 3.60897
H 2.44546 10.4874 3.27307
H 1.8594 10.1239 4.86026
C 11.8718 10.1903 4.51008
H 12.5245 11.9601 3.53162
H 0.283753 10.4598 2.61612
H 12.1507 10.3222 5.55548
H 10.8412 10.5457 4.31289
H 11.8709 9.10916 4.35118
O 3.5505 12.1884 2.13454
C 4.64848 12.3375 1.29416
C 5.57758 11.1471 1.51096
H 5.1387 0.761159 1.54045
H 4.36919 12.3574 0.221489
C 6.28227 11.159 2.82693
H 6.2819 11.0319 0.670813
H 4.97379 10.241 1.59598
H 6.41861 12.159 3.19903
H 7.24717 10.6197 2.76253
H 5.62716 10.6628 3.54395
O 3.43802 6.36065 4.32149
C 3.74896 7.73227 4.03649
C 5.08189 8.15024 4.65394
H 3.72 7.9802 2.97469
H 2.96717 8.4277 4.37557
C 6.23574 8.16098 3.68653
H 4.94313 9.15855 5.02947
H 5.37327 7.52429 5.50665
H 7.05205 8.7892 4.08868
H 6.61469 7.14687 3.57198
H 5.93648 8.55881 2.70824
O 2.52906 6.1147 2.05686
C 1.55541 6.09637 1.06649
C 0.874819 7.46632 1.05414
H 0.843263 5.34973 1.37676
H 1.87766 5.75422 0.0624572
C 0.211394 7.77335 2.37127
H 0.192344 7.53564 0.198193
H 1.58441 8.2936 0.937102
H 12.3662 6.87376 2.88861
H 11.8587 8.45099 2.18974
H 0.9586 8.23919 3.04378
O 0.486566 0.493981 7.11465
C 0.6115 1.00107 8.41708
C 1.00366 2.46139 8.42936
H 12.1783 0.934839 9.00758
H 1.43721 0.435566 8.85345
C 1.84466 2.87899 9.62424
H 0.0742014 2.99874 8.58642
H 1.49248 2.75729 7.47604
H 2.60027 2.12043 9.90558
H 2.34109 3.81837 9.36216
H 1.44074 3.11629 0.218557
O 7.38692 1.20564 9.14935
C 6.04898 0.860973 8.95706
C 5.66799 1.40085 7.65617
H 5.35563 1.33747 9.67731
H 5.91672 12.2834 8.97204
C 4.15572 1.65133 7.57976
H 6.1693 0.753405 6.98903
H 6.25027 2.26621 7.39285
H 3.59444 0.815388 8.02928
H 3.79679 1.88562 6.58131
H 3.88872 2.54537 8.13456
O 7.89168 5.0384 7.85832
C 7.11492 4.74877 8.9656
C 5.71123 4.32813 8.54991
H 7.17181 5.56286 9.6842
H 7.62778 3.90937 9.46454
C 4.59398 5.2667 8.77366
H 5.47265 3.4508 9.14365
H 5.67875 4.16501 7.46079
H 3.80088 5.09848 8.03061
H 4.10991 4.97276 9.69114
H 4.95683 6.2962 8.75319
O 10.1779 4.90331 8.99328
C 10.9894 5.51943 8.04255
C 11.4136 4.46914 7.14274
H 11.9037 6.04565 8.42575
H 10.3865 6.23945 7.47001
C 10.5498 3.3481 6.87578
H -0.0380831 4.38815 6.93081
H 8.14741 2.80325 6.48325
H 5.03616 8.29009 7.99735
H 3.52995 4.04582 6.11288
H 2.60103 2.52107 4.87755
188
Atoms. Timestep: 301
Ni 3.03144 9.01194 8.47348
Ni 6.29783 3.12808 3.71478
O 1.2371 4.08148 3.44008
O 4.06172 9.23945 10.0276
O 4.77424 2.0624 3.63523
O 1.48432 9.94556 9.08957
O 5.72756 4.30787 4.99071
O 2.70671 7.59406 9.49645
O 0.317757 1.8913 4.77702
O 3.37998 10.1845 10.0023
N 3.65763 10.5527 7.348
N 0.477158 1.64486 2.08653
N 2.22131 8.10818 6.9495
N 5.71762 4.45513 2.31256
C 3.17772 12.1144 5.4905
C 0.258071 12.0993 0.725233
C 4.59769 12.3956 5.25228
C 1.65539 11.8218 0.711938
C 5.43454 11.454 5.88945
C 2.42097 0.159245 1.54322
C 2.55957 6.3224 5.37292
C 5.98371 6.61652 1.1172
C 2.92872 7.02349 6.53618
C 6.53259 5.44607 1.80146
H 3.91759 6.90316 6.88592
H 11.6858 3.17169 0.276735
C 2.77663 11.3472 6.6767
C 12.1957 0.758698 1.37999
H 1.73544 11.1418 6.82381
H 6.58489 2.87138 0.673778
C 4.99403 10.6917 7.03229
C 1.83623 1.36683 2.11453
H 5.74021 10.2094 7.63937
H 2.4688 1.98892 2.71016
C 0.865744 8.06152 6.69246
C 4.36507 4.58615 2.08935
H 0.196728 8.72792 7.21404
H 3.70135 3.84451 2.48538
C 0.316545 7.0408 5.80402
C 3.77933 5.80413 1.6034
C 1.17743 6.1057 5.14338
C 4.58425 6.82587 1.02466
C 5.26671 1.28786 4.63912
C 2.08225 10.6298 10.0551
C 0.610359 4.81081 4.40456
C 3.89951 7.90687 0.0700277
Ni 9.25097 9.50285 8.91234
Ni 12.2686 2.99247 3.45192
O 7.75815 4.12735 4.10671
O 10.6023 8.30756 9.05424
O 10.8353 1.97016 3.80037
O 7.89032 10.6915 9.11828
O 11.9159 4.24329 4.65967
O 8.67548 8.35749 10.1693
O 6.50353 1.81933 4.97792
O 9.81759 10.5993 10.2156
N 10.0673 10.7176 7.54443
N 7.25855 1.96113 2.41933
N 8.42187 8.33466 7.47991
N 11.3298 4.16481 2.11624
C 9.62027 12.4762 5.9001
C 7.79801 1.1154 0.204443
H 8.84434 0.661685 5.72259
H 12.115 11.4077 0.260588
C 10.9632 0.39444 5.8817
C 8.47758 12.5188 0.719322
C 11.7597 12.4366 6.92082
C 8.8139 0.0864769 2.07889
H 6.46844 11.4356 5.61618
H 9.48254 11.8844 2.52554
C 8.5184 7.02798 5.36754
C 10.6536 5.18253 10.2127
H 8.93657 6.91466 4.39109
H 6.65485 7.36801 0.733522
C 8.98238 8.12237 6.22586
C 11.4005 4.09316 0.748891
H 9.82158 8.71604 5.90433
H 7.59854 5.35362 1.90255
C 9.24362 11.2944 6.61503
C 7.20277 2.10726 1.0799
H 8.23698 10.9482 6.5529
H 11.1424 0.949232 1.29264
C 11.316 11.2915 7.72136
C 8.2619 1.1447 2.8826
H 11.9722 10.8761 8.44595
H 8.60717 1.2871 3.85744
C 7.47794 7.41391 7.86075
C 10.4497 5.11308 2.62267
H 6.95431 7.56053 8.78594
H 10.0431 4.99712 3.61157
C 7.39423 6.13098 7.20844
C 10.088 6.27448 1.87942
H 11.7561 6.99689 5.63286
H 9.54173 7.07618 2.34879
C 7.54444 6.08978 5.83603
C 10.4293 6.3809 0.540399
C 11.5545 1.37648 4.77964
C 8.65889 11.2785 10.0935
C 7.01069 4.83021 4.98251
C 9.82165 7.67186 9.99189
O 2.25783 12.1982 4.4555
C 1.79703 10.8839 4.07951
C 0.335945 10.9111 3.61197
H 2.4298 10.4694 3.27273
H 1.8491 10.1151 4.86464
C 11.8562 10.1809 4.51838
H 0.00568119 11.9462 3.52537
H 0.264794 10.4471 2.61902
H 12.1476 10.3029 5.56258
H 10.8296 10.5545 4.33672
H 11.829 9.10048 4.34812
O 3.54629 12.179 2.14425
C 4.65356 12.3194 1.31445
C 5.56797 11.1198 1.54075
H 5.15079 0.736991 1.56437
H 4.38573 12.3442 0.240741
C 6.29299 11.1489 2.84752
H 6.26281 10.9815 0.693542
H 4.94356 10.2245 1.64239
H 6.42604 12.1528 3.21247
H 7.26332 10.6198 2.7745
H 5.65194 10.6512 3.57551
O 3.44577 6.3688 4.31723
C 3.76271 7.73982 4.04032
C 5.09147 8.14396 4.67329
H 3.74614 7.99208 2.97927
H 2.98046 8.43665 4.37811
C 6.25638 8.16874 3.71803
H 4.94959 9.14414 5.06887
H 5.37311 7.50014 5.51494
H 7.06092 8.80313 4.14002
H 6.64099 7.15835 3.58899
H 5.96987 8.56804 2.73758
O 2.52716 6.12682 2.05821
C 1.55536 6.10441 1.06689
C 0.868957 7.47148 1.05581
H 0.847126 5.35343 1.37353
H 1.88015 5.76362 0.0635095
C 0.195952 7.76979 2.37011
H 0.189323 7.5374 0.197447
H 1.57686 8.30122 0.942469
H 12.3563 6.86614 2.88319
H 11.8371 8.43985 2.18704
H 0.93587 8.23775 3.04837
O 0.486844 0.505661 7.12011
C 0.615972 1.01077 8.42353
C 1.01643 2.47063 8.4384
H 12.1829 0.947187 9.01334
H 1.44087 0.442302 8.85761
C 1.85879 2.88593 9.63659
H 0.0911257 3.01858 8.58593
H 1.51349 2.75914 7.48769
H 2.62448 2.13598 9.91027
H 2.34867 3.82803 9.37404
H 1.45862 3.11901 0.234375
O 7.37635 1.20809 9.15086
C 6.04001 0.862567 8.95468
C 5.66872 1.40238 7.65143
H 5.34144 1.33797 9.67094
H 5.90729 12.2853 8.97362
C 4.15693 1.65159 7.56524
H 6.1811 0.754638 6.98996
H 6.24869 2.27038 7.39108
H 3.59568 0.815309 8.01295
H 3.80538 1.88843 6.56512
H 3.88472 2.54392 8.11935
O 7.8945 5.04203 7.86684
C 7.11123 4.73853 8.96624
C 5.70736 4.32977 8.54142
H 7.17284 5.54035 9.69951
H 7.61499 3.88207 9.44671
C 4.59184 5.2691 8.77366
H 5.46672 3.45095 9.13042
H 5.67791 4.17286 7.45202
H 3.79269 5.09518 8.03734
H 4.1168 4.97847 9.69581
H 4.95308 6.29854 8.75275
O 10.1872 4.89677 8.98238
C 10.9857 5.52848 8.03016
C 11.4268 4.48551 7.13151
H 11.8915 6.06933 8.41064
H 10.3688 6.23964 7.46145
C 10.5681 3.36451 6.84808
H -0.0227428 4.40969 6.92898
H 8.15789 2.79025 6.51524
H 5.04022 8.28016 7.97028
H 3.51112 4.05574 6.12632
H 2.6127 2.52568 4.87032
188
Atoms. Timestep: 309
Ni 3.03237 9.01069 8.47376
Ni 6.29632 3.12849 3.71472
O 1.23485 4.0834 3.43982
O 4.06165 9.2389 10.0269
O 4.77181 2.06284 3.63581
O 1.48491 9.94416 9.09022
O 5.72736 4.30776 4.99221
O 2.70837 7.59257 9.49651
O 0.317123 1.8931 4.77823
O 3.38066 10.1837 10.0023
N 3.65783 10.5521 7.34789
N 0.475984 1.64395 2.08715
N 2.22205 8.10733 6.95071
N 5.71719 4.45598 2.31322
C 3.17724 12.1146 5.49089
C 0.258442 12.1003 0.721625
C 4.59728 12.3957 5.2529
C 1.65567 11.8225 0.70979
C 5.43422 11.4534 5.88952
C 2.421 0.158931 1.54284
C 2.55914 6.32209 5.37453
C 5.98454 6.61708 1.11786
C 2.9287 7.02194 6.53788
C 6.53325 5.44553 1.80104
H 3.91887 6.90308 6.88561
H 11.689 3.17361 0.275558
C 2.77596 11.3457 6.67543
C 12.1951 0.760251 1.37627
H 1.73457 11.1391 6.81931
H 6.58258 2.87154 0.673849
C 4.9942 10.6932 7.0327
C 1.83553 1.36605 2.11599
H 5.743 10.2169 7.64242
H 2.46731 1.98832 2.71183
C 0.86634 8.06246 6.69262
C 4.36508 4.58685 2.0896
H 0.197686 8.72809 7.21432
H 3.70061 3.84719 2.48867
C 0.316621 7.04318 5.80463
C 3.78037 5.80581 1.60461
C 1.17688 6.10699 5.14427
C 4.58534 6.82671 1.02577
C 5.26579 1.28772 4.63867
C 2.08338 10.6297 10.0546
C 0.608669 4.81345 4.40354
C 3.90092 7.9062 0.0695033
Ni 9.25246 9.5033 8.91269
Ni 12.2669 2.99309 3.45231
O 7.75735 4.12657 4.10666
O 10.6052 8.30815 9.05479
O 10.8338 1.97084 3.80241
O 7.89065 10.691 9.11939
O 11.914 4.24529 4.65963
O 8.67787 8.35796 10.1694
O 6.50246 1.81904 4.9772
O 9.81835 10.6001 10.2158
N 10.0681 10.7181 7.54424
N 7.2561 1.96136 2.41959
N 8.42316 8.33406 7.48086
N 11.3284 4.16367 2.11575
C 9.62078 12.477 5.9
C 7.79584 1.11434 0.2044
H 8.84625 0.662534 5.72047
H 12.1158 11.4043 0.261175
C 10.9637 0.395257 5.88246
C 8.4778 12.5193 0.720186
C 11.7599 12.4368 6.92039
C 8.81293 0.0879364 2.08004
H 6.46886 11.4365 5.61912
H 9.4836 11.8885 2.52648
C 8.52114 7.02651 5.36854
C 10.6547 5.18403 10.2121
H 8.93978 6.91306 4.39341
H 6.65605 7.36937 0.73555
C 8.98419 8.12256 6.22686
C 11.4018 4.09388 0.748236
H 9.82223 8.71775 5.90654
H 7.59947 5.35392 1.90418
C 9.24391 11.2953 6.6161
C 7.19944 2.10686 1.07955
H 8.23718 10.9482 6.55405
H 11.1406 0.947906 1.29308
C 11.3173 11.2907 7.72016
C 8.25923 1.14597 2.88286
H 11.9733 10.8756 8.44494
H 8.6052 1.29062 3.85767
C 7.47904 7.41337 7.86137
C 10.4484 5.11109 2.62257
H 6.9527 7.56058 8.78386
H 10.0416 4.99356 3.61083
C 7.39601 6.1298 7.20948
C 10.087 6.27306 1.88031
H 11.7556 6.99997 5.63621
H 9.53805 7.07281 2.35015
C 7.54631 6.08856 5.83738
C 10.4301 6.38153 0.541411
C 11.554 1.37675 4.78014
C 8.65809 11.2774 10.0956
C 7.01082 4.82932 4.98364
C 9.82444 7.67333 9.99361
O 2.25715 12.1992 4.45577
C 1.79531 10.8854 4.07787
C 0.334245 10.9133 3.61035
H 2.42728 10.4686 3.27084
H 1.84681 10.1157 4.86215
C 11.8547 10.1828 4.51781
H 0.00278012 11.9487 3.5249
H 0.263161 10.4492 2.6166
H 12.1457 10.3025 5.56275
H 10.8284 10.5561 4.33519
H 11.8259 9.10261 4.3463
O 3.54655 12.1782 2.14355
C 4.65398 12.3168 1.31411
C 5.56682 11.1156 1.54026
H 5.1506 0.735175 1.56424
H 4.38549 12.3413 0.240085
C 6.29588 11.1473 2.84498
H 6.26211 10.9769 0.694335
H 4.94449 10.2178 1.64155
H 6.43002 12.15 3.21115
H 7.26416 10.6154 2.77101
H 5.65783 10.6533 3.57578
O 3.44611 6.36758 4.31924
C 3.7657 7.73911 4.04336
C 5.09525 8.14115 4.67552
H 3.74947 7.99181 2.98272
H 2.9836 8.43569 4.3793
C 6.25903 8.16666 3.71828
H 4.95648 9.14185 5.07026
H 5.37521 7.49258 5.51458
H 7.06633 8.79893 4.13617
H 6.64359 7.15615 3.59089
H 5.96981 8.56526 2.73846
O 2.52833 6.12925 2.05971
C 1.55589 6.10567 1.0676
C 0.869327 7.47177 1.05505
H 0.846605 5.35612 1.37455
H 1.87935 5.76371 0.0641491
C 0.194588 7.77021 2.36926
H 0.190207 7.53559 0.195864
H 1.57796 8.30144 0.943154
H 12.3544 6.86644 2.88212
H 11.8368 8.441 2.18608
H 0.933673 8.2375 3.04892
O 0.487318 0.505622 7.11931
C 0.613866 1.01291 8.4223
C 1.01659 2.47163 8.43692
H 12.179 0.951116 9.01017
H 1.44001 0.445117 8.85584
C 1.85924 2.88602 9.63412
H 0.0924102 3.02278 8.58422
H 1.51282 2.75902 7.48471
H 2.6244 2.13509 9.91193
H 2.35074 3.82707 9.37204
H 1.45715 3.11664 0.231627
O 7.37402 1.20543 9.15032
C 6.03698 0.861771 8.95424
C 5.66582 1.40177 7.65085
H 5.33862 1.33547 9.67264
H 5.90497 12.2849 8.96927
C 4.15416 1.65156 7.56518
H 6.17835 0.755009 6.98815
H 6.24622 2.26913 7.38829
H 3.59027 0.81564 8.01048
H 3.80485 1.88915 6.56517
H 3.88074 2.54487 8.11722
O 7.8945 5.04068 7.86791
C 7.11001 4.74056 8.96755
C 5.70612 4.32945 8.5435
H 7.17226 5.54529 9.69772
H 7.61204 3.88532 9.45037
C 4.59282 5.26873 8.77557
H 5.4621 3.44916 9.13029
H 5.67826 4.17248 7.45396
H 3.79291 5.09586 8.04038
H 4.12144 4.97882 9.70055
H 4.95652 6.29816 8.75509
O 10.188 4.89963 8.98045
C 10.9867 5.53018 8.02811
C 11.4266 4.48694 7.12919
H 11.8937 6.06897 8.40782
H 10.3709 6.23918 7.45408
C 10.57 3.36375 6.85056
H -0.0216197 4.41258 6.92887
H 8.15847 2.78658 6.51731
H 5.0432 8.27996 7.97514
H 3.50953 4.05744 6.12742
H 2.61172 2.52665 4.86406
188
Atoms. Timestep: 310
Ni 3.03237 9.01069 8.47376
Ni 6.29632 3.12849 3.71472
O 1.23485 4.0834 3.43982
O 4.06165 9.2389 10.0269
O 4.77181 2.06284 3.63581
O 1.48491 9.94416 9.09022
O 5.72736 4.30776 4.99221
O 2.70837 7.59257 9.49651
O 0.317123 1.8931 4.77823
O 3.38066 10.1837 10.0023
N 3.65783 10.5521 7.34789
N 0.475984 1.64395 2.08715
N 2.22205 8.10733 6.95071
N 5.71719 4.45598 2.31322
C 3.17724 12.1146 5.49089
C 0.258442 12.1003 0.721625
C 4.59728 12.3957 5.2529
C 1.65567 11.8225 0.70979
C 5.43422 11.4534 5.88952
C 2.421 0.158931 1.54284
C 2.55914 6.32209 5.37453
C 5.98454 6.61708 1.11786
C 2.9287 7.02194 6.53788
C 6.53325 5.44553 1.80104
H 3.91887 6.90308 6.88561
H 11.689 3.17361 0.275558
C 2.77596 11.3457 6.67543
C 12.1951 0.760251 1.37627
H 1.73457 11.1391 6.81931
H 6.58258 2.87154 0.673849
C 4.9942 10.6932 7.0327
C 1.83553 1.36605 2.11599
H 5.743 10.2169 7.64242
H 2.46731 1.98832 2.71183
C 0.86634 8.06246 6.69262
C 4.36508 4.58685 2.0896
H 0.197686 8.72809 7.21432
H 3.70061 3.84719 2.48867
C 0.316621 7.04318 5.80463
C 3.78037 5.80581 1.60461
C 1.17688 6.10699 5.14427
C 4.58534 6.82671 1.02577
C 5.26579 1.28772 4.63867
C 2.08338 10.6297 10.0546
C 0.608669 4.81345 4.40354
C 3.90092 7.9062 0.0695033
Ni 9.25246 9.5033 8.91269
Ni 12.2669 2.99309 3.45231
O 7.75735 4.12657 4.10666
O 10.6052 8.30815 9.05479
O 10.8338 1.97084 3.80241
O 7.89065 10.691 9.11939
O 11.914 4.24529 4.65963
O 8.67787 8.35796 10.1694
O 6.50246 1.81904 4.9772
O 9.81835 10.6001 10.2158
N 10.0681 10.7181 7.54424
N 7.2561 1.96136 2.41959
N 8.42316 8.33406 7.48086
N 11.3284 4.16367 2.11575
C 9.62078 12.477 5.9
C 7.79584 1.11434 0.2044
H 8.84625 0.662534 5.72047
H 12.1158 11.4043 0.261175
C 10.9637 0.395257 5.88246
C 8.4778 12.5193 0.720186
C 11.7599 12.4368 6.92039
C 8.81293 0.0879364 2.08004
H 6.46886 11.4365 5.61912
H 9.4836 11.8885 2.52648
C 8.52114 7.02651 5.36854
C 10.6547 5.18403 10.2121
H 8.93978 6.91306 4.39341
H 6.65605 7.36937 0.73555
C 8.98419 8.12256 6.22686
C 11.4018 4.09388 0.748236
H 9.82223 8.71775 5.90654
H 7.59947 5.35392 1.90418
C 9.24391 11.2953 6.6161
C 7.19944 2.10686 1.07955
H 8.23718 10.9482 6.55405
H 11.1406 0.947906 1.29308
C 11.3173 11.2907 7.72016
C 8.25923 1.14597 2.88286
H 11.9733 10.8756 8.44494
H 8.6052 1.29062 3.85767
C 7.47904 7.41337 7.86137
C 10.4484 5.11109 2.62257
H 6.9527 7.56058 8.78386
H 10.0416 4.99356 3.61083
C 7.39601 6.1298 7.20948
C 10.087 6.27306 1.88031
H 11.7556 6.99997 5.63621
H 9.53805 7.07281 2.35015
C 7.54631 6.08856 5.83738
C 10.4301 6.38153 0.541411
C 11.554 1.37675 4.78014
C 8.65809 11.2774 10.0956
C 7.01082 4.82932 4.98364
C 9.82444 7.67333 9.99361
O 2.25715 12.1992 4.45577
C 1.79531 10.8854 4.07787
C 0.334245 10.9133 3.61035
H 2.42728 10.4686 3.27084
H 1.84681 10.1157 4.86215
C 11.8547 10.1828 4.51781
H 0.00278012 11.9487 3.5249
H 0.263161 10.4492 2.6166
H 12.1457 10.3025 5.56275
H 10.8284 10.5561 4.33519
H 11.8259 9.10261 4.3463
O 3.54655 12.1782 2.14355
C 4.65398 12.3168 1.31411
C 5.56682 11.1156 1.54026
H 5.1506 0.735175 1.56424
H 4.38549 12.3413 0.240085
C 6.29588 11.1473 2.84498
H 6.26211 10.9769 0.694335
H 4.94449 10.2178 1.64155
H 6.43002 12.15 3.21115
H 7.26416 10.6154 2.77101
H 5.65783 10.6533 3.57578
O 3.44611 6.36758 4.31924
C 3.7657 7.73911 4.04336
C 5.09525 8.14115 4.67552
H 3.74947 7.99181 2.98272
H 2.9836 8.43569 4.3793
C 6.25903 8.16666 3.71828
H 4.95648 9.14185 5.07026
H 5.37521 7.49258 5.51458
H 7.06633 8.79893 4.13617
H 6.64359 7.15615 3.59089
H 5.96981 8.56526 2.73846
O 2.52833 6.12925 2.05971
C 1.55589 6.10567 1.0676
C 0.869327 7.47177 1.05505
H 0.846605 5.35612 1.37455
H 1.87935 5.76371 0.0641491
C 0.194588 7.77021 2.36926
H 0.190207 7.53559 0.195864
H 1.57796 8.30144 0.943154
H 12.3544 6.86644 2.88212
H 11.8368 8.441 2.18608
H 0.933673 8.2375 3.04892
O 0.487318 0.505622 7.11931
C 0.613866 1.01291 8.4223
C 1.01659 2.47163 8.43692
H 12.179 0.951116 9.01017
H 1.44001 0.445117 8.85584
C 1.85924 2.88602 9.63412
H 0.0924102 3.02278 8.58422
H 1.51282 2.75902 7.48471
H 2.6244 2.13509 9.91193
H 2.35074 3.82707 9.37204
H 1.45715 3.11664 0.231627
O 7.37402 1.20543 9.15032
C 6.03698 0.861771 8.95424
C 5.66582 1.40177 7.65085
H 5.33862 1.33547 9.67264
H 5.90497 12.2849 8.96927
C 4.15416 1.65156 7.56518
H 6.17835 0.755009 6.98815
H 6.24622 2.26913 7.38829
H 3.59027 0.81564 8.01048
H 3.80485 1.88915 6.56517
H 3.88074 2.54487 8.11722
O 7.8945 5.04068 7.86791
C 7.11001 4.74056 8.96755
C 5.70612 4.32945 8.5435
H 7.17226 5.54529 9.69772
H 7.61204 3.88532 9.45037
C 4.59282 5.26873 8.77557
H 5.4621 3.44916 9.13029
H 5.67826 4.17248 7.45396
H 3.79291 5.09586 8.04038
H 4.12144 4.97882 9.70055
H 4.95652 6.29816 8.75509
O 10.188 4.89963 8.98045
C 10.9867 5.53018 8.02811
C 11.4266 4.48694 7.12919
H 11.8937 6.06897 8.40782
H 10.3709 6.23918 7.45408
C 10.57 3.36375 6.85056
H -0.0216197 4.41258 6.92887
H 8.15847 2.78658 6.51731
H 5.0432 8.27996 7.97514
H 3.50953 4.05744 6.12742
H 2.61172 2.52665 4.86406
