188
Atoms. Timestep: 0
Ni 2.89857 9.41116 8.59265
Ni 6.17525 3.10579 3.48481
O 1.44827 4.35425 3.93374
O 4.4416 8.15245 9.05464
O 4.63665 1.84729 3.87523
O 1.36499 10.6744 9.00295
O 5.80609 4.46033 4.96242
O 2.54244 8.0327 10.0675
O 0.25117 1.69264 4.94273
O 3.23722 10.8047 10.0626
N 3.69677 10.6606 7.2416
N 0.71256 1.8642 2.11704
N 2.17217 8.14409 7.25198
N 5.44023 4.39481 2.13747
C 3.48546 12.1483 5.36301
C 0.47488 0.38955 0.2292
C 4.76073 0.1474 5.61481
C 1.74333 12.3699 0.47412
C 5.50345 12.1502 6.68209
C 2.49852 0.35508 1.54004
C 2.48363 6.6337 5.40822
C 5.72803 5.90364 0.28669
C 2.92756 7.68099 6.23068
C 6.1883 4.86756 1.11596
H 3.89994 8.14655 6.0889
H 0.91589 4.41889 0.97634
C 2.98256 11.1359 6.19748
C -0.01036 1.40553 1.07106
H 1.99392 10.709 6.04703
H 5.26093 1.85011 0.92351
C 4.93641 11.1381 7.47507
C 1.94823 1.3719 2.3406
H 5.48559 10.7097 8.30944
H 2.50886 1.79214 3.17267
C 0.94573 7.62654 7.47302
C 4.21083 4.90458 2.35686
H 0.36328 8.05184 8.28732
H 3.63605 4.47744 3.17528
C 0.43859 6.57577 6.69176
C 3.68763 5.945 1.56944
C 1.22745 6.06471 5.65205
C 4.46338 6.45777 0.52027
C 5.3126 1.24381 4.79419
C 2.0502 11.2675 9.92158
C 0.73548 4.94016 4.83586
C 3.73174 7.56629 9.95688
Ni 9.15137 9.41116 8.59265
Ni 12.4281 3.10579 3.48481
O 7.70109 4.35425 3.93374
O 10.6944 8.15245 9.05464
O 10.8895 1.84729 3.87523
O 7.61779 10.6744 9.00295
O 12.0589 4.46033 4.96242
O 8.79524 8.0327 10.0675
O 6.50397 1.69264 4.94273
O 9.49002 10.8047 10.0626
N 9.94957 10.6606 7.2416
N 6.96536 1.8642 2.11704
N 8.42499 8.14409 7.25198
N 11.693 4.39481 2.13747
C 9.73826 12.1483 5.36301
C 6.72768 0.38955 0.2292
H 9.11733 12.5181 4.55267
H 12.1225 0.03371 9.69377
C 11.0135 0.1474 5.61481
C 7.99613 12.3699 0.47412
C 11.7562 12.1502 6.68209
C 8.75132 0.35508 1.54004
H 6.50047 12.5084 6.91993
H 9.74435 12.5067 1.77336
C 8.73644 6.6337 5.40822
C 11.9808 5.90364 0.28669
H 9.38574 6.27291 4.61605
H 6.14452 6.26667 9.7662
C 9.18036 7.68099 6.23068
C 12.4411 4.86756 1.11596
H 10.1527 8.14655 6.0889
H 7.16869 4.41889 0.97634
C 9.23536 11.1359 6.19748
C 6.24244 1.40553 1.07106
H 8.24672 10.709 6.04703
H 11.5137 1.85011 0.92351
C 11.1892 11.1381 7.47507
C 8.20102 1.3719 2.3406
H 11.7384 10.7097 8.30944
H 8.76167 1.79214 3.17267
C 7.19853 7.62654 7.47302
C 10.4636 4.90458 2.35686
H 6.61608 8.05184 8.28732
H 9.88885 4.47744 3.17528
C 6.69139 6.57577 6.69176
C 9.94043 5.945 1.56944
H 11.9605 6.17693 6.91975
H 8.95104 6.32683 1.80071
C 7.48025 6.06471 5.65205
C 10.7162 6.45777 0.52027
C 11.5654 1.24381 4.79419
C 8.303 11.2675 9.92158
C 6.98827 4.94016 4.83586
C 9.98454 7.56629 9.95688
O 2.75214 0.10614 4.31312
C 1.48714 12.2077 3.95187
C 1.02377 0.47229 2.72804
H 1.5108 11.1235 3.70329
H 0.77949 12.3844 4.79201
C 12.133 0.04204 2.2884
H 1.0093 1.55701 2.97148
H 1.73544 0.30496 1.89041
H 11.3997 0.21913 3.1039
H 11.8249 0.63122 1.39909
H 12.1276 11.4874 2.0202
O 3.74803 12.3826 1.78336
C 4.59551 0.26781 2.79503
C 5.89288 11.9884 2.72035
H 4.11196 0.09346 3.78176
H 4.82578 1.34981 2.67633
C 6.8654 12.4037 3.82036
H 6.37239 12.1534 1.73093
H 5.66357 10.9058 2.82863
H 7.12533 0.95575 3.72017
H 7.79636 11.8039 3.73988
H 6.41479 12.2286 4.82056
O 3.25268 6.1638 4.38036
C 4.50476 6.63132 4.03056
C 5.02056 5.84019 2.82998
H 4.44003 7.70862 3.76018
H 5.20528 6.50063 4.88497
C 6.40486 6.32015 2.40371
H 5.07622 4.76189 3.09508
H 4.31637 5.96141 1.97819
H 7.13143 6.18967 3.23388
H 6.75177 5.72749 1.53117
H 6.36975 7.39212 2.11429
O 2.44523 6.45991 1.80874
C 1.57986 6.04965 2.80446
C 0.29845 6.87785 2.73095
H 2.05632 6.19764 3.79891
H 1.3308 4.97439 2.66435
C 11.8126 6.46161 3.81362
H 12.3318 6.73917 1.734
H 0.54667 7.95381 2.86065
H 11.5339 5.39315 3.69184
H 10.8939 7.08004 3.7344
H 12.256 6.61073 4.82124
O 0.50473 0.10667 6.93428
C 1.34137 12.2079 7.94938
C 2.64879 0.47181 7.88479
H 1.5592 11.1236 7.82841
H 0.85428 12.3849 8.9339
C 3.60981 0.04115 8.98901
H 2.432 1.55665 7.9953
H 3.13196 0.30414 6.8976
H 3.15558 0.21855 9.98718
H 4.54844 0.62984 8.91582
H 3.85726 11.4864 8.88683
O 5.75623 12.4485 9.45368
C 4.49655 0.36781 9.09885
C 4.01741 12.1168 7.87244
H 4.53572 1.45285 8.85592
H 3.78905 0.19733 9.9404
C 2.62623 0.04693 7.43971
H 3.98742 11.0312 8.1102
H 4.72881 12.2779 7.03334
H 1.89299 12.3999 8.25669
H 2.30644 11.9906 6.54833
H 2.63618 1.12634 7.17721
O 5.45364 6.04873 6.92642
C 4.57734 6.45655 7.91354
C 3.30564 5.61373 7.83783
H 4.31735 7.52797 7.76402
H 5.04893 6.32101 8.91207
C 2.30273 6.02669 8.91112
H 3.56485 4.54154 7.97686
H 2.8384 5.74005 6.8369
H 2.74121 5.88964 9.9226
H 1.39134 5.39759 8.83049
H 2.013 7.09109 8.77988
O 0.01428 6.37852 9.53103
C 1.2742 5.92723 9.18813
C 1.78209 6.718 7.98395
H 1.22619 4.84734 8.92467
H 1.97004 6.07379 10.0438
C 3.17463 6.25571 7.56508
H 1.82104 7.79871 8.24212
H 1.08244 6.58083 7.13084
H 3.89658 6.40231 8.39659
H 3.51553 6.84769 6.68972
H 3.15621 5.18147 7.28263
188
Atoms. Timestep: 1044
Ni 2.42308 9.15879 9.04723
Ni 6.27015 3.23999 3.71615
O 0.455073 4.52616 3.84767
O 3.96747 8.23479 9.26399
O 4.741 2.28371 3.68793
O 0.883675 10.1106 9.15537
O 5.7697 4.40244 4.99168
O 2.35382 8.09002 -0.132572
O -0.518998 2.31982 4.96862
O 2.7904 10.4382 10.1734
N 3.11721 10.2445 7.55813
N -0.266324 2.28273 2.3248
N 1.67934 7.83956 7.82528
N 5.62683 4.55425 2.31639
C 2.96769 11.7384 5.61282
C -0.367769 11.8243 0.628568
C 4.41233 11.7447 5.47024
C 1.04026 11.8072 0.49807
C 5.09021 10.8037 6.23903
C 1.77287 1.36933 1.34295
C 1.90968 6.44215 5.87184
C 5.74126 6.66441 1.02112
C 2.44882 7.05268 7.04174
C 6.36813 5.63112 1.84025
H 3.48716 7.17752 7.09819
H 12.615 3.50507 0.61995
C 2.36278 11.0521 6.7477
C 13.0405 1.34532 1.61463
H 1.29989 10.9509 6.7809
H 7.96268 3.60513 1.26395
C 4.47872 10.237 7.37432
C 1.09663 2.3027 2.15811
H 5.11981 9.89478 8.16272
H 1.69418 2.87533 2.8379
C 0.311441 7.74831 7.6937
C 4.2423 4.62788 2.15403
H -0.331902 8.3097 8.35442
H 3.61614 4.00543 2.75646
C -0.291083 6.862 6.75932
C 3.58811 5.6956 1.45466
C 0.492803 6.19713 5.80424
C 4.34537 6.61038 0.707338
C 5.22935 1.55403 4.69341
C 1.52055 10.8846 10.0443
C -0.179068 5.1788 4.842
C 3.63389 7.64306 -0.247222
Ni 9.64535 9.02638 8.92941
Ni 13.0279 3.48223 3.71934
O 7.7641 4.16831 4.02311
O 10.9588 7.83969 9.08503
O 11.5674 2.46094 3.90191
O 8.32897 10.197 9.09822
O 12.6119 4.64573 5.02721
O 8.99914 7.92865 10.1521
O 6.50316 1.99801 4.99758
O 10.2299 10.0835 10.2569
N 10.5075 10.1537 7.59661
N 7.15442 2.02849 2.39742
N 8.83968 7.96037 7.50983
N 12.2373 4.67648 2.35651
C 10.4228 11.4468 5.52798
C 8.36282 1.69446 0.295371
H 9.90215 11.6708 4.60489
H 13.0656 11.184 0.0042489
C 11.6758 0.722727 5.79025
C 8.71692 11.6757 0.625472
C 12.3246 11.6413 6.99654
C 8.33789 11.2163 1.89545
H 6.15052 10.6338 6.07342
H 8.48883 10.1681 2.15679
C 8.84734 6.67946 5.42142
C 11.1526 4.96038 0.196378
H 9.27803 6.49803 4.4478
H 6.32873 7.51142 0.688942
C 9.48816 7.58638 6.34082
C 11.9846 4.22858 1.07117
H 10.4671 7.96905 6.109
H 7.41661 5.72041 2.08342
C 9.81458 10.5925 6.48609
C 7.79051 2.55332 1.30464
H 8.7886 10.2915 6.3417
H 11.9594 1.3011 1.716
C 11.7741 10.6158 7.80862
C 7.56749 0.748105 2.77501
H 12.3277 10.2529 8.65421
H 7.20072 11.5917 3.67759
C 7.64274 7.37998 7.7554
C 11.6788 5.88887 2.7354
H 7.01378 7.77682 8.53639
H 11.7704 6.26003 3.73418
C 7.38701 6.09797 7.21024
C 11.046 6.72791 1.79989
H 12.6725 6.73519 6.77563
H 10.7387 7.72409 2.08793
C 7.70272 5.95015 5.84887
C 10.8666 6.30042 0.489257
C 12.2677 1.80516 4.85725
C 9.05205 10.7254 10.1267
C 7.07135 4.83831 4.95903
C 10.1471 7.25045 10.0112
O 2.16778 0.652381 4.50105
C 1.77904 10.6821 3.97576
C 0.271312 10.5449 3.74132
H 2.30422 10.4805 3.03872
H 2.06841 9.8436 4.60842
C -0.378385 9.47521 4.61508
H -0.227572 11.4864 3.91754
H 0.0962019 10.2784 2.68851
H -0.359994 9.77357 5.67849
H 12.6083 9.30732 4.30109
H 0.179476 8.52876 4.51595
O 3.03705 1.01733 1.73854
C 4.034 1.34899 0.816398
C 5.05646 11.4931 0.785227
H 4.55243 2.26892 1.14145
H 3.43134 1.55503 10.3652
C 4.87631 10.4408 1.85385
H 6.02375 0.581818 0.928397
H 4.91811 11.0194 10.3701
H 4.81645 10.9279 2.84207
H 5.74116 9.7532 1.81813
H 3.95372 9.86238 1.69158
O 2.73094 6.31331 4.76015
C 3.24117 7.60331 4.38915
C 4.612 7.5262 3.71289
H 2.51878 8.01333 3.65766
H 3.37409 8.32603 5.21826
C 5.80679 8.34714 4.20283
H 4.93064 6.48803 3.72012
H 4.44045 7.93682 2.72429
H 6.21513 8.00996 5.15216
H 6.65116 8.22253 3.49274
H 5.56274 9.41069 4.23336
O 2.30539 6.0563 1.83261
C 1.37961 5.6691 0.84155
C 0.250555 6.69921 0.659657
H 0.942332 4.70105 1.12645
H 1.84417 5.55303 -0.15758
C 0.116337 7.75951 1.7464
H -0.67043 6.17 0.537981
H 0.0759867 7.18879 10.2513
H 0.0248421 7.28107 2.73348
H -0.775655 8.39671 1.54746
H 0.998486 8.41852 1.76116
O -0.525787 0.914581 7.36411
C -0.765031 2.2022 7.85968
C 0.485017 3.0481 7.64688
H 12.9744 2.14924 8.93491
H 12.4702 2.7174 7.30665
C 1.2062 3.30571 8.93455
H 0.174801 4.03061 7.25102
H 1.1725 2.58159 6.91289
H 0.473793 3.68228 9.67917
H 1.97879 4.07193 8.7493
H 1.68389 2.38822 9.28583
O 7.93912 2.00533 9.53193
C 6.66305 1.50348 9.20263
C 6.21638 1.89812 7.82421
H 5.92304 1.90402 9.90795
H 6.62294 11.7079 9.24784
C 4.66486 2.10191 7.81345
H 6.6087 1.11908 7.17425
H 6.72473 2.80024 7.46956
H 4.14088 1.19327 8.11264
H 4.32078 2.55781 6.87229
H 4.2305 2.74075 8.58736
O 7.63964 5.0073 8.00968
C 7.16113 5.15439 9.33781
C 5.73226 4.73269 9.41837
H 7.37961 6.11049 9.8393
H 7.74016 4.45393 9.9421
C 4.7659 5.36155 8.45234
H 5.285 4.48977 10.3738
H 5.84088 3.79229 9.11048
H 3.74663 5.29514 8.84363
H 4.80826 4.84022 7.473
H 5.05531 6.40308 8.33522
O 10.1581 4.28068 9.84393
C 10.6455 4.49387 8.54007
C 9.96609 3.50748 7.65338
H 11.7515 4.36835 8.49619
H 10.3876 5.5107 8.18908
C 10.0191 3.64114 6.22277
H 10.0277 3.5954 6.57112
H 10.161 1.21001 8.6243
H 5.38424 8.06858 7.03249
H 4.98323 6.29865 5.9326
H 2.6444 3.71688 5.29589
188
Atoms. Timestep: 4680
Ni 2.39555 9.14345 9.07097
Ni 6.29287 3.26443 3.73691
O 0.380604 4.58193 3.84765
O 3.90414 8.19404 9.2952
O 4.76714 2.28238 3.72249
O 0.899917 10.1378 9.16465
O 5.80769 4.41791 5.03364
O 2.28852 8.09372 -0.0941295
O -0.475459 2.3131 4.88195
O 2.81587 10.4147 10.1897
N 3.13605 10.205 7.57033
N -0.229135 2.37032 2.24348
N 1.5899 7.81553 7.85609
N 5.63822 4.58118 2.35196
C 3.0299 11.6426 5.57559
C -0.303616 11.874 0.593377
C 4.47456 11.709 5.4914
C 1.10129 11.8208 0.500435
C 5.15494 10.8127 6.32201
C 1.83957 1.34548 1.37883
C 1.78399 6.17521 6.10128
C 5.65889 6.75306 1.15628
C 2.30455 6.83686 7.25436
C 6.30649 5.74614 1.99076
H 3.3404 6.86956 7.35497
H 11.3689 3.12949 1.16176
C 2.40184 10.9833 6.71613
C 13.0984 1.41839 1.5417
H 1.3333 10.9203 6.75315
H 7.56321 3.64447 1.04132
C 4.51009 10.2419 7.44833
C 1.14993 2.30802 2.1845
H 5.13027 9.86619 8.24448
H 1.72232 2.85724 2.90851
C 0.218634 7.80409 7.6688
C 4.28952 4.50189 2.01366
H -0.412378 8.44024 8.26149
H 3.68147 3.75177 2.45901
C -0.403898 6.8826 6.77603
C 3.58824 5.54712 1.33918
C 0.378462 6.07191 5.93961
C 4.29279 6.60881 0.752003
C 5.28205 1.52857 4.69554
C 1.56141 10.8909 10.0546
C -0.27822 5.14775 4.88569
C 3.33523 7.63194 10.3649
Ni 9.68856 9.14681 8.89752
Ni 13.0076 3.49022 3.67885
O 7.78642 4.20362 4.04178
O 11.0065 7.953 9.03336
O 11.6086 2.41464 3.81882
O 8.37127 10.3083 9.08486
O 12.5311 4.57632 5.02723
O 9.04707 8.01332 10.089
O 6.54671 2.00076 4.99449
O 10.2679 10.18 10.2412
N 10.5369 10.3041 7.60246
N 7.16409 2.07635 2.39397
N 8.87578 8.11078 7.4459
N 12.146 4.69212 2.36058
C 10.4127 11.6155 5.56495
C 8.3147 1.77309 0.252454
H 9.8424 0.612969 4.69677
H 13.1404 11.1491 0.0654766
C 11.713 0.801891 5.75634
C 8.76253 11.7907 0.601449
C 12.3784 11.7485 6.9516
C 8.49682 11.3556 1.90565
H 6.21131 10.6313 6.16885
H 8.82885 10.3748 2.22331
C 8.91399 6.72226 5.42136
C 11.0396 4.99938 0.202384
H 9.37721 6.47716 4.47545
H 6.2187 7.62246 0.843117
C 9.54716 7.67531 6.31567
C 11.6097 4.16525 1.20445
H 10.5354 8.05039 6.09071
H 7.33489 5.89397 2.28607
C 9.8146 10.7828 6.53561
C 7.68086 2.60773 1.2385
H 8.77481 10.5094 6.42339
H 12.067 1.21825 1.78651
C 11.8117 10.7641 7.80569
C 7.6752 0.832293 2.77706
H 12.3771 10.399 8.64236
H 7.40107 11.6827 3.70994
C 7.6341 7.61308 7.62451
C 11.7253 5.96486 2.70941
H 6.96752 8.10384 8.31822
H 11.8736 6.35074 3.70035
C 7.37859 6.28439 7.19196
C 11.135 6.82704 1.75311
H 12.5563 6.84297 6.71366
H 10.8913 7.84635 2.02829
C 7.73015 6.03785 5.84423
C 10.9281 6.38498 0.442109
C 12.3321 1.75709 4.74706
C 9.09817 10.8386 10.1064
C 7.10783 4.8673 4.99479
C 10.1983 7.34092 9.94982
O 2.26134 11.8339 4.43761
C 1.86412 10.5583 3.92228
C 0.36669 10.4889 3.60352
H 2.43778 10.3205 3.01305
H 2.07051 9.73284 4.59643
C -0.428586 9.54601 4.50809
H -0.0603602 11.4855 3.68331
H 0.230647 10.1425 2.56316
H -0.292457 9.81135 5.57194
H 12.5307 9.60907 4.2574
H -0.101988 8.50036 4.36108
O 3.1012 0.94783 1.78297
C 4.11153 1.26309 0.849102
C 5.15156 11.4214 0.77592
H 4.64605 2.16138 1.17663
H 3.50338 1.49428 10.3996
C 5.0556 10.364 1.84462
H 6.12628 11.8317 0.869182
H 4.97489 10.9465 10.354
H 5.00977 10.8446 2.83621
H 5.96403 9.73542 1.78647
H 4.16958 9.72959 1.68361
O 2.60959 6.04568 5.00793
C 2.90378 7.36047 4.55471
C 4.17243 7.39324 3.73979
H 2.05521 7.68228 3.91975
H 3.07091 8.10035 5.36523
C 5.32185 8.26359 4.22395
H 4.55277 6.37514 3.69517
H 3.86983 7.8267 2.78246
H 5.82398 7.87114 5.11053
H 6.11841 8.29357 3.45818
H 4.94613 9.27458 4.39055
O 2.26652 5.73504 1.66161
C 1.43161 5.42718 0.571825
C 0.268507 6.42095 0.508356
H 1.01479 4.42016 0.72836
H 1.70333 5.42094 10.1496
C 0.18469 7.41331 1.68468
H -0.631635 5.83277 0.446537
H 0.029088 6.97214 10.1283
H 0.0490562 6.87307 2.63484
H -0.640865 8.1318 1.51509
H 1.09648 8.01372 1.8311
O -0.46981 1.05742 7.29864
C -0.757027 2.32324 7.85359
C 0.46018 3.23589 7.78975
H 12.9354 2.22082 8.90347
H 12.5203 2.85642 7.25825
C 1.53003 2.8195 8.76131
H 0.145253 4.2686 8.05044
H 0.889162 3.24344 6.76864
H 1.11704 2.81168 9.77986
H 2.33349 3.56815 8.72791
H 1.92887 1.82398 8.49361
O 7.92926 2.07473 9.49188
C 6.67386 1.54751 9.11779
C 6.27863 2.02027 7.75245
H 5.89546 1.88566 9.82069
H 6.64017 11.7519 9.11576
C 4.74748 2.25679 7.71018
H 6.6699 1.25059 7.09391
H 6.8163 2.94013 7.44537
H 4.18298 1.34725 7.9033
H 4.41994 2.77133 6.78949
H 4.38762 2.84515 8.55613
O 7.69218 5.2745 8.08677
C 7.18222 5.5024 9.39031
C 5.87958 4.79605 9.51189
H 7.08541 6.54138 9.72452
H 7.87283 5.07942 10.1239
C 4.82893 5.3345 8.60584
H 5.74071 4.57076 -0.0829574
H 6.12606 3.84992 9.22959
H 3.8231 5.16925 9.02699
H 4.89516 4.85879 7.61772
H 5.02875 6.39408 8.49154
O 10.039 4.40914 9.79356
C 10.6421 4.52746 8.53133
C 10.0559 3.45672 7.66592
H 11.7464 4.4323 8.57598
H 10.398 5.5121 8.0852
C 9.96272 3.63028 6.24286
H 9.99174 3.59029 6.59096
H 10.8776 1.65051 9.77413
H 5.14307 7.96039 7.06179
H 4.81795 6.17908 5.99665
H 2.69042 3.35396 5.14125
188
Atoms. Timestep: 4682
Ni 2.39384 9.13643 9.07048
Ni 6.29294 3.27173 3.73709
O 0.377865 4.58603 3.84781
O 3.90315 8.18934 9.29468
O 4.76648 2.29207 3.72267
O 0.897495 10.1284 9.16415
O 5.80755 4.4224 5.03366
O 2.28664 8.08926 -0.09347
O -0.478593 2.32272 4.88199
O 2.81437 10.4046 10.1891
N 3.13467 10.1954 7.57002
N -0.232186 2.3798 2.24385
N 1.58779 7.81174 7.85575
N 5.63797 4.58527 2.35231
C 3.02844 11.6295 5.57554
C -0.306724 11.8603 0.59395
C 4.47379 11.6958 5.49135
C 1.09885 11.8073 0.501019
C 5.1545 10.8016 6.32186
C 1.83749 1.35746 1.3793
C 1.78195 6.17542 6.10116
C 5.65862 6.75186 1.15678
C 2.30277 6.83545 7.25409
C 6.30654 5.7474 1.99115
H 3.33912 6.86808 7.35469
H 11.3714 3.13712 1.16227
C 2.4001 10.9718 6.71593
C 13.1017 1.43019 1.54215
H 1.33105 10.9089 6.75294
H 7.56385 3.65084 1.04184
C 4.50936 10.2322 7.44804
C 1.14753 2.31766 2.18488
H 5.12985 9.85741 8.24409
H 1.7202 2.86553 2.90879
C 0.215868 7.80034 7.66848
C 4.28861 4.50618 2.01405
H -0.415436 8.43493 8.2611
H 3.68028 3.75788 2.45935
C -0.406972 6.88109 6.77582
C 3.58699 5.54886 1.33966
C 0.375749 6.07237 5.93951
C 4.29187 6.60796 0.752555
C 5.28165 1.5401 4.6956
C 1.55931 10.8796 10.0539
C -0.281259 5.15047 4.88572
C 3.33398 7.6286 10.3642
Ni 9.69031 9.13978 8.89705
Ni 13.0109 3.49697 3.67904
O 7.78721 4.20863 4.04192
O 11.0089 7.94888 9.03287
O 11.6112 2.42401 3.81899
O 8.3724 10.2984 9.08437
O 12.5341 4.58043 5.02724
O 9.04853 8.00905 10.0884
O 6.54691 2.01114 4.9945
O 10.27 10.1705 10.2406
N 10.539 10.2942 7.60215
N 7.16456 2.08655 2.39431
N 8.87713 8.10628 7.44561
N 12.1488 4.69595 2.36093
C 10.4148 11.6025 5.56489
C 8.31569 1.78402 0.25307
H 9.84417 0.62673 4.69682
H 13.1436 11.1372 0.066116
C 11.7157 0.815191 5.75627
C 8.76373 11.7772 0.602021
C 12.3814 11.7351 6.95137
C 8.49791 11.3432 1.90606
H 6.21138 10.6206 6.16872
H 8.83011 10.3648 2.22368
C 8.91533 6.72114 5.42132
C 11.0419 5.00246 0.203006
H 9.37876 6.47664 4.47554
H 6.21869 7.61914 0.843658
C 9.54881 7.67186 6.31552
C 11.6123 4.17035 1.20494
H 10.5375 8.04603 6.09059
H 7.33544 5.89486 2.28643
C 9.81638 10.7718 6.53544
C 7.68156 2.61663 1.23899
H 8.7761 10.4991 6.42323
H 12.0698 1.23053 1.78693
C 11.8145 10.7532 7.80535
C 7.67592 0.84552 2.77736
H 12.3802 10.3889 8.64191
H 7.40167 11.6695 3.71012
C 7.63486 7.60979 7.6242
C 11.728 5.96558 2.70971
H 6.96797 8.09935 8.31781
H 11.8763 6.35052 3.70053
C 7.37922 6.28434 7.1917
C 11.1373 6.82567 1.75354
H 12.5594 6.84155 6.71346
H 10.8936 7.84249 2.02869
C 7.73093 6.0384 5.84414
C 10.9304 6.38468 0.442701
C 12.335 1.76807 4.74711
C 9.09966 10.8275 10.1058
C 7.1083 4.8707 4.99481
C 10.2003 7.3383 9.94921
O 2.25951 11.8203 4.4377
C 1.86209 10.5479 3.92243
C 0.36394 10.4786 3.60372
H 2.43601 10.3106 3.01332
H 2.06858 9.72438 4.5965
C -0.431702 9.53801 4.50817
H -0.063312 11.4728 3.68349
H 0.227819 10.133 2.56349
H -0.295494 9.8027 5.57188
H 12.5338 9.60092 4.25751
H -0.104951 8.4949 4.36118
O 3.09972 0.960775 1.7834
C 4.11053 1.27526 0.849643
C 5.15105 11.4088 0.776469
H 4.6453 2.17137 1.17713
H 3.50221 1.50589 10.3989
C 5.05506 10.354 1.84504
H 6.12623 11.8181 0.86972
H 4.97442 10.9351 10.3533
H 5.00922 10.8334 2.8365
H 5.96392 9.72695 1.78689
H 4.16861 9.72114 1.68404
O 2.60792 6.0462 5.00795
C 2.90225 7.35779 4.55478
C 4.17149 7.39049 3.73996
H 2.05327 7.67882 3.9199
H 3.06947 8.09587 5.3652
C 5.32147 8.25871 4.22406
H 4.55201 6.37486 3.69535
H 3.86874 7.82289 2.78276
H 5.82385 7.86722 5.11054
H 6.1184 8.28862 3.45839
H 4.94557 9.26724 4.39064
O 2.26465 5.73632 1.66205
C 1.42933 5.42922 0.5724
C 0.265669 6.42057 0.50894
H 1.01231 4.42464 0.728915
H 1.7013 5.42299 10.1489
C 0.181828 7.41051 1.68512
H -0.634901 5.83382 0.447128
H 0.0262646 6.97041 10.1277
H 0.0461424 6.87158 2.63515
H -0.644122 8.12724 1.51554
H 1.09405 8.00946 1.83152
O -0.472908 1.07009 7.29837
C -0.760255 2.33283 7.85325
C 0.457531 3.24327 7.78941
H 12.9387 2.23067 8.903
H 12.5234 2.86471 7.25798
C 1.5279 2.82789 8.76085
H 0.142457 4.27346 8.05007
H 0.886703 3.25079 6.76844
H 1.11473 2.82008 9.77928
H 2.33175 3.57471 8.72745
H 1.92693 1.83479 8.49319
O 7.93019 2.08493 9.49133
C 6.67418 1.55899 9.11728
C 6.27875 2.0306 7.75212
H 5.89542 1.89632 9.8201
H 6.64047 11.7385 9.11526
C 4.74687 2.26655 7.70986
H 6.67019 1.2628 7.09366
H 6.81667 2.94822 7.44508
H 4.18211 1.35922 7.90295
H 4.41917 2.77983 6.78928
H 4.38685 2.85347 8.5557
O 7.69298 5.27691 8.0864
C 7.18279 5.50425 9.38977
C 5.87953 4.79962 9.51134
H 7.08594 6.5407 9.72395
H 7.87374 5.0823 10.1233
C 4.82837 5.33676 8.60541
H 5.74046 4.57488 -0.0822993
H 6.12613 3.85579 9.22908
H 3.82207 5.17191 9.0265
H 4.89462 4.86221 7.6174
H 5.02828 6.39376 8.49112
O 10.0409 4.41366 9.79297
C 10.6443 4.53168 8.5309
C 10.0579 3.46355 7.6656
H 11.7491 4.43676 8.57554
H 10.4001 5.51392 8.08483
C 9.96457 3.63669 6.24272
H 9.9936 3.5968 6.59077
H 10.8799 1.66174 9.77355
H 5.14263 7.95625 7.06155
H 4.81735 6.17928 5.99654
H 2.68879 3.36105 5.14125
188
Atoms. Timestep: 7003
Ni 2.39202 9.13856 9.07024
Ni 6.29295 3.27091 3.73758
O 0.37317 4.59214 3.84725
O 3.8984 8.18903 9.29495
O 4.76858 2.28946 3.72275
O 0.898491 10.1343 9.16159
O 5.80771 4.42297 5.03455
O 2.28351 8.09241 -0.0919591
O -0.47741 2.32348 4.88138
O 2.81458 10.41 10.1857
N 3.13345 10.1951 7.56922
N -0.231252 2.3822 2.24439
N 1.58456 7.81089 7.85878
N 5.63671 4.58652 2.35381
C 3.03033 11.6284 5.57277
C -0.303148 11.8628 0.591388
C 4.47491 11.6924 5.49054
C 1.10149 11.8127 0.49857
C 5.15353 10.7967 6.32218
C 1.83926 1.36326 1.37852
C 1.77588 6.16884 6.10696
C 5.65362 6.75715 1.15812
C 2.29646 6.82842 7.26041
C 6.30257 5.75282 1.99361
H 3.33212 6.85638 7.36364
H 11.3582 3.13196 1.17373
C 2.4004 10.9709 6.71232
C 13.1043 1.43139 1.54041
H 1.33191 10.9071 6.7473
H 7.57089 3.65759 1.04884
C 4.50753 10.2303 7.44888
C 1.14795 2.3213 2.18736
H 5.12666 9.85751 8.24707
H 1.71885 2.8682 2.91432
C 0.21355 7.80368 7.67061
C 4.28816 4.50424 2.01497
H -0.416265 8.43921 8.26484
H 3.68076 3.75494 2.4621
C -0.410478 6.88533 6.77711
C 3.58532 5.54655 1.33931
C 0.370488 6.07305 5.94197
C 4.2879 6.61003 0.754251
C 5.28343 1.53606 4.69506
C 1.56118 10.8876 10.0497
C -0.28679 5.15603 4.88505
C 3.32988 7.62987 10.3654
Ni 9.69203 9.14118 8.89689
Ni 13.0098 3.49877 3.67874
O 7.78585 4.20966 4.04137
O 11.0084 7.94679 9.03028
O 11.6136 2.42144 3.81742
O 8.37699 10.3023 9.08518
O 12.5301 4.58291 5.02657
O 9.04898 8.00793 10.0859
O 6.54818 2.00743 4.99457
O 10.2732 10.171 10.2418
N 10.5402 10.2976 7.60457
N 7.16375 2.08515 2.39475
N 8.87862 8.10995 7.44463
N 12.1465 4.69715 2.36137
C 10.4176 11.6039 5.56549
C 8.31812 1.78682 0.25572
H 9.8474 0.628925 4.69715
H 13.1491 11.1367 0.0636712
C 11.7193 0.813821 5.75521
C 8.76821 11.7785 0.604362
C 12.385 11.7337 6.95026
C 8.50003 11.3401 1.90672
H 6.2096 10.6129 6.16952
H 8.83231 10.3589 2.22301
C 8.91692 6.72083 5.42187
C 11.039 4.99768 0.204371
H 9.38069 6.47367 4.47678
H 6.21249 7.62608 0.842385
C 9.55088 7.67258 6.31591
C 11.6066 4.16642 1.20903
H 10.54 8.04582 6.09186
H 7.33051 5.90284 2.28941
C 9.81776 10.7772 6.5386
C 7.68298 2.61922 1.2417
H 8.77672 10.5077 6.42858
H 12.0744 1.22655 1.787
C 11.8164 10.7533 7.80618
C 7.67499 0.840989 2.77702
H 12.3809 10.3883 8.64329
H 7.39731 11.6609 3.70741
C 7.63451 7.61788 7.61981
C 11.7258 5.97012 2.70815
H 6.9677 8.11181 8.31096
H 11.8744 6.3581 3.69825
C 7.37783 6.28921 7.19103
C 11.136 6.82964 1.75018
H 12.5564 6.84867 6.71362
H 10.8927 7.84982 2.02251
C 7.73064 6.04058 5.84402
C 10.9294 6.38361 0.440651
C 12.338 1.76574 4.74562
C 9.10391 10.8298 10.1076
C 7.10774 4.87193 4.99513
C 10.1996 7.33531 9.94616
O 2.26332 11.821 4.43395
C 1.86441 10.5462 3.91815
C 0.367011 10.4783 3.59973
H 2.43774 10.3076 3.0089
H 2.06928 9.72115 4.59232
C -0.42999 9.53645 4.50383
H -0.0583 11.4751 3.68028
H 0.230369 10.1329 2.55926
H -0.293573 9.80104 5.56774
H 12.5361 9.60143 4.25296
H -0.105501 8.49037 4.35659
O 3.10126 0.965276 1.78237
C 4.11271 1.2781 0.848398
C 5.15141 11.4072 0.776177
H 4.65013 2.17406 1.17576
H 3.50515 1.51122 10.3978
C 5.05338 10.3515 1.84572
H 6.12728 11.8154 0.869006
H 4.97481 10.9312 10.3536
H 5.00075 10.8334 2.83606
H 5.96456 9.7265 1.79394
H 4.17028 9.71405 1.68059
O 2.60282 6.03708 5.01514
C 2.89661 7.35122 4.56068
C 4.16428 7.38388 3.74491
H 2.04755 7.67135 3.92545
H 3.06451 8.09142 5.37097
C 5.31398 8.25462 4.22686
H 4.54468 6.36613 3.70128
H 3.86021 7.81736 2.78822
H 5.81536 7.86551 5.11507
H 6.11134 8.28171 3.46201
H 4.93817 9.26594 4.38875
O 2.26233 5.73046 1.65956
C 1.42977 5.42537 0.567025
C 0.264507 6.41672 0.505883
H 1.01434 4.4173 0.718223
H 1.70325 5.42341 10.1444
C 0.180997 7.40863 1.68254
H -0.635207 5.82706 0.445141
H 0.0234874 6.9686 10.1252
H 0.0437132 6.86811 2.63189
H -0.643218 8.1285 1.51231
H 1.09356 8.007 1.83202
O -0.46996 1.07031 7.29695
C -0.757795 2.33506 7.85383
C 0.456653 3.25047 7.78668
H 12.9453 2.23142 8.90483
H 12.5237 2.8672 7.26072
C 1.53692 2.82986 8.74429
H 0.14149 4.28034 8.05812
H 0.876575 3.26621 6.76216
H 1.1367 2.81927 9.76755
H 2.33988 3.57836 8.70206
H 1.93196 1.83497 8.46958
O 7.93194 2.08795 9.49378
C 6.67756 1.55827 9.11932
C 6.28343 2.028 7.75255
H 5.89876 1.89709 9.8212
H 6.64291 11.7355 9.12
C 4.7528 2.26637 7.70984
H 6.67418 1.25679 7.09526
H 6.82189 2.94686 7.44381
H 4.18633 1.35855 7.90272
H 4.42586 2.78212 6.78962
H 4.39374 2.85305 8.55707
O 7.69449 5.2823 8.08816
C 7.18537 5.51267 9.39195
C 5.88602 4.80178 9.51598
H 7.08239 6.55241 9.72216
H 7.87818 5.09546 10.127
C 4.83248 5.3376 8.61285
H 5.74956 4.57142 -0.077667
H 6.13578 3.85874 9.22853
H 3.82808 5.16915 9.03572
H 4.89878 4.86354 7.62431
H 5.02962 6.39689 8.49823
O 10.0386 4.40564 9.79492
C 10.6396 4.52655 8.53179
C 10.0564 3.45451 7.66607
H 11.7442 4.43663 8.57511
H 10.3912 5.51006 8.08592
C 9.96026 3.62962 6.24336
H 9.98994 3.58918 6.59138
H 10.8881 1.66123 9.77719
H 5.13604 7.95041 7.06493
H 4.80831 6.17355 6.00061
H 2.68841 3.35249 5.14649
188
Atoms. Timestep: 7010
Ni 2.38502 9.12939 9.07551
Ni 6.29273 3.28038 3.73531
O 0.360016 4.59955 3.84542
O 3.89155 8.18132 9.3004
O 4.7686 2.30125 3.72042
O 0.891305 10.1233 9.16629
O 5.80834 4.43134 5.03214
O 2.27747 8.08421 -0.100759
O -0.490623 2.3337 4.87901
O 2.80739 10.3993 10.1902
N 3.12812 10.1848 7.57431
N -0.242414 2.39324 2.24348
N 1.57578 7.80374 7.86496
N 5.6346 4.59241 2.35253
C 3.02528 11.6113 5.57269
C -0.314378 11.844 0.585018
C 4.47112 11.6743 5.49104
C 1.09226 11.7941 0.492903
C 5.15005 10.7808 6.32427
C 1.83057 1.37969 1.37385
C 1.76724 6.16862 6.10708
C 5.65218 6.75757 1.15214
C 2.28902 6.82518 7.26142
C 6.30174 5.75562 1.98875
H 3.32579 6.85447 7.36625
H 11.3668 3.13922 1.16867
C 2.39421 10.9559 6.71321
C 13.118 1.44657 1.53565
H 1.32444 10.892 6.74941
H 7.57269 3.66906 1.04334
C 4.50346 10.2173 7.45238
C 1.13774 2.33492 2.18473
H 5.12408 9.84621 8.25093
H 1.71 2.87961 2.91171
C 0.20371 7.79906 7.67485
C 4.28519 4.50833 2.01222
H -0.42777 8.43258 8.26954
H 3.6763 3.76189 2.45951
C -0.421041 6.88321 6.77939
C 3.58114 5.54823 1.33479
C 0.360489 6.07349 5.94249
C 4.28435 6.60993 0.74875
C 5.28129 1.55073 4.69481
C 1.55255 10.8735 10.0567
C -0.298121 5.16045 4.8849
C 3.32499 7.62566 10.3725
Ni 9.69838 9.13196 8.90178
Ni 13.0224 3.50771 3.67652
O 7.78585 4.2176 4.03922
O 11.0145 7.93948 9.03505
O 11.6261 2.43196 3.81503
O 8.38384 10.2913 9.09029
O 12.5426 4.59065 5.02423
O 9.05483 8.00016 10.0901
O 6.54753 2.01864 4.99255
O 10.2801 10.1603 10.2464
N 10.5467 10.2871 7.6102
N 7.16389 2.09791 2.39054
N 8.88485 8.10231 7.44993
N 12.1586 4.70238 2.3572
C 10.426 11.5867 5.56654
C 8.32008 1.80226 0.249613
H 9.8548 0.647229 4.69706
H 13.1619 11.1201 0.0561494
C 11.7295 0.831367 5.75622
C 8.77254 11.7601 0.599025
C 12.3955 11.7147 6.95179
C 8.50473 11.3216 1.90248
H 6.20834 10.5985 6.17132
H 8.83802 10.3433 2.21948
C 8.92137 6.71951 5.42306
C 11.0485 5.00101 0.198126
H 9.38568 6.47286 4.47663
H 6.21251 7.62331 0.835635
C 9.55636 7.66807 6.31829
C 11.6172 4.17095 1.20401
H 10.5471 8.04007 6.09391
H 7.33125 5.90433 2.28501
C 9.82513 10.763 6.5412
C 7.68407 2.63298 1.23671
H 8.78244 10.4941 6.4308
H 12.0863 1.24226 1.78204
C 11.8252 10.7383 7.80938
C 7.67829 0.856615 2.77331
H 12.3909 10.3748 8.64761
H 7.40042 11.6422 3.70462
C 7.63761 7.61568 7.62128
C 11.7351 5.97309 2.70437
H 6.97027 8.10699 8.31478
H 11.884 6.35887 3.69529
C 7.37956 6.28892 7.19337
C 11.1442 6.8304 1.74581
H 12.5693 6.8468 6.71573
H 10.9003 7.84746 2.01854
C 7.73365 6.04093 5.84562
C 10.9385 6.38449 0.435468
C 12.3489 1.77922 4.74562
C 9.10864 10.8149 10.1154
C 7.10914 4.87675 4.99502
C 10.2076 7.33185 9.95422
O 2.25707 11.8063 4.43431
C 1.85584 10.5312 3.91575
C 0.357594 10.464 3.59753
H 2.43037 10.2941 3.00676
H 2.06074 9.70894 4.59141
C -0.442731 9.52658 4.50342
H -0.0695718 11.4599 3.6783
H 0.219532 10.1203 2.55665
H -0.305286 9.78969 5.56756
H 12.5485 9.59059 4.2519
H -0.116772 8.48104 4.35554
O 3.09499 0.98198 1.7762
C 4.10738 1.29512 0.842312
C 5.14947 11.3902 0.77042
H 4.64743 2.18845 1.17057
H 3.50042 1.52703 10.4055
C 5.0514 10.3373 1.8416
H 6.12665 11.7977 0.863361
H 4.97232 10.9153 10.3609
H 4.99856 10.8191 2.83241
H 5.96385 9.71466 1.78969
H 4.16664 9.70237 1.67603
O 2.59553 6.03433 5.01635
C 2.89101 7.34904 4.55917
C 4.15956 7.38088 3.7434
H 2.04066 7.66674 3.9239
H 3.05952 8.0866 5.37117
C 5.31298 8.24744 4.22526
H 4.54153 6.36382 3.69953
H 3.85611 7.81242 2.78577
H 5.8142 7.86025 5.11476
H 6.11046 8.27516 3.46043
H 4.93569 9.25797 4.38788
O 2.25626 5.7326 1.65348
C 1.4225 5.42818 0.560813
C 0.253765 6.41626 0.500064
H 1.0047 4.4215 0.712436
H 1.69492 5.42603 10.1519
C 0.170017 7.40558 1.67806
H -0.647521 5.82778 0.438938
H 0.0122323 6.96705 10.1321
H 0.0324062 6.86563 2.6281
H -0.655742 8.12327 1.50764
H 1.08412 8.00195 1.82741
O -0.483305 1.08481 7.29809
C -0.77003 2.34904 7.85819
C 0.447098 3.26024 7.78986
H 12.958 2.24429 8.90912
H 12.5357 2.87969 7.26394
C 1.52694 2.84148 8.74941
H 0.130387 4.28882 8.0622
H 0.866575 3.27588 6.76501
H 1.1278 2.83044 9.77271
H 2.33282 3.58776 8.70658
H 1.92459 1.84766 8.47375
O 7.93401 2.10229 9.50061
C 6.6786 1.57396 9.12478
C 6.28272 2.04119 7.7567
H 5.89894 1.91096 9.827
H 6.64349 11.7153 9.12537
C 4.7515 2.28001 7.71317
H 6.67532 1.2724 7.09779
H 6.82305 2.95893 7.4466
H 4.18242 1.37373 7.90668
H 4.42272 2.79365 6.7921
H 4.39034 2.8639 8.56146
O 7.69705 5.28237 8.09249
C 7.18718 5.51406 9.39653
C 5.88499 4.80754 9.52229
H 7.084 6.55353 9.72836
H 7.88101 5.09899 10.133
C 4.83012 5.33967 8.61795
H 5.74894 4.57648 -0.0851002
H 6.13545 3.86656 9.23399
H 3.82472 5.17277 9.04063
H 4.89663 4.86831 7.62806
H 5.02792 6.39831 8.50236
O 10.047 4.4103 9.80101
C 10.6483 4.53179 8.53737
C 10.0626 3.46126 7.66824
H 11.7532 4.44271 8.57981
H 10.3987 5.5143 8.0897
C 9.96744 3.63861 6.24593
H 9.997 3.59811 6.59401
H 10.8966 1.67617 9.78329
H 5.13467 7.94435 7.06716
H 4.80515 6.17382 6.00181
H 2.68199 3.36184 5.1465
188
Atoms. Timestep: 9295
Ni 2.38345 9.1331 9.07342
Ni 6.2917 3.28071 3.73414
O 0.359074 4.60389 3.84638
O 3.88749 8.18314 9.2996
O 4.7682 2.30013 3.72118
O 0.891749 10.1308 9.16225
O 5.80878 4.43137 5.03259
O 2.27319 8.09075 -0.100697
O -0.488264 2.33551 4.88092
O 2.80785 10.405 10.1857
N 3.12679 10.1842 7.57129
N -0.240074 2.39523 2.24391
N 1.57462 7.80544 7.86525
N 5.63221 4.59579 2.35147
C 3.02825 11.6117 5.57129
C -0.309014 11.8474 0.583438
C 4.4729 11.6721 5.49073
C 1.09558 11.8013 0.489477
C 5.14898 10.777 6.32451