ITEM: TIMESTEP
0
ITEM: NUMBER OF ATOMS
188
ITEM: BOX BOUNDS xy xz yz pp pp pp
-2.2759399999999999e-01 1.2505599999999999e+01 0.0000000000000000e+00
0.0000000000000000e+00 1.2523400000000001e+01 -2.2759399999999999e-01
0.0000000000000000e+00 1.0274279000000000e+01 0.0000000000000000e+00
ITEM: ATOMS id type x y z
1 1 2.9388 9.37376 9.48706
2 1 6.09306 2.79032 4.01124
3 2 1.11987 4.60867 4.22075
4 2 4.24742 8.12015 9.60607
5 2 4.63427 1.72761 4.31987
6 2 1.61069 10.634 9.54619
7 2 5.74058 3.96019 5.34388
8 2 2.7265 8.29183 0.600992
9 2 0.28622 2.19919 5.15245
10 2 3.63164 10.6567 0.460878
11 3 3.83557 10.4265 8.10382
12 3 0.732493 2.28424 2.39961
13 3 2.07743 8.14899 8.21156
14 3 5.31265 4.11142 2.72544
15 4 3.84301 11.552 5.9075
16 4 1.09955 0.972315 0.280603
17 5 3.44925 11.5825 4.90218
18 5 7.10709 1.04401 9.42322
19 4 4.90284 12.4018 6.25098
20 4 2.1287 0.22003 0.821424
21 4 5.56296 12.0867 7.49408
22 4 2.53704 0.592693 2.12336
23 5 0.16991 0.281269 7.35108
24 5 3.18167 12.459 2.6745
25 4 2.3695 6.44398 6.43033
26 4 5.54245 5.67283 0.833355
27 5 3.01188 6.06527 5.6576
28 5 11.6148 6.03619 9.77495
29 4 2.87144 7.47103 7.29795
30 4 6.03962 4.5684 1.62991
31 5 3.89682 7.77502 7.17947
32 4 3.35684 10.5529 6.81872
33 4 0.453838 2.05853 0.996088
34 5 2.70775 9.80988 6.43709
35 4 5.00498 11.0985 8.45143
36 4 1.84737 1.60969 2.87279
37 5 2.19164 1.8049 3.86391
38 4 0.789203 7.67538 8.45494
39 4 4.35562 4.98177 3.2299
40 5 3.85124 4.7366 4.13266
41 4 0.275427 6.55132 7.60738
42 4 4.05338 6.23353 2.60715
43 5 5.44329 6.7608 5.93407
44 5 3.36299 6.91351 3.08841
45 4 1.04252 5.98626 6.5079
46 4 4.51093 6.50493 1.30625
47 4 5.39984 1.04587 5.2505
48 4 2.55634 11.3642 0.149474
49 4 0.400649 5.13019 5.27068
50 4 3.84371 7.56319 0.360199
51 1 8.87388 9.29439 8.62304
52 1 12.2635 3.42992 3.90949
53 2 7.55974 3.81849 4.08597
54 2 10.1245 8.05061 8.86388
55 2 10.8991 2.21781 4.01593
56 2 7.56179 10.5431 8.6846
57 2 11.7012 4.49275 5.29089
58 2 8.09421 7.94657 9.63041
59 2 6.63754 1.59141 5.26848
60 2 9.15036 10.1604 10.0876
61 3 9.91514 10.7369 7.58796
62 3 6.69815 1.50046 2.4783
63 3 8.33665 8.31871 6.94754
64 3 11.3928 4.73041 2.57274
65 4 9.81262 12.2814 5.64069
66 4 7.17701 0.732641 0.149668
67 5 9.31987 0.0147073 4.72875
68 5 0.551592 0.732886 9.55716
69 4 11.0222 0.390288 5.93902
70 4 7.92466 12.1721 0.561118
71 4 11.6861 12.4365 7.12053
72 4 8.20835 12.1585 1.94525
73 5 6.50018 0.0420953 7.69772
74 5 8.81012 11.4017 2.36051
75 4 8.7458 6.19715 5.76491
76 4 11.3201 5.74305 0.347624
77 5 9.45885 5.42128 5.59431
78 5 5.79391 5.92702 10.1733
79 4 9.21292 7.42341 6.29353
80 4 12.0408 5.12842 1.45298
81 4 9.25091 11.2584 6.4826
82 4 6.37665 1.53227 1.08657
83 5 8.29785 10.8368 6.19693
84 4 11.0534 11.486 8.03758
85 4 7.46543 0.421 2.86682
86 5 7.38564 0.0367293 3.85871
87 4 6.98553 8.09862 6.73984
88 4 10.1129 5.23177 2.75106
89 5 6.26783 8.78353 7.1654
90 5 9.5536 4.90045 3.58216
91 4 6.50187 6.90237 6.0813
92 4 9.4497 6.05758 1.74059
93 5 11.7912 6.19052 7.75132
94 5 8.49927 6.49766 1.96288
95 4 7.39972 5.91127 5.62653
96 4 10.0306 6.24729 0.459151
97 4 11.6153 1.54086 4.96704
98 4 8.19102 11.0181 9.81083
99 4 6.94245 4.51396 5.08879
100 4 9.26984 7.27411 9.59422
101 6 5.47586 11.0927 9.83372
102 7 6.04647 9.82176 0.251034
103 7 6.73867 9.77072 1.65618
104 5 5.22639 9.43712 0.757228
105 5 6.22179 9.08264 9.84033
106 7 6.47715 8.57443 2.57597
107 5 7.80422 9.67437 1.51706
108 5 6.4111 10.6026 2.28574
109 5 6.70254 7.64891 2.03856
110 5 7.14955 8.62836 3.46056
111 5 5.43259 8.58308 2.94689
112 6 11.9595 2.74173 0.308551
113 7 12.1154 3.12825 9.2466
114 7 11.1233 2.62629 8.19939
115 5 12.2205 4.19187 9.1156
116 5 0.633784 2.83078 8.94957
117 7 10.0793 3.5965 7.61723
118 5 10.6171 1.71534 8.56958
119 5 11.7792 2.40622 7.35758
120 5 9.04379 3.36887 7.90996
121 5 10.0179 3.44251 6.52674
122 5 10.2877 4.65108 7.85699
123 6 -0.128915 8.45019 9.28038
124 7 0.222429 8.49707 0.477352
125 7 11.5118 8.38908 1.49424
126 5 0.727999 7.62281 0.771589
127 5 0.747771 9.37702 0.773054
128 7 10.5283 9.06589 2.49343
129 5 10.8109 8.43662 0.74675
130 5 11.7067 7.49003 2.09916
131 5 9.83282 9.70993 2.00143
132 5 9.88554 8.30118 2.97469
133 5 10.8763 9.63894 3.33894
134 6 7.37349 4.24342 1.54784
135 7 7.81017 4.00755 0.22685
136 7 9.0629 3.14454 0.217302
137 5 6.8583 3.54321 9.85279
138 5 7.78361 4.95775 9.97813
139 7 9.4593 2.45514 1.50813
140 5 8.75524 2.36899 9.72286
141 5 9.65234 3.77155 10.1707
142 5 9.72049 1.4209 1.30027
143 5 10.386 2.82529 1.86855
144 5 8.79418 2.58586 2.36005
145 6 11.7562 11.1824 9.24425
146 7 11.3473 11.6404 0.171362
147 7 11.7355 11.9331 1.67429
148 5 11.2119 10.6577 0.532587
149 5 10.2821 12.3241 10.2171
150 7 0.348559 11.2584 2.47515
151 5 10.8641 11.6846 2.2927
152 5 11.615 0.44478 1.95332
153 5 0.137111 10.2767 2.81708
154 5 0.588427 11.9059 3.33299
155 5 1.25307 10.9319 2.02993
156 6 5.0841 1.86041 0.677814
157 7 4.76049 2.34234 9.59086
158 7 3.51798 1.82861 8.88599
159 5 5.56097 2.10887 8.88827
160 5 4.74115 3.44108 9.58858
161 7 3.30063 2.46852 7.53109
162 5 2.65559 2.10601 9.45357
163 5 3.53562 0.731985 8.80134
164 5 4.25969 2.69979 7.03105
165 5 2.70376 1.77513 6.90393
166 5 2.73347 3.41898 7.63361
167 6 10.5839 7.53149 6.38575
168 7 11.0672 8.76996 5.9989
169 7 -0.107091 8.75463 5.26443
170 5 11.3673 9.19533 6.95444
171 5 10.343 9.34952 5.39721
172 7 0.450648 10.153 5.29963
173 5 12.3434 8.31899 4.25368
174 5 0.649848 8.21073 5.77959
175 5 12.1885 10.8504 4.94212
176 5 1.37897 10.2057 4.70012
177 5 0.674475 10.4423 6.34295
178 6 0.741401 4.57896 1.23326
179 7 1.6654 5.40885 0.676827
180 8 2.73825 4.54483 0.26846
181 5 1.13065 5.85569 10.0197
182 5 1.95054 6.11387 1.45411
183 9 3.13019 3.51809 1.15885
184 5 3.01854 4.71165 9.60121
185 10 2.7915 3.33671 5.26404
186 10 5.02206 12.0641 1.85433
187 10 3.1105 9.44077 3.14341
188 10 1.53313 0.153701 5.45415
