ITEM: TIMESTEP
0
ITEM: NUMBER OF ATOMS
188
ITEM: BOX BOUNDS xy xz yz pp pp pp
-2.0676748546407342e-01 1.5951906581264600e+01 0.0000000000000000e+00
0.0000000000000000e+00 1.1728515649432101e+01 -2.0676748546407342e-01
0.0000000000000000e+00 9.3341073744753107e+00 0.0000000000000000e+00
ITEM: ATOMS id type x y z
1 1 2.33238 9.27559 8.75004
2 1 6.13057 3.30564 4.07667
3 2 15.7014 4.18582 4.26157
4 2 3.72571 8.17243 8.78773
5 2 4.66509 2.32599 4.15271
6 2 0.924934 10.3664 8.83462
7 2 5.66406 4.50444 5.34209
8 2 2.17262 8.13846 0.724359
9 2 14.5118 1.98474 5.43763
10 2 2.94038 10.5158 0.720409
11 3 3.19572 10.3927 7.48628
12 3 15.0012 2.00256 2.77479
13 3 1.44446 8.07912 7.45959
14 3 5.4098 4.52362 2.74668
15 4 3.23877 0.179018 5.61465
16 4 15.9099 1.25537 0.591514
17 5 2.68399 0.742363 4.88237
18 5 6.87572 0.88709 8.91282
19 4 4.60173 0.47368 5.84396
20 4 0.952207 0.441694 1.2217
21 4 5.2677 11.4817 6.84062
22 4 0.941959 0.425534 2.59953
23 5 13.9239 11.6462 7.40109
24 5 1.57731 11.4615 3.13281
25 4 1.38482 6.36614 5.6942
26 4 5.49734 6.40051 1.19419
27 5 1.89533 5.85733 4.89356
28 5 12.6732 5.50064 8.99182
29 4 2.07678 7.40355 6.43643
30 4 6.14657 5.33988 1.90577
31 5 3.09829 7.65155 6.18042
32 4 2.57105 10.9374 6.40187
33 4 14.8486 1.9013 1.37931
34 5 1.53809 10.6925 6.19326
35 4 4.51102 10.8033 7.82066
36 4 0.147321 1.34099 3.3225
37 5 0.473757 1.57962 4.31952
38 4 0.147207 7.67969 7.80305
39 4 4.09758 4.8707 2.99933
40 5 3.5485 4.35383 3.77013
41 4 15.4938 6.54762 7.18214
42 4 3.50246 6.00598 2.42919
43 5 6.09581 7.51941 5.80015
44 5 2.51411 6.3136 2.7419
45 4 0.0698532 5.95611 6.06116
46 4 4.129 6.66353 1.39797
47 4 5.27488 1.61841 5.11053
48 4 1.72218 11.0844 0.426569
49 4 15.1879 4.89273 5.25468
50 4 3.34361 7.52859 0.44104
51 1 9.74011 9.10024 8.69616
52 1 14.1745 3.26498 4.15352
53 2 7.58355 4.25706 4.23715
54 2 11.2168 8.12516 8.92374
55 2 12.6631 2.32943 4.27441
56 2 8.2268 10.0942 8.71433
57 2 13.8866 4.47348 5.49702
58 2 9.42556 7.68204 0.429118
59 2 6.51787 2.1132 5.37296
60 2 10.0751 10.0839 0.809637
61 3 10.7041 10.5026 7.66114
62 3 6.92543 2.08806 2.76689
63 3 9.19576 8.1033 7.10461
64 3 13.3059 4.58415 2.91188
65 4 10.9888 0.302103 5.75964
66 4 7.31446 0.990862 0.621789
67 5 10.5448 0.791723 4.90663
68 5 15.6475 1.23484 8.85193
69 4 12.3532 0.556939 6.07639
70 4 8.32855 0.165135 1.1888
71 4 12.8613 11.6152 7.19868
72 4 8.64847 0.378777 2.52011
73 5 6.32576 11.6371 6.9941
74 5 9.4299 11.5226 2.98907
75 4 8.99898 5.85117 6.23996
76 4 12.6429 5.41109 0.707299
77 5 9.49141 4.94298 5.92533
78 5 6.05835 6.9991 0.489727
79 4 9.77764 6.91587 6.74444
80 4 13.6314 4.80606 1.62133
81 4 10.1829 11.1366 6.55514
82 4 6.49961 1.8522 1.46763
83 5 9.15723 10.9619 6.27062
84 4 12.0135 10.8312 8.04868
85 4 8.02308 1.39757 3.24647
86 5 8.46496 1.68562 4.18729
87 4 7.92753 8.35224 6.61186
88 4 12.1383 5.1778 3.39453
89 5 7.5253 9.35165 6.62356
90 5 11.8034 4.94647 4.39457
91 4 7.10595 7.30378 6.12743
92 4 11.309 6.04355 2.59707
93 5 14.5402 6.19212 7.52472
94 5 10.4363 6.50447 3.04144
95 4 7.6336 6.01891 5.97672
96 4 11.5218 6.16821 1.22502
97 4 13.215 1.55885 5.20988
98 4 8.91608 10.6646 0.48165
99 4 6.9303 4.98005 5.14457
100 4 10.7609 7.27144 0.356605
101 6 4.86014 11.0804 9.17738
102 7 5.61728 9.99818 0.618734
103 7 5.97724 10.317 2.10608
104 5 4.86552 9.33725 0.869368
105 5 6.37398 9.41066 0.0796132
106 7 5.18399 9.56315 3.19362
107 5 7.02434 10.0159 2.28763
108 5 5.81359 11.3718 2.33306
109 5 5.39231 8.4758 3.14259
110 5 5.49888 9.91901 4.19691
111 5 4.09403 9.74159 3.08385
112 6 13.562 2.05618 0.835922
113 7 13.2289 2.49961 8.82257
114 7 11.7377 2.53787 8.50703
115 5 13.7955 1.91399 8.11163
116 5 13.5838 3.50182 8.63478
117 7 11.3298 3.37161 7.30137
118 5 11.5106 3.02118 0.0266238
119 5 11.2723 1.54201 8.47508
120 5 11.209 4.42872 7.58737
121 5 12.0827 3.35003 6.52006
122 5 10.3701 2.99346 6.89201
123 6 15.2782 8.50931 8.58665
124 7 15.6149 8.29485 0.655014
125 7 14.3554 7.95814 1.3456
126 5 0.251352 7.42182 0.902373
127 5 0.0539605 9.18798 1.17037
128 7 14.6453 7.39219 2.75295
129 5 13.7191 8.78524 1.42582
130 5 13.8063 7.36914 0.65304
131 5 15.1685 6.42385 2.71733
132 5 15.3766 8.02043 3.28766
133 5 13.7154 7.32972 3.34219
134 6 7.50526 5.15564 1.76004
135 7 7.79854 4.82996 0.412375
136 7 9.10124 4.04979 0.274063
137 5 6.8105 4.23423 9.25206
138 5 7.68058 5.76203 9.1494
139 7 9.64102 3.40564 1.55885
140 5 8.75136 3.25501 8.84263
141 5 9.65161 4.72858 9.18846
142 5 10.6462 3.74724 1.80044
143 5 9.05819 3.59846 2.462
144 5 9.78698 2.33208 1.3865
145 6 12.6006 10.2239 9.1571
146 7 12.4193 10.8174 1.06395
147 7 13.5592 11.2527 1.9294
148 5 11.9807 10.0281 1.69362
149 5 11.7271 11.6893 0.938801
150 7 13.944 10.4901 3.169
151 5 13.1783 0.455335 2.37923
152 5 14.4291 11.2142 1.27133
153 5 13.2182 9.68416 3.37398
154 5 14.0148 11.1691 4.0331
155 5 14.9743 10.1093 3.06714
156 6 5.14458 1.98947 1.16924
157 7 4.71301 2.74472 9.32447
158 7 3.36175 2.38151 8.7106
159 5 5.48421 2.57992 8.53953
160 5 4.86367 3.81651 0.240416
161 7 3.05289 3.23997 7.48287
162 5 2.76723 2.50276 0.12335
163 5 3.35435 1.32361 8.41503
164 5 2.69137 4.24265 7.78756
165 5 2.28199 2.74637 6.86098
166 5 3.95279 3.36678 6.85313
167 6 11.1296 6.79939 6.72207
168 7 11.661 7.76474 5.84734
169 7 13.107 7.84162 6.20735
170 5 11.2094 8.76628 5.94856
171 5 11.5448 7.45905 4.79601
172 7 13.836 9.10226 5.84399
173 5 13.5652 6.99632 5.67521
174 5 13.1634 7.76069 7.31171
175 5 13.1094 9.82596 5.47302
176 5 14.65 8.89077 5.13583
177 5 14.3383 9.54459 6.71288
178 6 14.8125 4.26575 1.19333
179 7 15.6458 4.91789 0.322235
180 8 1.08235 4.88234 0.838918
181 5 15.4804 4.37155 8.70151
182 5 15.2669 5.87675 0.144102
183 9 1.4547 3.90999 1.8342
184 5 1.85715 5.34428 0.248004
185 10 4.82753 5.80213 7.63799
186 10 1.75901 8.89269 3.66534
187 10 3.69512 0.517328 2.6093
188 10 0.0806165 2.82173 7.18027
