188
Atoms. Timestep: 0
Ni 2.89857 9.41116 8.59265
Ni 6.17525 3.10579 3.48481
O 1.44827 4.35425 3.93374
O 4.4416 8.15245 9.05464
O 4.63665 1.84729 3.87523
O 1.36499 10.6744 9.00295
O 5.80609 4.46033 4.96242
O 2.54244 8.0327 10.0675
O 0.25117 1.69264 4.94273
O 3.23722 10.8047 10.0626
N 3.69677 10.6606 7.2416
N 0.71256 1.8642 2.11704
N 2.17217 8.14409 7.25198
N 5.44023 4.39481 2.13747
C 3.48546 12.1483 5.36301
C 0.47488 0.38955 0.2292
H 2.86453 12.5181 4.55267
H 5.86971 0.03371 9.69377
C 4.76073 0.1474 5.61481
C 1.74333 12.3699 0.47412
C 5.50345 12.1502 6.68209
C 2.49852 0.35508 1.54004
H 0.24768 12.5084 6.91993
H 3.49155 12.5067 1.77336
C 2.48363 6.6337 5.40822
C 5.72803 5.90364 0.28669
H 3.13294 6.27291 4.61605
H -0.10828 6.26667 9.7662
C 2.92756 7.68099 6.23068
C 6.1883 4.86756 1.11596
H 3.89994 8.14655 6.0889
C 2.98256 11.1359 6.19748
C -0.01036 1.40553 1.07106
H 1.99392 10.709 6.04703
C 4.93641 11.1381 7.47507
C 1.94823 1.3719 2.3406
H 2.50886 1.79214 3.17267
C 0.94573 7.62654 7.47302
C 4.21083 4.90458 2.35686
H 3.63605 4.47744 3.17528
C 0.43859 6.57577 6.69176
C 3.68763 5.945 1.56944
H 5.70774 6.17693 6.91975
H 2.69824 6.32683 1.80071
C 1.22745 6.06471 5.65205
C 4.46338 6.45777 0.52027
C 5.3126 1.24381 4.79419
C 2.0502 11.2675 9.92158
C 0.73548 4.94016 4.83586
C 3.73174 7.56629 9.95688
Ni 9.15137 9.41116 8.59265
Ni 12.4281 3.10579 3.48481
O 7.70109 4.35425 3.93374
O 10.6944 8.15245 9.05464
O 10.8895 1.84729 3.87523
O 7.61779 10.6744 9.00295
O 12.0589 4.46033 4.96242
O 8.79524 8.0327 10.0675
O 6.50397 1.69264 4.94273
O 9.49002 10.8047 10.0626
N 9.94957 10.6606 7.2416
N 6.96536 1.8642 2.11704
N 8.42499 8.14409 7.25198
N 11.693 4.39481 2.13747
C 9.73826 12.1483 5.36301
C 6.72768 0.38955 0.2292
H 9.11733 12.5181 4.55267
H 12.1225 0.03371 9.69377
C 11.0135 0.1474 5.61481
C 7.99613 12.3699 0.47412
C 11.7562 12.1502 6.68209
C 8.75132 0.35508 1.54004
H 6.50047 12.5084 6.91993
H 9.74435 12.5067 1.77336
C 8.73644 6.6337 5.40822
C 11.9808 5.90364 0.28669
H 9.38574 6.27291 4.61605
H 6.14452 6.26667 9.7662
C 9.18036 7.68099 6.23068
C 12.4411 4.86756 1.11596
C 9.23536 11.1359 6.19748
C 6.24244 1.40553 1.07106
H 8.24672 10.709 6.04703
C 11.1892 11.1381 7.47507
C 8.20102 1.3719 2.3406
H 8.76167 1.79214 3.17267
C 7.19853 7.62654 7.47302
C 10.4636 4.90458 2.35686
H 6.61608 8.05184 8.28732
H 9.88885 4.47744 3.17528
C 6.69139 6.57577 6.69176
C 9.94043 5.945 1.56944
H 11.9605 6.17693 6.91975
H 8.95104 6.32683 1.80071
C 7.48025 6.06471 5.65205
C 10.7162 6.45777 0.52027
C 11.5654 1.24381 4.79419
C 8.303 11.2675 9.92158
C 6.98827 4.94016 4.83586
C 9.98454 7.56629 9.95688
O 5.71376 10.6421 8.52325
C 5.31826 9.65038 9.40006
C 6.66868 9.38619 0.12718
H 4.40669 9.9769 9.94804
H 5.10202 8.71622 8.83578
C 6.27963 8.29519 1.12048
H 7.35598 9.06957 9.8548
H 6.89308 10.3214 0.68499
H 6.06994 7.34378 0.58662
H 7.11398 8.1264 1.83342
H 5.37775 8.59863 1.69379
O 11.234 1.92376 0.78384
C 10.606 2.92165 1.50394
C 9.2428 3.2122 0.87901
H 11.225 3.84586 1.48117
H 10.4645 2.59104 2.5568
C 8.50717 4.31087 1.64064
H 8.62646 2.28696 0.89162
H 9.15406 3.533 10.0979
H 8.33889 4.00369 2.6949
H 7.52229 4.49887 1.16357
H 9.09593 5.25279 1.62428
O 0.12857 8.11648 8.49089
C 0.46665 9.14297 9.35151
C 12.0459 9.38722 0.04786
H 1.37761 8.86473 9.92647
H 0.6597 10.0712 8.76937
C 12.3712 10.5154 1.02236
H 10.9044 9.65547 9.74867
H 11.8449 8.45744 0.62337
H 0.05078 11.4614 0.4701
H 11.5155 10.6687 1.71313
H 0.76544 10.2605 1.62188
O 7.4504 4.34412 0.84378
C 8.05529 3.3263 1.55569
C 9.42839 3.03659 0.95235
H 8.1783 3.63413 2.61774
H 7.42915 2.40822 1.50154
C 10.1392 1.91613 1.70578
H 9.08063 2.73864 10.1623
H 10.0521 3.95592 0.99639
H 9.54301 0.97997 1.65818
H 11.1319 1.72927 1.24478
H 10.2887 2.20019 2.7693
O 11.9666 10.6421 8.52326
C 11.571 9.65057 9.40023
C 0.41582 9.3863 0.12727
H 11.3545 8.71636 8.83609
H 10.6595 9.97734 9.94823
C 0.02662 8.29558 1.12082
H 0.64051 10.3215 0.68489
H 1.10299 9.06937 9.85484
H 11.6305 8.59936 1.69419
H 0.86101 8.1267 1.83369
H 12.3222 7.34414 0.58718
O 4.98115 1.92376 0.78384
C 4.35322 2.92165 1.50394
C 2.99 3.2122 0.87901
H 4.97222 3.84586 1.48117
H 4.21169 2.59104 2.5568
C 2.25437 4.31087 1.64064
H 2.37366 2.28696 0.89162
H 2.90126 3.533 10.0979
H 2.08609 4.00369 2.6949
H 1.26949 4.49887 1.16357
H 2.84313 5.25279 1.62428
O 10.4315 8.22621 5.95399
C 11.0192 9.25799 6.66015
C -0.12003 9.57003 6.05258
H 11.1501 8.95711 7.72327
H 10.3764 10.1642 6.60337
C 0.57183 10.7065 6.79957
H 12.2578 9.86106 4.98718
H 0.52042 8.66242 6.09924
H -0.04143 11.6315 6.74921
H 1.56 10.9094 6.33561
H 0.72869 10.4299 7.864
O 1.1976 4.3441 0.84378
C 1.80247 3.32629 1.55569
C 3.17557 3.03656 0.95235
H 1.92549 3.63412 2.61775
H 1.17634 2.40822 1.50154
C 3.8864 1.91611 1.70578
H 2.82782 2.73862 10.1623
H 3.79929 3.95589 0.99639
H 3.29018 0.97994 1.65819
H 4.87911 1.72923 1.24479
H 4.03586 2.20016 2.76931
188
Atoms. Timestep: 884
Ni 2.17998 9.40283 8.78709
Ni 6.08752 3.25083 4.12221
O -0.360226 4.3222 4.24551
O 3.54015 8.25051 8.83828
O 4.60368 2.32884 4.22623
O 0.780069 10.5322 8.86794
O 5.67994 4.50679 5.34683
O 2.03741 8.30124 0.833435
O -1.30174 1.99928 5.409
O 2.84523 10.7175 0.690833
N 3.06121 10.4594 7.46708
N -0.966887 2.17128 2.73397
N 1.26224 8.16332 7.52843
N 5.32386 4.49133 2.75047
C 3.10382 12.0885 5.69208
C -0.269288 1.41299 0.499783
H 2.5422 0.954938 5.06948
H 6.91957 0.767849 9.00634
C 4.50267 0.426463 5.82469
C 0.931255 0.775698 1.04402
C 5.17344 11.397 6.71177
C 1.27368 1.17505 2.31494
H -1.78589 11.787 7.52851
H 2.22248 0.883096 2.72991
C 1.16435 6.58168 5.65202
C 5.27793 6.3242 1.11724
H 1.6408 6.168 4.78872
H 12.654 5.46723 9.03924
C 1.83428 7.63262 6.40027
C 5.99405 5.31815 1.86189
H 2.78494 8.01402 6.06609
C 2.41206 11.1235 6.46231
C -1.31575 1.96071 1.38534
H 1.34601 11.0163 6.33739
C 4.42579 10.7669 7.72919
C 0.328619 1.84165 3.13405
H 0.656836 2.13647 4.11352
C -0.00700148 7.7114 7.87789
C 4.00629 4.83484 3.04098
H 3.48629 4.31269 3.82532
C -0.627736 6.6306 7.18504
C 3.31788 5.89889 2.39821
H 6.12891 7.48691 5.89323
H 2.30053 6.12985 2.68886
C -0.0860699 6.04978 6.07848
C 3.93208 6.62492 1.38917
C 5.18674 1.61943 5.18738
C 1.41142 11.3089 9.72527
C -0.896681 4.97197 5.2615
C 2.96488 7.63176 9.85203
Ni 9.89028 9.12388 8.7423
Ni 14.1256 3.28079 4.16742
O 7.58518 4.18017 4.24958
O 11.257 8.05254 8.96121
O 12.714 2.23343 4.31671
O 8.46024 10.2179 8.749
O 13.7758 4.44052 5.5423
O 9.46986 7.80393 0.531428
O 6.44461 2.0875 5.45635
O 10.3463 10.1885 0.829039
N 10.9519 10.408 7.65043
N 6.86797 1.90362 2.87513
N 9.24254 8.08595 7.18268
N 13.1716 4.49985 2.95626
C 11.2422 11.9112 5.74058
C 7.39128 0.903477 0.704741
H 10.8033 0.54192 4.86138
H -0.670987 1.33053 8.78877
C 12.5854 0.424594 6.09158
C 8.514 12.0039 1.23049
C 13.0996 11.6438 7.26991
C 8.74767 12.1486 2.58564
H 6.24183 11.4953 6.83113
H 9.54277 11.5949 3.04808
C 9.06829 5.8471 6.23847
C 12.6376 5.44792 0.763484
H 9.58177 4.95754 5.89665
H 5.60331 6.92096 9.72598
C 9.83932 6.92011 6.76047
C 13.5762 4.76275 1.70302
C 10.4241 11.0705 6.56876
C 6.47404 1.60826 1.59338
H 9.38292 10.9136 6.29259
C 12.278 10.7215 8.05358
C 7.94944 1.18424 3.38432
H 8.31962 1.40152 4.36765
C 7.94587 8.31345 6.75511
C 11.9321 4.96638 3.37818
H 7.523 9.30101 6.82378
H 11.6021 4.73692 4.38069
C 7.1404 7.26698 6.21699
C 11.1166 5.8465 2.58392
H -1.61518 6.31658 7.46567
H 10.2253 6.2937 3.02438
C 7.69624 6.00275 5.97671
C 11.4414 6.10382 1.24948
C 13.3599 1.48803 5.21824
C 9.00352 10.8438 9.79131
C 6.95993 4.94401 5.14948
C 10.5499 7.2784 9.76325
O 4.88324 10.9925 9.06457
C 5.40432 9.84798 9.75555
C 6.26517 10.0625 1.81212
H 4.7703 9.40298 0.858182
H 6.00473 9.18184 9.09192
C 5.76191 9.18066 2.98385
H 7.32783 9.80338 1.73783
H 6.0696 11.0764 2.15432
H 6.10203 8.13388 2.8612
H 6.17888 9.56039 3.94048
H 4.65233 9.20252 3.07828
O 13.266 1.65213 1.06036
C 12.3576 2.56967 9.57548
C 11.2055 2.03451 8.70398
H 13.0117 3.13698 8.92311
H 11.9858 3.17097 0.92367
C 10.9878 2.87379 7.42463
H 10.2641 2.03264 9.25852
H 11.302 0.997905 8.48625
H 10.7983 3.92228 7.69655
H 11.9184 2.9319 6.83333
H 10.1367 2.48024 6.81954
O -0.818061 8.48816 8.68114
C -0.460413 8.20854 0.724266
C 14.1675 7.85289 1.36532
H 0.200714 7.34227 0.965268
H -0.0451776 9.10861 1.14047
C 13.8189 7.85178 2.83769
H 13.3576 7.94205 0.69183
H -1.61503 6.86232 1.36159
H 12.8998 7.32908 2.97269
H -1.34179 7.33122 3.4483
H 13.4217 8.78824 3.21449
O 7.35288 5.31233 1.80274
C 7.56809 5.13078 9.79851
C 8.76351 4.20042 9.73009
H 6.8119 4.74723 9.09276
H 7.79855 6.11047 9.35921
C 9.33186 3.61964 1.75357
H 8.49559 3.36546 9.05322
H 9.59985 4.72872 9.27434
H 10.1348 2.89437 1.83695
H 9.3437 4.31174 2.588
H 8.49395 3.06922 1.98819
O 12.8939 10.0121 9.10313
C 12.9138 10.526 1.10121
C -1.69096 10.9272 1.80428
H 12.3939 9.78669 1.72349
H 12.2398 11.4055 1.08917
C -0.844412 10.4927 3.0402
H 13.8768 11.7902 2.33978
H -1.01164 11.0388 0.968721
H -1.34939 10.7755 3.96558
H 0.0944266 11.0398 3.09064
H -0.421889 9.48742 3.11763
O 5.13159 1.5808 1.30667
C 4.81405 2.6824 0.50696
C 4.1042 2.23027 8.5088
H 5.45776 3.34189 9.62745
H 4.02937 3.2393 1.0149
C 3.7169 3.40532 7.63555
H 3.25163 1.53925 8.62669
H 4.94867 1.71531 8.04463
H 2.90129 3.99271 8.06352
H 3.40332 3.03972 6.64867
H 4.56904 4.09116 7.52787
O 11.1868 6.84158 6.6792
C 11.6484 7.76827 5.72371
C 13.0673 7.96731 6.0975
H 11.1457 8.74923 5.72351
H 11.5763 7.33663 4.71318
C 13.7909 9.18833 5.66079
H 13.5544 7.11058 5.6195
H 13.108 7.99849 7.2041
H 13.0869 9.88702 5.17558
H -1.29702 8.87959 5.04038
H -1.5902 9.64121 6.4911
O -1.00306 4.5466 1.44187
C -0.754262 4.75776 9.48403
C 0.72297 4.75386 9.46163
H -1.10415 4.05916 8.70097
H -0.981644 5.75537 9.28724
C 1.65483 3.79511 0.871579
H 1.25953 5.50296 8.89677
H 4.01837 6.17587 5.82583
H 2.15931 9.65663 3.73221
H 4.03848 11.4839 3.10052
H 1.44031 3.44576 5.86813
188
Atoms. Timestep: 6278
Ni 2.33197 9.29458 8.75534
Ni 6.13236 3.28325 4.07921
O -0.240785 4.17085 4.26298
O 3.7299 8.1918 8.79948
O 4.66367 2.301 4.15816
O 0.918993 10.3856 8.83993
O 5.6683 4.48585 5.34567
O 2.17368 8.15464 0.730096
O -1.42744 1.95807 5.43322
O 2.93553 10.5393 0.720917
N 3.19771 10.4191 7.48588
N -0.937064 1.98152 2.76761
N 1.44626 8.08866 7.46133
N 5.4098 4.50717 2.74495
C 3.23389 11.9562 5.62525
C -0.037758 1.21293 0.584579
H 2.67617 0.70441 4.89666
H 6.86878 0.84128 8.91898
C 4.59737 12.2557 5.85286
C 0.952182 0.392708 1.21708
C 5.26513 11.5283 6.84507
C 0.94888 0.392972 2.59603
H 13.9265 11.6919 7.39505
H 1.58243 11.519 3.13361
C 1.39239 6.36492 5.70067
C 5.49972 6.40193 1.2071
H 1.90632 5.85542 4.90234
H 12.6503 5.49009 8.99311
C 2.08182 7.40805 6.44237
C 6.14761 5.33289 1.91273
H 3.10375 7.65598 6.18806
C 2.56994 10.9734 6.40646
C -1.09546 1.87067 1.37264
H 1.5379 10.726 6.19621
C 4.5097 10.8395 7.8232
C 0.162832 1.32209 3.31426
H 0.492443 1.56644 4.30904
C 0.148221 7.68761 7.80106
C 4.09402 4.84883 2.99011
H 3.54162 4.32485 3.75371
C -0.45504 6.54955 7.18305
C 3.49674 5.98818 2.42243
H 6.08994 7.50415 5.81303
H 2.50569 6.28993 2.73246
C 0.0763592 5.95132 6.065
C 4.12943 6.66311 1.40381
C 5.27195 1.59185 5.11788
C 1.50946 11.1072 9.76604
C -0.75519 4.87674 5.25856
C 3.34798 7.54702 0.450558
Ni 9.74269 9.12527 8.70161
Ni -1.76726 3.24299 4.15097
O 7.5881 4.23679 4.24241
O 11.2183 8.14385 8.93577
O 12.6556 2.29947 4.27254
O 8.231 10.1274 8.71725
O 13.8777 4.45172 5.49914
O 9.42607 7.71343 0.442121
O 6.51659 2.08736 5.37723
O 10.0815 10.1234 0.806357
N 10.7119 10.5224 7.65214
N 6.93011 2.05976 2.76628
N 9.19007 8.11186 7.11555
N 13.294 4.56654 2.90882
C 10.9884 12.0634 5.75502
C 7.31343 0.949433 0.622352
H 10.5402 0.737644 4.90528
H -0.303918 1.18547 8.84917
C 12.3524 0.5105 6.07099
C 8.32977 11.9402 1.18777
C 12.8643 11.6539 7.19153
C 8.6521 0.343334 2.51889
H 6.32332 11.6835 6.99787
H 9.43273 11.5754 2.98869
C 9.00623 5.8565 6.24315
C 12.6258 5.40546 0.706495
H 9.50531 4.95183 5.92851
H 6.06538 7.01055 0.514644
C 9.77837 6.92609 6.75469
C 13.6136 4.78804 1.61501
C 10.1881 11.1566 6.54653
C 6.50204 1.81774 1.46848
H 9.16457 10.972 6.25833
C 12.0201 10.859 8.03989
C 8.02798 1.36781 3.24509
H 8.46811 1.65393 4.18737
C 7.91611 8.34959 6.62994
C 12.1296 5.16445 3.3957
H 7.50484 9.34553 6.64776
H 11.7966 4.93243 4.39624
C 7.10232 7.29499 6.13738
C 11.3004 6.03711 2.60231
H -1.41057 6.19675 7.52389
H 10.4302 6.49879 3.05063
C 7.63908 6.0135 5.97908
C 11.5131 6.17294 1.23041
C 13.2109 1.52532 5.20546
C 8.7161 10.707 9.81472
C 6.93587 4.96201 5.15036
C 10.5524 7.29442 9.70763
O 4.8529 11.1174 9.1806
C 5.61608 10.0378 0.616603
C 5.97586 10.3616 2.10245
H 4.86888 9.36994 0.865906
H 6.1693 9.45525 9.41513
C 5.18068 9.61041 3.19026
H 7.02326 10.0616 2.28496
H 5.81356 11.4179 2.32576
H 5.37926 8.52125 3.13377
H 5.50146 9.96067 4.19377
H 4.09184 9.79793 3.08438
O 13.549 2.02192 0.833402
C 13.2141 2.4636 8.82258
C 11.7236 2.4949 8.50212
H 13.7805 1.87578 8.1124
H 13.5645 3.46835 8.63415
C 11.3172 3.33803 7.30118
H 11.2811 2.96591 9.35849
H 11.2679 1.49474 8.45603
H 11.2072 4.39637 7.59008
H 12.0662 3.31127 6.51536
H 10.3522 2.97003 6.89477
O -0.673483 8.51585 8.58357
C -0.337506 8.29488 0.646595
C -1.60082 7.96397 1.33527
H 0.252013 7.41972 0.890733
H 0.0558368 9.18625 1.16344
C -1.31648 7.39672 2.7423
H 13.7022 8.79732 1.41738
H 13.7819 7.37355 0.643427
H -0.796963 6.42616 2.70697
H -0.587316 8.02489 3.28013
H 13.6851 7.33709 3.32844
O 7.50593 5.1492 1.76674
C 7.79894 4.8314 0.417259
C 8.89118 4.0453 9.61385
H 6.80698 4.24347 9.25495
H 7.68802 5.76809 9.16612
C 9.63545 3.39512 1.55882
H 8.74297 3.25291 8.84679
H 9.65238 4.72141 9.19538
H 10.6456 3.72919 1.79533
H 9.05645 3.58978 2.4642
H 9.76605 2.31945 1.38613
O 12.6104 10.2533 9.14786
C 12.4331 10.8512 1.05028
C 13.5763 11.2825 1.91555
H 11.9904 10.0666 1.68202
H 11.7442 11.7257 0.924117
C 13.9577 10.5173 3.15622
H 13.1996 0.397191 2.36637
H -1.48879 11.2442 1.25753
H 13.2286 9.71445 3.36063
H 14.0267 11.1965 4.02267
H -0.948064 10.129 3.05434
O 5.14821 1.95974 1.17086
C 4.72014 2.71963 9.3328
C 3.37371 2.35035 8.71148
H 5.497 2.56329 8.55128
H 4.86501 3.79013 0.25083
C 3.05967 3.2185 7.49222
H 2.56916 2.45607 9.45771
H 3.37752 1.29509 8.40522
H 2.69651 4.21756 7.8071
H 2.28783 2.72846 6.86842
H 3.95802 3.3525 6.86162
O 11.131 6.81653 6.73507
C 11.6559 7.77499 5.84813
C 13.1042 7.86143 6.19918
H 11.1997 8.7757 5.94119
H 11.5364 7.45702 4.80065
C 13.8233 9.12861 5.83532
H 13.567 7.01843 5.66507
H 13.1651 7.78149 7.3032
H 13.0933 9.84996 5.46187
H -1.29428 8.9207 5.12802
H -1.60958 9.57231 6.70557
O -1.14615 4.24074 1.17656
C -0.520793 4.90757 9.65176
C 1.07522 4.872 0.828737
H -0.480381 4.37235 8.6903
H -0.900035 5.87032 9.48352
C 1.45455 3.88639 1.80786
H 1.63978 5.35345 9.58616
H 4.82537 5.79418 7.6532
H 1.74823 8.93204 3.67149
H 3.70039 12.2996 2.61055
H 0.0819906 2.79483 7.19522
188
Atoms. Timestep: 6281
Ni 2.33153 9.28354 8.75308
Ni 6.1324 3.29409 4.07988
O -0.241664 4.17846 4.2635
O 3.72967 8.18477 8.79716
O 4.6635 2.31541 4.15876
O 0.918354 10.3706 8.83759
O 5.66828 4.49232 5.34554
O 2.17308 8.14775 0.732854
O -1.42846 1.97371 5.43305
O 2.93507 10.5237 0.723683
N 3.19737 10.404 7.48443
N -0.938089 1.99709 2.7691
N 1.44568 8.08202 7.4599
N 5.40973 4.51354 2.74646
C 3.23353 11.9355 5.62493
C -0.0386761 1.23131 0.58741
H 2.67572 0.724637 4.8968
H 6.86901 0.860999 8.91661
C 4.59722 0.460055 5.85241
C 0.951424 0.414068 1.21953
C 5.2651 11.5092 6.84401
C 0.94815 0.414314 2.59762
H 13.9278 11.6721 7.39365
H 1.5818 11.4998 3.13487
C 1.39178 6.36454 5.70031
C 5.49963 6.40144 1.20954
H 1.90576 5.85689 4.90248
H 12.6514 5.4929 8.99069
C 2.08131 7.40388 6.44155
C 6.14761 5.33628 1.91474
H 3.1034 7.65091 6.1874
C 2.5695 10.9562 6.40566
C -1.09651 1.88663 1.37499
H 1.5373 10.7098 6.19554
C 4.50958 10.8229 7.82152
C 0.161996 1.34006 3.3154
H 0.491666 1.58352 4.30956
C 0.147449 7.68241 7.79939
C 4.09374 4.85396 2.99146
H 3.54128 4.33189 3.75459
C -0.455903 6.5485 7.18177
C 3.49637 5.98918 2.42412
H 6.09001 7.49964 5.8126
H 2.50517 6.28983 2.73397
C 0.0755455 5.95244 6.06442
C 4.12913 6.66165 1.40613
C 5.27188 1.60883 5.1179
C 1.50892 11.0896 9.76316
C -0.756128 4.88178 5.25849
C 3.14083 7.54232 9.7856
Ni 9.74334 9.11486 8.69939
Ni -1.76837 3.25397 4.15159
O 7.58837 4.24415 4.24295
O 11.2192 8.13701 8.93338
O 12.6566 2.31389 4.27306
O 8.23142 10.1134 8.715
O 13.8789 4.45832 5.49892
O 9.21979 7.70813 9.77716
O 6.51673 2.10254 5.37708
O 10.0821 10.1094 0.809067
N 10.7127 10.5069 7.65058
N 6.93023 2.07504 2.76777
N 9.19062 8.10514 7.11432
N 13.2951 4.57271 2.91022
C 10.9892 12.0423 5.75462
C 7.31359 0.968764 0.625161
H 10.5409 0.757749 4.90542
H -0.304733 1.20393 8.84685
C 12.3534 0.531425 6.07041
C 8.33009 11.9195 1.19024
C 12.8654 11.6343 7.19025
C 8.65249 12.1387 2.52052
H 6.32344 11.6638 6.99671
H 9.43324 11.5561 2.99004
C 9.00674 5.85795 6.24246
C 12.6267 5.40856 0.709254
H 9.50588 4.95658 5.92801
H 6.06535 7.00783 0.517523
C 9.77898 6.92366 6.75367
C 13.6147 4.79341 1.6172
C 10.1887 11.1388 6.54564
C 6.50209 1.83392 1.47077
H 9.16509 10.9548 6.25763
C 12.021 10.8423 8.03807
C 8.02829 1.38561 3.24627
H 8.4685 1.6707 4.18798
C 7.91645 8.34202 6.62901
C 12.1305 5.16845 3.39679
H 7.50512 9.33433 6.64682
H 11.7975 4.93726 4.39671
C 7.10254 7.29123 6.13676
C 11.3012 6.03794 2.60389
H -1.41157 6.19698 7.5224
H 10.4309 6.49793 3.05193
C 7.63938 6.0144 5.97856
C 11.5139 6.17326 1.23286
C 13.2119 1.54254 5.20542
C 8.92334 10.6909 0.479705
C 6.93606 4.96675 5.15036
C 10.5532 7.29065 9.70478
O 4.85284 11.0997 9.17808
C 5.616 10.024 0.61943
C 5.97585 10.3467 2.10434
H 4.86869 9.35863 0.868582
H 6.16944 9.44362 9.41245
C 5.18056 9.59824 3.19148
H 7.02341 10.0477 2.28675
H 5.81352 11.3991 2.32752
H 5.37918 8.51301 3.13502
H 5.50141 9.94721 4.19437
H 4.09156 9.78507 3.08567
O 13.5501 2.03734 0.836098
C 13.2153 2.47741 8.82027
C 11.7246 2.50861 8.50003
H 13.7818 1.89173 8.11054
H 13.5657 3.47852 8.63196
C 11.318 3.34866 7.29982
H 11.282 2.9779 9.35586
H 11.2688 1.51207 8.45396
H 11.2081 4.40317 7.58855
H 12.0672 3.32201 6.5145
H 10.3529 2.982 6.89367
O -0.674366 8.50767 8.58141
C -0.338475 8.28748 0.649404
C -1.60195 7.95777 1.33765
H 0.251148 7.4155 0.893393
H 0.0549451 9.17562 1.16593
C -1.31755 7.3926 2.7438
H 13.7033 8.7881 1.4197
H 13.783 7.36951 0.646227
H -0.797948 6.42554 2.70849
H -0.588261 8.01848 3.28129
H 13.6863 7.33318 3.32957
O 7.50614 5.15325 1.76886
C 7.59244 4.83659 9.75231
C 8.89172 4.05337 9.61105
H 6.80721 4.2508 9.25237
H 7.68838 5.76991 9.1636
C 9.63597 3.40556 1.56107
H 8.74348 3.26385 8.84446
H 9.65304 4.72702 9.19284
H 10.6463 3.7384 1.79742
H 9.0569 3.5995 2.46588
H 9.76659 2.33378 1.38847
O 12.6115 10.2388 9.14535
C 12.434 10.8345 1.05283
C 13.5774 11.2642 1.91756
H 11.9912 10.0527 1.68419
H 11.745 11.7058 0.92675
C 13.9588 10.5018 3.15746
H 13.2006 0.41854 2.36811
H -1.4899 11.2261 1.25995
H 13.2296 9.70188 3.36174
H 14.0279 11.1785 4.02338
H -0.949069 10.115 3.05564
O 5.14806 1.97538 1.17336
C 4.72006 2.73252 9.33016
C 3.37343 2.36458 8.70926
H 5.49702 2.57674 8.54914
H 4.65808 3.79914 9.58599
C 3.05932 3.22957 7.49074
H 2.56877 2.46992 9.45502
H 3.37723 1.31314 8.40317
H 2.6961 4.22501 7.80543
H 2.28735 2.74131 6.86734
H 3.9578 3.36308 6.86054
O 11.1319 6.81449 6.73409
C 11.6568 7.7695 5.84768
C 13.1053 7.85561 6.19852
H 11.2006 8.76657 5.94068
H 11.5373 7.45267 4.80085
C 13.8245 9.11818 5.83488
H 13.5682 7.01567 5.66474
H 13.1662 7.77596 7.30185
H 13.0944 9.83692 5.46166
H -1.2953 8.91103 5.12803
H -1.61062 9.56027 6.7046
O -1.14721 4.2481 1.17904
C -0.521618 4.9125 9.64894
C 1.07446 4.87706 0.831422
H -0.481225 4.37922 8.68807
H -0.900933 5.87175 9.4808
C 1.45387 3.89501 1.80996
H 1.63927 5.35676 9.58338
H 4.82529 5.79589 7.65163
H 1.74762 8.92232 3.6724
H 3.70006 0.503702 2.61213
H 0.081203 2.80744 7.19394
188
Atoms. Timestep: 9491
Ni 2.33436 9.28517 8.75188
Ni 6.13109 3.29358 4.07918
O -0.242609 4.17875 4.26257
O 3.72964 8.18205 8.79329
O 4.66428 2.31261 4.15664
O 0.924412 10.3763 8.83571
O 5.66554 4.49416 5.34497
O 2.17472 8.14744 0.730661
O -1.42981 1.97129 5.43523
O 2.94026 10.5281 0.72304
N 3.19904 10.4048 7.48517
N -0.940031 1.99296 2.77123
N 1.44776 8.08384 7.46015
N 5.40941 4.51427 2.74729
C 3.23781 11.9313 5.61981
C -0.0360479 1.23437 0.588402
H 2.6811 0.722562 4.89051
H 6.87191 0.8645 8.91319
C 4.60094 0.454456 5.848
C 0.955599 0.417391 1.22025
C 5.26845 11.5038 6.84152
C 0.949055 0.410267 2.59856
H 13.9219 11.671 7.39901
H 1.58274 11.492 3.13431
C 1.39163 6.36461 5.69823
C 5.49892 6.40102 1.20363
H 1.9044 5.85427 4.89993
H 12.6583 5.49596 8.9897
C 2.08199 7.40534 6.43961
C 6.14691 5.33544 1.9112
H 3.10383 7.65308 6.18471
C 2.57246 10.9545 6.40363
C -1.09544 1.88653 1.37595
H 1.53985 10.7085 6.19458
C 4.51296 10.8198 7.82065
C 0.159245 1.33322 3.31855
H 0.487657 1.5757 4.31409
C 0.15004 7.68395 7.80158
C 4.09564 4.85905 2.99669
H 3.54474 4.33824 3.76352
C -0.45429 6.54905 7.18216
C 3.50007 5.9972 2.42893
H 6.09003 7.51019 5.80726
H 2.51037 6.30193 2.74025
C 0.0758809 5.95348 6.06341
C 4.12997 6.66373 1.4044
C 5.27364 1.60441 5.11528
C 1.51517 11.0965 9.76128
C -0.756601 4.88466 5.25706
C 3.14032 7.53815 9.78142
Ni 9.73888 9.11329 8.69674
Ni -1.76888 3.2541 4.15245
O 7.58519 4.24606 4.24079
O 11.2148 8.13488 8.92761
O 12.6565 2.31408 4.27325
O 8.22662 10.1116 8.71355
O 13.8785 4.46227 5.49859
O 9.21598 7.69834 9.76917
O 6.51729 2.09967 5.37621
O 10.0762 10.1037 0.809564
N 10.7054 10.5129 7.65495
N 6.92728 2.07324 2.76795
N 9.19063 8.10851 7.10794
N 13.2962 4.57538 2.91114
C 10.9864 12.0473 5.75589
C 7.31327 0.969918 0.623391
H 10.5407 0.763568 4.9042
H -0.300571 1.20939 8.84701
C 12.3502 0.533344 6.07307
C 8.32844 11.9178 1.18945
C 12.8597 11.6362 7.1953
C 8.64973 12.1344 2.52063
H 6.32667 11.659 6.99414
H 9.43057 11.5494 2.98993
C 9.00153 5.8548 6.23973
C 12.6306 5.40846 0.707958
H 9.49783 4.94903 5.9241
H 6.0624 7.00458 0.505241
C 9.77635 6.92238 6.74703
C 13.6188 4.7973 1.61913
C 10.1832 11.1468 6.5489
C 6.50008 1.83423 1.46958
H 9.15889 10.9663 6.26176
C 12.0134 10.8464 8.04379
C 8.02501 1.38197 3.24708
H 8.46617 1.66909 4.18853
C 7.91911 8.35098 6.61948
C 12.1301 5.17076 3.39603
H 7.51192 9.34851 6.63384
H 11.7962 4.93893 4.39631
C 7.10176 7.29873 6.1322
C 11.3007 6.03985 2.60074
H -1.40912 6.19523 7.52355
H 10.4291 6.50086 3.0471
C 7.63496 6.01598 5.97766
C 11.5137 6.17056 1.22887
C 13.2103 1.5415 5.20709
C 8.91775 10.6864 0.48072
C 6.93223 4.97019 5.14824
C 10.5501 7.28334 9.69678
O 4.85988 11.0969 9.17772
C 5.61817 10.0154 0.620868
C 5.98077 10.337 2.10677
H 4.86666 9.35385 0.872993
H 6.16754 9.42739 9.41336
C 5.18784 9.58551 3.19623
H 7.02805 10.0356 2.28725
H 5.81877 11.3927 2.33168
H 5.38975 8.49697 3.14211
H 5.50822 9.93828 4.19893
H 4.09842 9.76988 3.09061
O 13.5527 2.03891 0.834492
C 13.2188 2.48276 8.81884
C 11.728 2.51754 8.50117
H 13.7857 1.89719 8.10765
H 13.571 3.48649 8.6315
C 11.3199 3.35563 7.29799
H 11.2909 2.99555 9.35611
H 11.2669 1.51962 8.46322
H 11.2067 4.41384 7.58465
H 12.0692 3.32976 6.5131
H 10.3564 2.98343 6.89207
O -0.671328 8.51328 8.58412
C -0.335755 8.29618 0.653851
C -1.59738 7.96185 1.34285
H 0.253294 7.42239 0.900271
H 0.0561461 9.18867 1.16962
C -1.31069 7.39495 2.74993
H 13.7041 8.79146 1.42408
H 13.7895 7.37191 0.650175
H -0.789138 6.42562 2.71447
H -0.58067 8.023 3.28654
H 13.6941 7.33387 3.33711
O 7.50521 5.15103 1.76497
C 7.59103 4.82989 9.74828
C 8.89132 4.04607 9.60798
H 6.80726 4.23885 9.25078
H 7.68387 5.76452 9.15567
C 9.63702 3.39898 1.55967
H 8.74483 3.25235 8.84198
H 9.65052 4.72325 9.18842
H 10.6444 3.73741 1.79895
H 9.05611 3.59219 2.46399
H 9.77627 2.32451 1.38688
O 12.6014 10.2398 9.15223
C 12.4231 10.837 1.06047
C 13.5659 11.2698 1.92422
H 11.982 10.0515 1.69273
H 11.7328 11.7104 0.934512
C 13.951 10.5056 3.16339
H 13.1874 0.427057 2.37521
H -1.50197 11.2313 1.2648
H 13.2235 9.70142 3.36874
H 14.0226 11.1844 4.02877
H -0.956268 10.1205 3.05988
O 5.14558 1.97345 1.1719
C 4.71542 2.7312 9.32676
C 3.3674 2.36321 8.70843
H 5.48992 2.57184 8.54374
H 4.65507 3.80226 9.58015
C 3.05538 3.22603 7.48472
H 2.56391 2.47562 9.45452
H 3.36734 1.30656 8.40767
H 2.6889 4.22547 7.79422
H 2.287 2.73179 6.86006
H 3.95522 3.35995 6.85638
O 11.1287 6.80986 6.7261
C 11.6567 7.77213 5.84562
C 13.1036 7.85405 6.20195
H 11.2023 8.773 5.94263
H 11.5394 7.46047 4.7961
C 13.8276 9.11837 5.84014
H 13.5645 7.01029 5.66852
H 13.1614 7.77301 7.30612
H 13.0995 9.84073 5.46749
H -1.29199 8.90948 5.13373
H -1.60826 9.56117 6.71055
O -1.13977 4.25362 1.18591
C -0.513498 4.91382 9.65205
C 1.08189 4.87759 0.835778
H -0.47255 4.37388 8.69346
H -0.892338 5.87481 9.48005
C 1.45748 3.89742 1.82187
H 1.6484 5.34925 9.58223
H 4.82333 5.79625 7.64577
H 1.75658 8.91167 3.66496
H 3.70251 0.494653 2.61313
H 0.0845018 2.81002 7.18677
188
Atoms. Timestep: 9500
Ni 2.33052 9.27352 8.75244
Ni 6.13074 3.30484 4.0788
O -0.25071 4.18772 4.26101
O 3.72542 8.1726 8.79283
O 4.66455 2.32653 4.15528
O 0.92153 10.3625 8.83552
O 5.66531 4.50384 5.34437
O 2.17016 8.13756 0.728747
O -1.43754 1.98436 5.43468
O 2.93775 10.5143 0.721591
N 3.19457 10.3906 7.48759
N -0.9486 2.00668 2.77125
N 1.44421 8.07588 7.46286
N 5.40984 4.52177 2.74953
C 3.23544 11.9097 5.61933
C -0.0424256 1.2547 0.587703
H 2.67829 0.745292 4.88937
H 6.87304 0.885113 8.91386
C 4.59932 0.476198 5.84791
C 0.950894 0.441187 1.21963
C 5.26675 11.4823 6.84206
C 0.944419 0.432268 2.59804
H 13.9288 11.6497 7.39915
H 1.57948 11.4703 3.13384
C 1.38655 6.3635 5.69784
C 5.4978 6.40191 1.20213
H 1.89945 5.85448 4.89885
H 12.6645 5.49927 8.99054
C 2.07757 7.40081 6.44014
C 6.14612 5.3398 1.91097
H 3.10038 7.64806 6.18548
C 2.56918 10.9364 6.40401
C -1.10351 1.90176 1.37565
H 1.53573 10.6912 6.19529
C 4.51069 10.8016 7.82205
C 0.153501 1.35172 3.31819
H 0.481397 1.59431 4.31419
C 0.144645 7.67831 7.8027
C 4.09414 4.86373 2.99687
H 3.54264 4.34446 3.76422
C -0.460329 6.54716 7.18204
C 3.49824 5.99886 2.4285
H 6.09073 7.50616 5.80786
H 2.50707 6.30247 2.73918
C 0.0698263 5.95398 6.06294
C 4.12783 6.66312 1.40313
C 5.27281 1.62107 5.11514
C 1.51125 11.0795 9.76277
C -0.763528 4.89076 5.25676
C 3.137 7.53131 9.78183
Ni 9.7423 9.10303 8.69748
Ni -1.77685 3.26572 4.15163
O 7.58509 4.25461 4.23915
O 11.218 8.12672 8.92697
O 12.6646 2.32841 4.27168
O 8.23032 10.0981 8.71414
O 13.8862 4.4721 5.49798
O 9.21914 7.68929 9.76955
O 6.51771 2.11276 5.37545
O 10.0809 10.0906 0.807957
N 10.7084 10.4995 7.65802
N 6.92569 2.08737 2.76903
N 9.1936 8.10202 7.10944
N 13.305 4.58465 2.91148
C 10.9916 12.0255 5.75535
C 7.31443 0.991349 0.622686
H 10.5457 0.785816 4.90305
H -0.307077 1.22889 8.84762
C 12.3562 0.555252 6.07273
C 8.33113 11.8965 1.18842
C 12.8656 11.6151 7.19539
C 8.65238 12.111 2.51994
H 6.32609 11.6381 6.99446
H 9.43476 11.5279 2.98903
C 9.00457 5.85324 6.23888
C 12.6361 5.41005 0.707218
H 9.50136 4.95016 5.92247
H 6.06157 7.00347 0.50284
C 9.7793 6.91851 6.74654
C 13.6258 4.8036 1.6187
C 10.1876 11.1288 6.54944
C 6.49993 1.85247 1.46942
H 9.16254 10.9483 6.26234
C 12.019 10.8287 8.04469
C 8.02629 1.40027 3.24694
H 8.46782 1.68751 4.18864
C 7.9211 8.34549 6.6208
C 12.1359 5.17531 3.39564
H 7.51305 9.34119 6.63485
H 11.8024 4.94346 4.39642
C 7.10358 7.29545 6.13358
C 11.3057 6.04153 2.60035
H -1.41604 6.19443 7.52321
H 10.4326 6.50047 3.04633
C 7.63701 6.01509 5.97866
C 11.5185 6.17 1.22836
C 13.2173 1.55833 5.20683
C 8.92082 10.6698 0.480122
C 6.93364 4.97539 5.14871
C 10.5542 7.27789 9.69806
O 4.85839 11.0809 9.17852
C 5.61779 10.0007 0.619734
C 5.98091 10.3208 2.10608
H 4.86573 9.34085 0.872993
H 6.16831 9.41397 9.41395
C 5.18624 9.57294 3.19621
H 7.02846 10.0202 2.28694
H 5.81791 11.3752 2.33155
H 5.38909 8.48528 3.14196
H 5.50768 9.92465 4.19914
H 4.09643 9.75657 3.09009
O 13.5603 2.05451 0.8334
C 13.2254 2.49678 8.81946
C 11.7339 2.53185 8.5023
H 13.7941 1.9141 8.10839
H 13.5786 3.49928 8.63137
C 11.3252 3.36668 7.29771
H 11.296 3.0088 9.35739
H 11.2714 1.53576 8.46438
H 11.2115 4.42376 7.58542
H 12.0749 3.34154 6.51341
H 10.3606 2.99544 6.89252
O -0.67739 8.50753 8.58518
C -0.34261 8.28927 0.653089
C -1.60429 7.95526 1.34201
H 0.248067 7.41754 0.900433
H 0.0503076 9.17956 1.16947
C -1.31848 7.39061 2.74986
H 13.7117 8.78177 1.42289
H 13.7976 7.36844 0.648668
H -0.795196 6.42293 2.71433
H -0.586942 8.01665 3.28642
H 13.7018 7.32974 3.33691
O 7.50529 5.15607 1.76474
C 7.5922 4.83534 9.74978
C 8.89409 4.05467 9.60915
H 6.80824 4.24565 9.25102
H 7.68522 5.76882 9.15601
C 9.64067 3.4106 1.55936
H 8.74765 3.26198 8.84213
H 9.65386 4.73044 9.18869
H 10.6485 3.74675 1.79818
H 9.0594 3.60286 2.46371
H 9.78055 2.33716 1.38573
O 12.6074 10.2224 9.15316
C 12.4294 10.8195 1.05945
C 13.5729 11.2501 1.92332
H 11.9869 10.0353 1.6923
H 11.738 11.6919 0.933945
C 13.959 10.4888 3.16304
H 13.193 0.450996 2.37575
H -1.51052 11.2107 1.26389
H 13.2299 9.68672 3.36886
H 14.0307 11.1667 4.02884
H -0.963412 10.1059 3.05965
O 5.14478 1.98866 1.17145
C 4.7139 2.74441 9.32734
C 3.36461 2.37813 8.70993
H 5.48891 2.58591 8.54391
H 4.65345 3.81481 9.58092
C 3.05279 3.23793 7.48458
H 2.56054 2.4903 9.45566
H 3.36431 1.32298 8.40825
H 2.68501 4.23606 7.79491
H 2.28293 2.74461 6.86032
H 3.95303 3.37144 6.85654
O 11.1326 6.80542 6.72693
C 11.6622 7.76576 5.84578
C 13.1098 7.84699 6.20267
H 11.2075 8.7661 5.94228
H 11.5447 7.45542 4.7957
C 13.8359 9.10826 5.84005
H 13.5717 7.00532 5.66816
H 13.1679 7.76703 7.30706
H 13.1065 9.82828 5.46684
H -1.29933 8.89897 5.13379
H -1.61551 9.54914 6.71095
O -1.1461 4.26356 1.18677
C -0.519356 4.91927 9.65266
C 1.07676 4.88322 0.834669
H -0.479175 4.37971 8.6941
H -0.900016 5.87701 9.47946
C 1.45234 3.90515 1.82265
H 1.64357 5.35326 9.58218
H 4.82207 5.79806 7.6463
H 1.75214 8.90142 3.66465
H 3.6998 0.516849 2.6126
H 0.0786243 2.82321 7.18701
188
Atoms. Timestep: 11597
Ni 2.33238 9.27559 8.75004
Ni 6.13057 3.30564 4.07667
O -0.250556 4.18582 4.26157
O 3.72571 8.17243 8.78773
O 4.66509 2.32599 4.15271
O 0.924934 10.3664 8.83462
O 5.66406 4.50444 5.34209
O 2.17262 8.13846 0.724359
O -1.44008 1.98474 5.43763
O 2.94038 10.5158 0.720409
N 3.19572 10.3927 7.48628
N -0.950742 2.00256 2.77479
N 1.44446 8.07912 7.45959
N 5.4098 4.52362 2.74668
C 3.23877 11.9075 5.61465
C -0.0419991 1.25537 0.591514