ITEM: TIMESTEP
0
ITEM: NUMBER OF ATOMS
188
ITEM: BOX BOUNDS xy xz yz pp pp pp
-2.3509744023570703e-01 1.4111113169133301e+01 0.0000000000000000e+00
0.0000000000000000e+00 1.1193857134690001e+01 -2.3509744023570703e-01
0.0000000000000000e+00 1.0613006903378301e+01 0.0000000000000000e+00
ITEM: ATOMS id type x y z
1 1 2.3711 9.12705 9.08074
2 1 6.28911 3.29304 3.7263
3 2 0.341222 4.61737 3.84459
4 2 3.87305 8.17668 9.30915
5 2 4.76585 2.31373 3.71733
6 2 0.880617 10.1266 9.16716
7 2 5.81088 4.44227 5.02749
8 2 2.02424 8.08857 10.4931
9 2 13.6057 2.34982 4.88068
10 2 2.79674 10.3995 10.19
11 3 3.11672 10.1726 7.57683
12 3 13.8578 2.4092 2.24232
13 3 1.56177 7.79908 7.87572
14 3 5.62513 4.60835 2.34482
15 4 3.02351 0.398641 5.57124
16 4 13.7912 0.634349 0.569731
17 4 4.4684 0.453954 5.49145
18 4 1.08477 0.592293 0.474022
19 4 5.1414 10.7538 6.32857
20 4 1.82138 1.40957 1.36308
21 4 1.74853 6.16691 6.11436
22 4 5.6335 6.77157 1.13674
23 4 2.2736 6.82232 7.26851
24 4 6.28555 5.77636 1.98092
25 5 3.31154 6.84849 7.37223
26 5 11.3668 3.14133 1.19725
27 4 2.38795 10.9431 6.71184
28 4 13.1507 1.46323 1.52965
29 5 1.31889 10.8828 6.74414
30 5 7.54534 3.68708 1.03154
31 4 4.49105 10.198 7.45713
32 4 1.12647 2.35478 2.18409
33 5 5.10746 9.83118 8.26008
34 5 1.69603 2.89867 2.9147
35 4 0.19046 7.79347 7.69226
36 4 4.2771 4.51759 2.00469
37 5 13.6735 8.42225 8.29574
38 5 3.67125 3.7719 2.46024
39 4 13.6752 6.88709 6.79042
40 4 3.5696 5.55136 1.32262
41 4 0.341843 6.08099 5.94765
42 4 4.26657 6.61781 0.736892
43 4 5.28234 1.55978 4.68721
44 4 1.54461 10.8791 10.055
45 4 13.7912 5.17967 4.88167
46 4 3.30458 7.62447 10.3817
47 1 9.71217 9.12205 8.91505
48 1 13.0468 3.52207 3.67517
49 2 7.78386 4.23041 4.02405
50 2 11.0325 7.93477 9.05211
51 2 11.6535 2.44184 3.81196
52 2 8.39364 10.2761 9.09798
53 2 12.5617 4.60579 5.02115
54 2 9.07065 7.9891 10.104
55 2 6.54954 2.02781 4.98271
56 2 10.2867 10.1548 10.2604
57 3 10.56 10.2777 7.62392
58 3 7.15264 2.11109 2.37761
59 3 8.90416 8.08836 7.46334
60 3 12.1827 4.71394 2.35573
61 4 10.4477 0.370041 5.57241
62 4 8.29453 1.82171 0.230969
63 5 9.87993 0.665429 4.70028
64 5 13.2001 11.1061 0.033555
65 4 11.753 0.847799 5.75854
66 4 8.76438 0.546935 0.578984
67 4 12.4169 0.496503 6.9557
68 4 8.50314 0.102792 1.88126
69 5 6.1975 10.566 6.18012
70 5 8.84638 10.3184 2.19503
71 4 8.94172 6.7087 5.43569
72 4 11.0652 4.99634 0.20273
73 5 9.40949 6.46045 4.49263
74 5 6.19463 7.63072 0.799657
75 4 9.57904 7.65001 6.33714
76 4 11.6301 4.17318 1.21426
77 5 10.5713 8.01792 6.11882
78 5 7.31322 5.93134 2.27523
79 4 9.84069 10.7535 6.55433
80 4 7.65667 2.64807 1.21889
81 5 8.79785 10.4896 6.4462
82 5 12.1244 1.24607 1.78063
83 4 11.8403 10.7233 7.82051
84 4 7.67456 0.870544 2.75602
85 5 12.4022 10.3609 8.66083
86 5 7.40318 0.411969 3.68703
87 4 7.65283 7.60997 7.62807
88 4 11.7686 5.99091 2.69368
89 5 6.98496 8.10999 8.31403
90 5 11.9227 6.38641 3.68011
91 4 7.38409 6.28643 7.19271
92 4 11.1785 6.84357 1.73015
93 5 12.5961 6.85283 6.72853
94 5 10.9408 7.86744 1.9933
95 4 7.74498 6.04017 5.84685
96 4 10.9621 6.38419 0.426508
97 4 12.3761 1.78983 4.74351
98 4 9.11312 10.8056 10.1233
99 4 7.11091 4.8895 4.9834
100 4 10.226 7.32395 9.96945
101 6 2.25921 0.593918 4.43086
102 7 1.855 10.5143 3.91688
103 7 0.359643 10.4531 3.59031
104 5 2.43381 10.2676 3.01308
105 5 2.04532 9.69318 4.59837
106 7 13.6639 9.51408 4.48896
107 5 -0.0605858 0.256627 3.67296
108 5 0.226908 10.1124 2.54806
109 5 13.7964 9.77713 5.55406
110 5 12.5859 9.58464 4.23228
111 5 13.9839 8.46667 4.34247
112 6 3.08282 1.00639 1.76626
113 7 4.09984 1.31834 0.836395
114 7 5.13499 0.167601 0.763236
115 5 4.64428 2.20571 1.17074
116 5 3.49579 1.56372 10.4293
117 7 5.02916 10.3082 1.83321
118 5 6.11392 0.569758 0.855704
119 5 4.96025 10.8849 10.3835
120 5 4.96434 10.7918 2.82199
121 5 5.94369 9.68804 1.79396
122 5 4.14865 9.66958 1.6574
123 6 2.57644 6.02383 5.0248
124 7 2.87826 7.33366 4.56477
125 7 4.14624 7.35707 3.74963
126 5 2.03128 7.65362 3.92587
127 5 3.05195 8.07462 5.37335
128 7 5.30052 8.22464 4.22656
129 5 4.52154 6.33826 3.71209
130 5 3.84369 7.78762 2.79205
131 5 5.80286 7.83505 5.11373
132 5 6.09676 8.24757 3.46078
133 5 4.92986 9.23784 4.38549
134 6 2.24381 5.726 1.63791
135 7 1.41586 5.424 0.540526
136 7 0.242934 6.40725 0.485863
137 5 1.00694 4.41234 0.680536
138 5 1.69115 5.43244 10.1621
139 7 0.165278 7.4031 1.65978
140 5 13.4549 5.81271 0.435167
141 5 -0.0073647 6.957 10.1466
142 5 0.0260517 6.86544 2.60997
143 5 13.4557 8.12672 1.48803
144 5 1.08158 7.99575 1.81031
145 6 13.6097 1.10615 7.29961
146 7 13.3239 2.36937 7.86095
147 7 0.424839 3.28725 7.78881
148 5 12.9879 2.26265 8.91397
149 5 12.5553 2.90235 7.27277
150 7 1.52129 2.86204 8.72598
151 5 0.109877 4.31298 8.0755
152 5 0.8309 3.31358 6.75918
153 5 1.13899 2.84081 9.75557
154 5 2.3211 3.61408 8.67518
155 5 1.91558 1.87137 8.43754
156 6 7.90756 2.12329 9.51147
157 7 6.66186 1.57917 9.12592
158 7 6.27003 2.06083 7.76044
159 5 5.87524 1.90038 9.82599
160 5 6.63741 0.480951 9.11938
161 7 4.74051 2.30176 7.71258
162 5 6.66322 1.29835 7.09496
163 5 6.80769 2.98229 7.46147
164 5 4.17109 1.39726 7.90466
165 5 4.41844 2.8171 6.79001
166 5 4.37796 2.88457 8.56062
167 6 7.68253 5.2716 8.08815
168 7 7.1914 5.51081 9.39837
169 7 5.88223 4.82095 9.5393
170 5 7.10356 6.55147 9.73255
171 5 7.88751 5.08176 10.1234
172 7 4.83402 5.35817 8.63273
173 5 5.51267 4.6089 10.5193
174 5 6.11056 3.86819 9.27074
175 5 3.82714 5.1876 9.04971
176 5 4.90884 4.88538 7.64523
177 5 5.03363 6.41585 8.5184
178 6 10.0606 4.39815 9.84101
179 7 10.6529 4.52265 8.57325
180 8 10.0737 3.44858 7.70724
181 5 11.7585 4.44192 8.61007
182 5 10.3937 5.50313 8.12777
183 9 9.97416 3.62618 6.28428
184 5 10.0045 3.5847 6.63286
185 10 10.936 1.68948 9.82999
186 10 5.14519 7.92916 7.06738
187 10 4.77687 6.15869 6.00847
188 10 2.66287 3.35511 5.15328
