12
	Energy:      10.6385693
C         -1.11015       -0.78187       -0.00000
C          0.13077       -0.13728       -0.00000
C         -2.28564       -0.02635       -0.00000
H         -1.16026       -1.86243        0.00000
C          0.19137        1.26325       -0.00000
H          1.03568       -0.73215       -0.00000
C         -2.22530        1.36921       -0.00000
H         -3.24356       -0.52603        0.00000
C         -0.98835        2.01670       -0.00000
H          1.14722        1.77099       -0.00000
H         -3.13322        1.95540       -0.00000
H         -0.95300        3.09812       -0.00000
