/apps/openmpi/3.1_intel-19/bin/mpiexec
starting QE Wed Jul 8 10:22:15 PDT 2020

     Program PWSCF v.6.5 starts on  8Jul2020 at 10:22:16 

     This program is part of the open-source Quantum ESPRESSO suite
     for quantum simulation of materials; please cite
         "P. Giannozzi et al., J. Phys.:Condens. Matter 21 395502 (2009);
         "P. Giannozzi et al., J. Phys.:Condens. Matter 29 465901 (2017);
          URL http://www.quantum-espresso.org", 
     in publications or presentations arising from this work. More details at
     http://www.quantum-espresso.org/quote

     Parallel version (MPI), running on    16 processors

     MPI processes distributed on     1 nodes
     K-points division:     npool     =       2
     R & G space division:  proc/nbgrp/npool/nimage =       8
     Reading input from ./QE_input_scripts/pw.NiPyC2_relax_sc211_meta_functionalized_CH2-CH3_pbesol_relax_frozen_parent_atoms_Round2.in
Warning: card &CELL ignored
Warning: card    CELL_DYNAMICS = 'BFGS' ignored
Warning: card    CELL_DOFREE = 'XYZ' ignored
Warning: card / ignored

     Current dimensions of program PWSCF are:
     Max number of different atomic species (ntypx) = 10
     Max number of k-points (npk) =  40000
     Max angular momentum in pseudopotentials (lmaxx) =  3

     -------------------------------------------------
     Parameters for Dispersion (Grimme-D2) Correction:
     -------------------------------------------------
       atom      VdW radius       C_6     

        C          2.744         60.710
        H          1.892          4.857
        N          2.640         42.670
        Ni         2.952        374.666
        O          2.536         24.284

     gamma-point specific algorithms are used

     Subspace diagonalization in iterative solution of the eigenvalue problem:
     a serial algorithm will be used

 
     Parallelization info
     --------------------
     sticks:   dense  smooth     PW     G-vecs:    dense   smooth      PW
     Min        2228    2228    556               183376   183376   22914
     Max        2230    2230    558               183380   183380   22917
     Sum       17829   17829   4453              1467017  1467017  183325
 


     bravais-lattice index     =            0
     lattice parameter (alat)  =      23.6322  a.u.
     unit-cell volume          =   10858.6596 (a.u.)^3
     number of atoms/cell      =          156
     number of atomic types    =            5
     number of electrons       =       496.00 (up: 252.00, down: 244.00)
     number of Kohn-Sham states=          302
     kinetic-energy cutoff     =     100.0000  Ry
     charge density cutoff     =     400.0000  Ry
     convergence threshold     =      1.0E-06
     mixing beta               =       0.7000
     number of iterations used =            8  local-TF  mixing
     Exchange-correlation= PBESOL
                           (   1   4  10   8   0   0   0)
     nstep                     =          200


     celldm(1)=  23.632191  celldm(2)=   0.000000  celldm(3)=   0.000000
     celldm(4)=   0.000000  celldm(5)=   0.000000  celldm(6)=   0.000000

     crystal axes: (cart. coord. in units of alat)
               a(1) = (   1.000000   0.000000   0.000000 )  
               a(2) = (   0.000000   1.001423   0.000000 )  
               a(3) = (  -0.018199   0.000000   0.821574 )  

     reciprocal axes: (cart. coord. in units 2 pi/alat)
               b(1) = (  1.000000  0.000000  0.022151 )  
               b(2) = (  0.000000  0.998579  0.000000 )  
               b(3) = (  0.000000  0.000000  1.217176 )  


     PseudoPot. # 1 for C  read from file:
     ./pseudo/C.pbesol-nc.UPF
     MD5 check sum: ce26087537ded160c8d400e183a8bf42
     Pseudo is Norm-conserving, Zval =  4.0
     Generated using "atomic" code by A. Dal Corso v.6.5
     Using radial grid of 1073 points,  1 beta functions with: 
                l(1) =   1

     PseudoPot. # 2 for H  read from file:
     ./pseudo/H.pbesol-n-nc.UPF
     MD5 check sum: 7995ef24074557c85b430109caaacc09
     Pseudo is Norm-conserving, Zval =  1.0
     Generated using "atomic" code by A. Dal Corso v.6.5
     Using radial grid of  929 points,  0 beta functions with: 

     PseudoPot. # 3 for N  read from file:
     ./pseudo/N.pbesol-nc.UPF
     MD5 check sum: e18cc5e4b8a5600c1a19b30c2cab1ca0
     Pseudo is Norm-conserving, Zval =  5.0
     Generated using "atomic" code by A. Dal Corso v.6.5
     Using radial grid of 1085 points,  1 beta functions with: 
                l(1) =   1

     PseudoPot. # 4 for Ni read from file:
     ./pseudo/Ni.pbesol-n-nc.UPF
     MD5 check sum: 623411631e0c2eb7c0b2b9815547d2d9
     Pseudo is Norm-conserving + core correction, Zval = 10.0
     Generated using "atomic" code by A. Dal Corso v.6.5
     Using radial grid of 1195 points,  2 beta functions with: 
                l(1) =   1
                l(2) =   2

     PseudoPot. # 5 for O  read from file:
     ./pseudo/O.pbesol-nc.UPF
     MD5 check sum: 73d10e7e91dbfcbe8a7e362101007f84
     Pseudo is Norm-conserving, Zval =  6.0
     Generated using "atomic" code by A. Dal Corso v.6.5
     Using radial grid of 1095 points,  1 beta functions with: 
                l(1) =   1

     atomic species   valence    mass     pseudopotential
        C              4.00    12.01070     C ( 1.00)
        H              1.00     1.00794     H ( 1.00)
        N              5.00    14.00670     N ( 1.00)
        Ni            10.00    58.69340     Ni( 1.00)
        O              6.00    15.99940     O ( 1.00)

     Starting magnetic structure 
     atomic species   magnetization
        C            0.000
        H            0.000
        N            0.000
        Ni           0.250
        O            0.000

     No symmetry found



   Cartesian axes

     site n.     atom                  positions (alat units)
         1           C   tau(   1) = (   0.2787124   0.9714303   0.4288485  )
         2           C   tau(   2) = (   0.0379730   0.0311503   0.0183277  )
         3           C   tau(   3) = (   0.3806884   0.0117867   0.4489836  )
         4           C   tau(   4) = (   0.1394042   0.9891495   0.0379124  )
         5           C   tau(   5) = (   0.4400789   0.9715826   0.5343279  )
         6           C   tau(   6) = (   0.1997921   0.0283933   0.1231482  )
         7           C   tau(   7) = (   0.1986013   0.5304577   0.4324634  )
         8           C   tau(   8) = (   0.4580372   0.4720798   0.0229252  )
         9           C   tau(   9) = (   0.2341005   0.6142037   0.4982312  )
        10           C   tau(  10) = (   0.4948423   0.3892301   0.0892369  )
        11           C   tau(  11) = (   0.2384983   0.8904713   0.4955759  )
        12           C   tau(  12) = (  -0.0008282   0.1123917   0.0856466  )
        13           C   tau(  13) = (   0.3947363   0.8906486   0.5977378  )
        14           C   tau(  14) = (   0.1557890   0.1097029   0.1871644  )
        15           C   tau(  15) = (   0.0756249   0.6098496   0.5975735  )
        16           C   tau(  16) = (   0.3367153   0.3921903   0.1884642  )
        17           C   tau(  17) = (   0.0350718   0.5258262   0.5351010  )
        18           C   tau(  18) = (   0.2948780   0.4753865   0.1254987  )
        19           C   tau(  19) = (   0.0981524   0.4849591   0.4519610  )
        20           C   tau(  20) = (   0.3569104   0.5163898   0.0416029  )
        21           C   tau(  21) = (   0.4248180   0.0994603   0.3833637  )
        22           C   tau(  22) = (   0.1639427   0.9010003   0.7933710  )
        23           C   tau(  23) = (   0.0588122   0.3950353   0.3866952  )
        24           C   tau(  24) = (   0.2984062   0.6050317   0.7961931  )
        25           C   tau(  25) = (   0.7787124   0.9714303   0.4288485  )
        26           C   tau(  26) = (   0.5379730   0.0311503   0.0183277  )
        27           C   tau(  27) = (   0.8806884   0.0117867   0.4489836  )
        28           C   tau(  28) = (   0.6394042   0.9891495   0.0379124  )
        29           C   tau(  29) = (   0.9400789   0.9715826   0.5343279  )
        30           C   tau(  30) = (   0.6997921   0.0283933   0.1231482  )
        31           C   tau(  31) = (   0.6986023   0.5304577   0.4324634  )
        32           C   tau(  32) = (   0.9580382   0.4720798   0.0229252  )
        33           C   tau(  33) = (   0.7341005   0.6142037   0.4982312  )
        34           C   tau(  34) = (   0.9948423   0.3892301   0.0892369  )
        35           C   tau(  35) = (   0.7384983   0.8904713   0.4955759  )
        36           C   tau(  36) = (   0.4991718   0.1123917   0.0856466  )
        37           C   tau(  37) = (   0.8947363   0.8906486   0.5977378  )
        38           C   tau(  38) = (   0.6557880   0.1097029   0.1871644  )
        39           C   tau(  39) = (   0.5756249   0.6098496   0.5975735  )
        40           C   tau(  40) = (   0.8367153   0.3921903   0.1884642  )
        41           C   tau(  41) = (   0.5350718   0.5258262   0.5351010  )
        42           C   tau(  42) = (   0.7948780   0.4753865   0.1254987  )
        43           C   tau(  43) = (   0.5981524   0.4849591   0.4519610  )
        44           C   tau(  44) = (   0.8569104   0.5163898   0.0416029  )
        45           C   tau(  45) = (   0.9248180   0.0994603   0.3833637  )
        46           C   tau(  46) = (   0.6639427   0.9010003   0.7933710  )
        47           C   tau(  47) = (   0.5588112   0.3950353   0.3866952  )
        48           C   tau(  48) = (   0.7984062   0.6050317   0.7961931  )
        49           C   tau(  49) = (   0.5342422   0.0161419   0.5890300  )
        50           C   tau(  50) = (   0.5699650   0.1304884   0.6015853  )
        51           C   tau(  51) = (   0.9383028   0.0047487   0.7639776  )
        52           C   tau(  52) = (   0.8528533   0.0805384   0.7328071  )
        53           C   tau(  53) = (   0.2699578   0.5153943   0.3432807  )
        54           C   tau(  54) = (   0.3361869   0.6095331   0.3077066  )
        55           C   tau(  55) = (   0.5116066   0.4934882   0.7575331  )
        56           C   tau(  56) = (   0.6062768   0.4224172   0.7389672  )
        57           C   tau(  57) = (   0.0343964   0.0157013   0.5889741  )
        58           C   tau(  58) = (   0.0710852   0.1297404   0.6013536  )
        59           C   tau(  59) = (   0.4383369   0.0049440   0.7638371  )
        60           C   tau(  60) = (   0.3531596   0.0811103   0.7328835  )
        61           C   tau(  61) = (   0.7872156   0.4980747   0.3690699  )
        62           C   tau(  62) = (   0.8775487   0.5690426   0.3433785  )
        63           C   tau(  63) = (   0.7182006   0.5473207   0.1837557  )
        64           C   tau(  64) = (   0.6012971   0.5798529   0.1779086  )
        65           H   tau(  65) = (   0.2290598   1.0009974   0.3640501  )
        66           H   tau(  66) = (   0.2791988   1.0000861   0.1418053  )
        67           H   tau(  67) = (  -0.0086580   0.5011090   0.7809455  )
        68           H   tau(  68) = (   0.3118556   0.6514316   0.4868935  )
        69           H   tau(  69) = (   0.0732386   0.3533531   0.0780725  )
        70           H   tau(  70) = (   0.1594428   0.8563398   0.4835456  )
        71           H   tau(  71) = (   0.4206862   0.1479422   0.0738480  )
        72           H   tau(  72) = (   0.4386513   0.8563899   0.6644570  )
        73           H   tau(  73) = (   0.2006192   0.1433066   0.2536996  )
        74           H   tau(  74) = (   0.0290495   0.6438589   0.6626882  )
        75           H   tau(  75) = (   0.2907536   0.3580347   0.2539083  )
        76           H   tau(  76) = (   0.4564149   0.4939328   0.5533317  )
        77           H   tau(  77) = (   0.2157624   0.5059199   0.1439923  )
        78           H   tau(  78) = (   0.7290598   1.0009974   0.3640501  )
        79           H   tau(  79) = (   0.7791988   1.0000861   0.1418053  )
        80           H   tau(  80) = (   0.8118556   0.6514316   0.4868935  )
        81           H   tau(  81) = (   0.5732386   0.3533531   0.0780725  )
        82           H   tau(  82) = (   0.6594428   0.8563398   0.4835456  )
        83           H   tau(  83) = (   0.9206862   0.1479422   0.0738480  )
        84           H   tau(  84) = (   0.9386513   0.8563899   0.6644570  )
        85           H   tau(  85) = (   0.7006202   0.1433066   0.2536996  )
        86           H   tau(  86) = (   0.5290495   0.6438589   0.6626882  )
        87           H   tau(  87) = (   0.7907536   0.3580347   0.2539083  )
        88           H   tau(  88) = (   0.9564149   0.4939328   0.5533317  )
        89           H   tau(  89) = (   0.5546153   0.1265118   0.4663690  )
        90           H   tau(  90) = (   0.5999460   0.9601924   0.5957184  )
        91           H   tau(  91) = (   0.5067821   0.1898207   0.5906567  )
        92           H   tau(  92) = (   0.6413520   0.1497598   0.5529661  )
        93           H   tau(  93) = (   0.6009122   0.1390826   0.6831971  )
        94           H   tau(  94) = (   0.9123003   0.9233560   0.7733912  )
        95           H   tau(  95) = (   0.0017380   0.9984437   0.6817618  )
        96           H   tau(  96) = (   0.7929223   0.0824031   0.7966869  )
        97           H   tau(  97) = (   0.8103476   0.0534049   0.6617812  )
        98           H   tau(  98) = (   0.8834612   0.1611960   0.7200825  )
        99           H   tau(  99) = (   0.2171597   0.4836502   0.2813949  )
       100           H   tau( 100) = (   0.3254662   0.4494146   0.3666471  )
       101           H   tau( 101) = (   0.2876901   0.6823135   0.3021421  )
       102           H   tau( 102) = (   0.3720705   0.5959498   0.2290384  )
       103           H   tau( 103) = (   0.4043388   0.6238655   0.3612058  )
       104           H   tau( 104) = (   0.4577935   0.4983682   0.6885579  )
       105           H   tau( 105) = (   0.5347364   0.5774555   0.7700465  )
       106           H   tau( 106) = (   0.5812205   0.3395254   0.7256635  )
       107           H   tau( 107) = (   0.6538875   0.4467448   0.6701382  )
       108           H   tau( 108) = (   0.6613916   0.4235619   0.8074142  )
       109           H   tau( 109) = (   0.0558628   0.1240092   0.4653518  )
       110           H   tau( 110) = (   0.0995854   0.9592010   0.5960635  )
       111           H   tau( 111) = (   0.0082768   0.1894862   0.5906263  )
       112           H   tau( 112) = (   0.1424758   0.1484700   0.5525250  )
       113           H   tau( 113) = (   0.1022972   0.1376736   0.6829285  )
       114           H   tau( 114) = (   0.5020293   0.9983786   0.6819303  )
       115           H   tau( 115) = (   0.4112593   0.9238648   0.7733016  )
       116           H   tau( 116) = (   0.3840035   0.1617849   0.7208819  )
       117           H   tau( 117) = (   0.3110119   0.0545075   0.6614977  )
       118           H   tau( 118) = (   0.2927591   0.0826194   0.7963336  )
       119           H   tau( 119) = (   0.7199245   0.5092186   0.2669582  )
       120           H   tau( 120) = (   0.8004808   0.4124541   0.3688810  )
       121           H   tau( 121) = (   0.8519667   0.6508198   0.3265822  )
       122           H   tau( 122) = (   0.9260890   0.5379254   0.2782663  )
       123           H   tau( 123) = (   0.9313149   0.5721310   0.4127111  )
       124           H   tau( 124) = (   0.7650336   0.6211596   0.1941379  )
       125           H   tau( 125) = (   0.6771792   0.6142528   0.0434654  )
       126           H   tau( 126) = (   0.5879077   0.6370482   0.2426609  )
       127           H   tau( 127) = (   0.5729531   0.6205958   0.1049117  )
       128           H   tau( 128) = (   0.5487485   0.5118553   0.1908467  )
       129           N   tau( 129) = (   0.2956098   0.8524643   0.5790684  )
       130           N   tau( 130) = (   0.0569791   0.1490688   0.1692870  )
       131           N   tau( 131) = (   0.1736964   0.6512354   0.5798982  )
       132           N   tau( 132) = (   0.4350239   0.3514274   0.1709211  )
       133           N   tau( 133) = (   0.7956098   0.8524643   0.5790684  )
       134           N   tau( 134) = (   0.5569791   0.1490688   0.1692870  )
       135           N   tau( 135) = (   0.6736974   0.6512354   0.5798982  )
       136           N   tau( 136) = (   0.9350239   0.3514274   0.1709211  )
       137           Ni  tau( 137) = (   0.2317817   0.7525553   0.6871037  )
       138           Ni  tau( 138) = (   0.4937993   0.2483519   0.2786598  )
       139           Ni  tau( 139) = (   0.7317817   0.7525553   0.6871037  )
       140           Ni  tau( 140) = (   0.9937993   0.2483519   0.2786598  )
       141           O   tau( 141) = (   0.1158101   0.3481837   0.3145585  )
       142           O   tau( 142) = (   0.3551693   0.6519033   0.7240466  )
       143           O   tau( 143) = (   0.3707657   0.1477169   0.3098796  )
       144           O   tau( 144) = (   0.1091509   0.8535649   0.7199133  )
       145           O   tau( 145) = (   0.4642790   0.3566668   0.3968153  )
       146           O   tau( 146) = (   0.2033042   0.6423277   0.8050415  )
       147           O   tau( 147) = (   0.0200849   0.1353503   0.3952412  )
       148           O   tau( 148) = (   0.2588619   0.8639857   0.8046488  )
       149           O   tau( 149) = (   0.6158111   0.3481837   0.3145585  )
       150           O   tau( 150) = (   0.8551693   0.6519033   0.7240466  )
       151           O   tau( 151) = (   0.8707657   0.1477169   0.3098796  )
       152           O   tau( 152) = (   0.6091509   0.8535649   0.7199133  )
       153           O   tau( 153) = (   0.9642790   0.3566668   0.3968153  )
       154           O   tau( 154) = (   0.7033042   0.6423277   0.8050415  )
       155           O   tau( 155) = (   0.5200849   0.1353503   0.3952412  )
       156           O   tau( 156) = (   0.7588619   0.8639857   0.8046488  )

     number of k points=     1  Marzari-Vanderbilt smearing, width (Ry)=  0.2000
                       cart. coord. in units 2pi/alat
        k(    1) = (   0.0000000   0.0000000   0.0000000), wk =   1.0000000

     Dense  grid:   733509 G-vectors     FFT dimensions: ( 160, 160, 125)

     Estimated max dynamical RAM per process >     686.48 MB

     Estimated total dynamical RAM >      10.73 GB
     Generating pointlists ...
     new r_m :   0.0357 (alat units)  0.8446 (a.u.) for type    1
     new r_m :   0.0328 (alat units)  0.7752 (a.u.) for type    2
     new r_m :   0.0445 (alat units)  1.0514 (a.u.) for type    3
     new r_m :   0.0654 (alat units)  1.5454 (a.u.) for type    4
     new r_m :   0.0328 (alat units)  0.7752 (a.u.) for type    5

     Check: negative core charge=   -0.000145

     Initial potential from superposition of free atoms

     starting charge  495.99569, renormalised to  496.00000
     Starting wfcs are  452 randomized atomic wfcs

     total cpu time spent up to now is       85.8 secs

     Self-consistent Calculation

     iteration #  1     ecut=   100.00 Ry     beta= 0.70
     Davidson diagonalization with overlap
     ethr =  1.00E-02,  avg # of iterations =  3.5

     total cpu time spent up to now is      269.5 secs

     total energy              =   -1838.74544017 Ry
     Harris-Foulkes estimate   =   -1847.81274731 Ry
     estimated scf accuracy    <      24.35620557 Ry

     total magnetization       =     8.00 Bohr mag/cell
     absolute magnetization    =     8.63 Bohr mag/cell

     iteration #  2     ecut=   100.00 Ry     beta= 0.70
     Davidson diagonalization with overlap
     ethr =  4.91E-03,  avg # of iterations =  2.0

     total cpu time spent up to now is      360.1 secs

     total energy              =   -1840.87306453 Ry
     Harris-Foulkes estimate   =   -1844.95363907 Ry
     estimated scf accuracy    <      18.99474709 Ry

     total magnetization       =     8.00 Bohr mag/cell
     absolute magnetization    =     8.81 Bohr mag/cell

     iteration #  3     ecut=   100.00 Ry     beta= 0.70
     Davidson diagonalization with overlap
     ethr =  3.83E-03,  avg # of iterations =  1.5

     total cpu time spent up to now is      438.5 secs

     total energy              =   -1841.38339882 Ry
     Harris-Foulkes estimate   =   -1842.13566549 Ry
     estimated scf accuracy    <       2.04584790 Ry

     total magnetization       =     8.00 Bohr mag/cell
     absolute magnetization    =     8.35 Bohr mag/cell

     iteration #  4     ecut=   100.00 Ry     beta= 0.70
     Davidson diagonalization with overlap
     ethr =  4.12E-04,  avg # of iterations =  7.0

     total cpu time spent up to now is      525.9 secs

     total energy              =   -1841.36754327 Ry
     Harris-Foulkes estimate   =   -1841.59816569 Ry
     estimated scf accuracy    <       1.11733295 Ry

     total magnetization       =     8.00 Bohr mag/cell
     absolute magnetization    =     8.29 Bohr mag/cell

     iteration #  5     ecut=   100.00 Ry     beta= 0.70
     Davidson diagonalization with overlap
     ethr =  2.25E-04,  avg # of iterations =  1.5

     total cpu time spent up to now is      579.6 secs

     total energy              =   -1841.41434213 Ry
     Harris-Foulkes estimate   =   -1841.55918537 Ry
     estimated scf accuracy    <       1.71571250 Ry

     total magnetization       =     8.00 Bohr mag/cell
     absolute magnetization    =     8.24 Bohr mag/cell

     iteration #  6     ecut=   100.00 Ry     beta= 0.70
     Davidson diagonalization with overlap
     ethr =  2.25E-04,  avg # of iterations =  1.0

     total cpu time spent up to now is      645.7 secs

     total energy              =   -1841.40722089 Ry
     Harris-Foulkes estimate   =   -1841.49576628 Ry
     estimated scf accuracy    <       0.75913739 Ry

     total magnetization       =     8.00 Bohr mag/cell
     absolute magnetization    =     8.23 Bohr mag/cell

     iteration #  7     ecut=   100.00 Ry     beta= 0.70
     Davidson diagonalization with overlap
     ethr =  1.53E-04,  avg # of iterations =  1.0

     total cpu time spent up to now is      744.1 secs

     total energy              =   -1841.40495837 Ry
     Harris-Foulkes estimate   =   -1841.43812841 Ry
     estimated scf accuracy    <       0.13131109 Ry

     total magnetization       =     8.00 Bohr mag/cell
     absolute magnetization    =     8.25 Bohr mag/cell

     iteration #  8     ecut=   100.00 Ry     beta= 0.70
     Davidson diagonalization with overlap
     ethr =  2.65E-05,  avg # of iterations = 10.0

     total cpu time spent up to now is      874.9 secs

     total energy              =   -1841.39890476 Ry
     Harris-Foulkes estimate   =   -1841.42921966 Ry
     estimated scf accuracy    <       0.42104537 Ry

     total magnetization       =     8.00 Bohr mag/cell
     absolute magnetization    =     8.25 Bohr mag/cell

     iteration #  9     ecut=   100.00 Ry     beta= 0.70
     Davidson diagonalization with overlap
     ethr =  2.65E-05,  avg # of iterations =  1.0

     total cpu time spent up to now is      973.4 secs

     total energy              =   -1841.40494281 Ry
     Harris-Foulkes estimate   =   -1841.41250153 Ry
     estimated scf accuracy    <       0.06333012 Ry

     total magnetization       =     8.00 Bohr mag/cell
     absolute magnetization    =     8.24 Bohr mag/cell

     iteration # 10     ecut=   100.00 Ry     beta= 0.70
     Davidson diagonalization with overlap
     ethr =  1.28E-05,  avg # of iterations =  2.5

     total cpu time spent up to now is     1099.2 secs

     total energy              =   -1841.41093054 Ry
     Harris-Foulkes estimate   =   -1841.41353864 Ry
     estimated scf accuracy    <       0.04621876 Ry

     total magnetization       =     8.00 Bohr mag/cell
     absolute magnetization    =     8.22 Bohr mag/cell

     iteration # 11     ecut=   100.00 Ry     beta= 0.70
     Davidson diagonalization with overlap
     ethr =  9.32E-06,  avg # of iterations =  2.5

     total cpu time spent up to now is     1208.6 secs

     total energy              =   -1841.41289810 Ry
     Harris-Foulkes estimate   =   -1841.41417031 Ry
     estimated scf accuracy    <       0.02138672 Ry

     total magnetization       =     8.00 Bohr mag/cell
     absolute magnetization    =     8.23 Bohr mag/cell

     iteration # 12     ecut=   100.00 Ry     beta= 0.70
     Davidson diagonalization with overlap
     ethr =  4.31E-06,  avg # of iterations =  6.0

     total cpu time spent up to now is     1313.2 secs

     total energy              =   -1841.41452847 Ry
     Harris-Foulkes estimate   =   -1841.41408737 Ry
     estimated scf accuracy    <       0.00787889 Ry

     total magnetization       =     8.00 Bohr mag/cell
     absolute magnetization    =     8.22 Bohr mag/cell

     iteration # 13     ecut=   100.00 Ry     beta= 0.70
     Davidson diagonalization with overlap
     ethr =  1.59E-06,  avg # of iterations = 12.0

     total cpu time spent up to now is     1424.1 secs

     total energy              =   -1841.41491749 Ry
     Harris-Foulkes estimate   =   -1841.41488320 Ry
     estimated scf accuracy    <       0.00210729 Ry

     total magnetization       =     8.00 Bohr mag/cell
     absolute magnetization    =     8.22 Bohr mag/cell

     iteration # 14     ecut=   100.00 Ry     beta= 0.70
     Davidson diagonalization with overlap
     ethr =  4.25E-07,  avg # of iterations =  2.5

     total cpu time spent up to now is     1500.2 secs

     total energy              =   -1841.41506847 Ry
     Harris-Foulkes estimate   =   -1841.41502347 Ry
     estimated scf accuracy    <       0.00100643 Ry

     total magnetization       =     8.00 Bohr mag/cell
     absolute magnetization    =     8.23 Bohr mag/cell

     iteration # 15     ecut=   100.00 Ry     beta= 0.70
     Davidson diagonalization with overlap
     ethr =  2.03E-07,  avg # of iterations =  2.5

     total cpu time spent up to now is     1558.3 secs

     total energy              =   -1841.41512234 Ry
     Harris-Foulkes estimate   =   -1841.41510616 Ry
     estimated scf accuracy    <       0.00032657 Ry

     total magnetization       =     8.00 Bohr mag/cell
     absolute magnetization    =     8.23 Bohr mag/cell

     iteration # 16     ecut=   100.00 Ry     beta= 0.70
     Davidson diagonalization with overlap
     ethr =  6.58E-08,  avg # of iterations =  3.0

     total cpu time spent up to now is     1614.9 secs

     total energy              =   -1841.41511960 Ry
     Harris-Foulkes estimate   =   -1841.41514648 Ry
     estimated scf accuracy    <       0.00044779 Ry

     total magnetization       =     8.00 Bohr mag/cell
     absolute magnetization    =     8.23 Bohr mag/cell

     iteration # 17     ecut=   100.00 Ry     beta= 0.70
     Davidson diagonalization with overlap
     ethr =  6.58E-08,  avg # of iterations =  2.0

     total cpu time spent up to now is     1706.2 secs

     total energy              =   -1841.41512670 Ry
     Harris-Foulkes estimate   =   -1841.41513769 Ry
     estimated scf accuracy    <       0.00011823 Ry

     total magnetization       =     8.00 Bohr mag/cell
     absolute magnetization    =     8.23 Bohr mag/cell

     iteration # 18     ecut=   100.00 Ry     beta= 0.70
     Davidson diagonalization with overlap
     ethr =  2.38E-08,  avg # of iterations =  2.5

     total cpu time spent up to now is     1812.1 secs

     total energy              =   -1841.41513399 Ry
     Harris-Foulkes estimate   =   -1841.41513587 Ry
     estimated scf accuracy    <       0.00008129 Ry

     total magnetization       =     8.00 Bohr mag/cell
     absolute magnetization    =     8.23 Bohr mag/cell

     iteration # 19     ecut=   100.00 Ry     beta= 0.70
     Davidson diagonalization with overlap
     ethr =  1.64E-08,  avg # of iterations =  2.0

     total cpu time spent up to now is     1914.6 secs

     total energy              =   -1841.41513643 Ry
     Harris-Foulkes estimate   =   -1841.41513926 Ry
     estimated scf accuracy    <       0.00004509 Ry

     total magnetization       =     8.00 Bohr mag/cell
     absolute magnetization    =     8.23 Bohr mag/cell

     iteration # 20     ecut=   100.00 Ry     beta= 0.70
     Davidson diagonalization with overlap
     ethr =  9.09E-09,  avg # of iterations =  2.0

     total cpu time spent up to now is     2014.5 secs

     total energy              =   -1841.41513779 Ry
     Harris-Foulkes estimate   =   -1841.41513796 Ry
     estimated scf accuracy    <       0.00001513 Ry

     total magnetization       =     8.00 Bohr mag/cell
     absolute magnetization    =     8.23 Bohr mag/cell

     iteration # 21     ecut=   100.00 Ry     beta= 0.70
     Davidson diagonalization with overlap
     ethr =  3.05E-09,  avg # of iterations =  3.0

     total cpu time spent up to now is     2142.3 secs

     total energy              =   -1841.41513793 Ry
     Harris-Foulkes estimate   =   -1841.41513862 Ry
     estimated scf accuracy    <       0.00000944 Ry

     total magnetization       =     8.00 Bohr mag/cell
     absolute magnetization    =     8.23 Bohr mag/cell

     iteration # 22     ecut=   100.00 Ry     beta= 0.70
     Davidson diagonalization with overlap
     ethr =  1.90E-09,  avg # of iterations =  2.0

     total cpu time spent up to now is     2244.1 secs

     total energy              =   -1841.41513810 Ry
     Harris-Foulkes estimate   =   -1841.41513913 Ry
     estimated scf accuracy    <       0.00001484 Ry

     total magnetization       =     8.00 Bohr mag/cell
     absolute magnetization    =     8.23 Bohr mag/cell

     iteration # 23     ecut=   100.00 Ry     beta= 0.70
     Davidson diagonalization with overlap
     ethr =  1.90E-09,  avg # of iterations =  2.0

     total cpu time spent up to now is     2340.5 secs

     total energy              =   -1841.41513816 Ry
     Harris-Foulkes estimate   =   -1841.41513914 Ry
     estimated scf accuracy    <       0.00001092 Ry

     total magnetization       =     8.00 Bohr mag/cell
     absolute magnetization    =     8.23 Bohr mag/cell

     iteration # 24     ecut=   100.00 Ry     beta= 0.70
     Davidson diagonalization with overlap
     ethr =  1.90E-09,  avg # of iterations =  2.0

     total cpu time spent up to now is     2426.2 secs

     total energy              =   -1841.41513861 Ry
     Harris-Foulkes estimate   =   -1841.41513857 Ry
     estimated scf accuracy    <       0.00000133 Ry

     total magnetization       =     8.00 Bohr mag/cell
     absolute magnetization    =     8.23 Bohr mag/cell

     iteration # 25     ecut=   100.00 Ry     beta= 0.70
     Davidson diagonalization with overlap
     ethr =  2.69E-10,  avg # of iterations =  3.5
 
     Magnetic moment per site:
     atom:    1    charge:    0.8415    magn:    0.0060    constr:    0.0000
     atom:    2    charge:    0.8510    magn:    0.0050    constr:    0.0000
     atom:    3    charge:    0.8433    magn:    0.0033    constr:    0.0000
     atom:    4    charge:    0.8430    magn:    0.0055    constr:    0.0000
     atom:    5    charge:    0.8415    magn:    0.0063    constr:    0.0000
     atom:    6    charge:    0.8428    magn:    0.0059    constr:    0.0000
     atom:    7    charge:    0.8477    magn:    0.0068    constr:    0.0000
     atom:    8    charge:    0.8487    magn:    0.0072    constr:    0.0000
     atom:    9    charge:    0.8373    magn:    0.0087    constr:    0.0000
     atom:   10    charge:    0.8373    magn:    0.0088    constr:    0.0000
     atom:   11    charge:    0.8342    magn:    0.0054    constr:    0.0000
     atom:   12    charge:    0.8367    magn:    0.0074    constr:    0.0000
     atom:   13    charge:    0.8405    magn:    0.0077    constr:    0.0000
     atom:   14    charge:    0.8356    magn:    0.0058    constr:    0.0000
     atom:   15    charge:    0.8358    magn:    0.0064    constr:    0.0000
     atom:   16    charge:    0.8370    magn:    0.0072    constr:    0.0000
     atom:   17    charge:    0.8425    magn:    0.0060    constr:    0.0000
     atom:   18    charge:    0.8418    magn:    0.0071    constr:    0.0000
     atom:   19    charge:    0.8463    magn:    0.0061    constr:    0.0000
     atom:   20    charge:    0.8445    magn:    0.0061    constr:    0.0000
     atom:   21    charge:    0.8169    magn:    0.0022    constr:    0.0000
     atom:   22    charge:    0.8189    magn:   -0.0012    constr:    0.0000
     atom:   23    charge:    0.8187    magn:   -0.0011    constr:    0.0000
     atom:   24    charge:    0.8194    magn:   -0.0019    constr:    0.0000
     atom:   25    charge:    0.8415    magn:    0.0058    constr:    0.0000
     atom:   26    charge:    0.8509    magn:    0.0050    constr:    0.0000
     atom:   27    charge:    0.8433    magn:    0.0033    constr:    0.0000
     atom:   28    charge:    0.8432    magn:    0.0053    constr:    0.0000
     atom:   29    charge:    0.8416    magn:    0.0062    constr:    0.0000
     atom:   30    charge:    0.8428    magn:    0.0058    constr:    0.0000
     atom:   31    charge:    0.8547    magn:    0.0038    constr:    0.0000
     atom:   32    charge:    0.8411    magn:    0.0058    constr:    0.0000
     atom:   33    charge:    0.8370    magn:    0.0072    constr:    0.0000
     atom:   34    charge:    0.8329    magn:    0.0055    constr:    0.0000
     atom:   35    charge:    0.8344    magn:    0.0052    constr:    0.0000
     atom:   36    charge:    0.8367    magn:    0.0074    constr:    0.0000
     atom:   37    charge:    0.8406    magn:    0.0076    constr:    0.0000
     atom:   38    charge:    0.8356    magn:    0.0058    constr:    0.0000
     atom:   39    charge:    0.8377    magn:    0.0072    constr:    0.0000
     atom:   40    charge:    0.8386    magn:    0.0073    constr:    0.0000
     atom:   41    charge:    0.8424    magn:    0.0070    constr:    0.0000
     atom:   42    charge:    0.8360    magn:    0.0078    constr:    0.0000
     atom:   43    charge:    0.8450    magn:    0.0057    constr:    0.0000
     atom:   44    charge:    0.8442    magn:    0.0046    constr:    0.0000
     atom:   45    charge:    0.8168    magn:    0.0022    constr:    0.0000
     atom:   46    charge:    0.8190    magn:   -0.0009    constr:    0.0000
     atom:   47    charge:    0.8185    magn:   -0.0010    constr:    0.0000
     atom:   48    charge:    0.8183    magn:    0.0017    constr:    0.0000
     atom:   49    charge:    0.8266    magn:    0.0074    constr:    0.0000
     atom:   50    charge:    0.8477    magn:   -0.0018    constr:    0.0000
     atom:   51    charge:    0.8336    magn:    0.0081    constr:    0.0000
     atom:   52    charge:    0.8531    magn:    0.0007    constr:    0.0000
     atom:   53    charge:    0.8535    magn:    0.0056    constr:    0.0000
     atom:   54    charge:    0.8443    magn:    0.0057    constr:    0.0000
     atom:   55    charge:    0.8567    magn:    0.0035    constr:    0.0000
     atom:   56    charge:    0.8471    magn:    0.0041    constr:    0.0000
     atom:   57    charge:    0.8269    magn:    0.0074    constr:    0.0000
     atom:   58    charge:    0.8471    magn:   -0.0019    constr:    0.0000
     atom:   59    charge:    0.8336    magn:    0.0081    constr:    0.0000
     atom:   60    charge:    0.8534    magn:    0.0007    constr:    0.0000
     atom:   61    charge:    0.8252    magn:    0.0096    constr:    0.0000
     atom:   62    charge:    0.8550    magn:    0.0005    constr:    0.0000
     atom:   63    charge:    0.8337    magn:    0.0050    constr:    0.0000
     atom:   64    charge:    0.8436    magn:    0.0016    constr:    0.0000
     atom:   65    charge:    0.4060    magn:   -0.0012    constr:    0.0000
     atom:   66    charge:    0.4061    magn:   -0.0013    constr:    0.0000
     atom:   67    charge:    0.4063    magn:   -0.0011    constr:    0.0000
     atom:   68    charge:    0.4084    magn:   -0.0009    constr:    0.0000
     atom:   69    charge:    0.4092    magn:   -0.0010    constr:    0.0000
     atom:   70    charge:    0.4099    magn:   -0.0009    constr:    0.0000
     atom:   71    charge:    0.4090    magn:   -0.0009    constr:    0.0000
     atom:   72    charge:    0.4082    magn:   -0.0004    constr:    0.0000
     atom:   73    charge:    0.4062    magn:   -0.0007    constr:    0.0000
     atom:   74    charge:    0.4062    magn:   -0.0007    constr:    0.0000
     atom:   75    charge:    0.4077    magn:   -0.0002    constr:    0.0000
     atom:   76    charge:    0.4074    magn:   -0.0010    constr:    0.0000
     atom:   77    charge:    0.4078    magn:   -0.0009    constr:    0.0000
     atom:   78    charge:    0.4060    magn:   -0.0012    constr:    0.0000
     atom:   79    charge:    0.4061    magn:   -0.0013    constr:    0.0000
     atom:   80    charge:    0.4089    magn:   -0.0009    constr:    0.0000
     atom:   81    charge:    0.4083    magn:   -0.0009    constr:    0.0000
     atom:   82    charge:    0.4098    magn:   -0.0009    constr:    0.0000
     atom:   83    charge:    0.4090    magn:   -0.0009    constr:    0.0000
     atom:   84    charge:    0.4080    magn:   -0.0004    constr:    0.0000
     atom:   85    charge:    0.4063    magn:   -0.0007    constr:    0.0000
     atom:   86    charge:    0.4094    magn:   -0.0002    constr:    0.0000
     atom:   87    charge:    0.4085    magn:   -0.0004    constr:    0.0000
     atom:   88    charge:    0.4070    magn:   -0.0010    constr:    0.0000
     atom:   89    charge:    0.3854    magn:    0.0005    constr:    0.0000
     atom:   90    charge:    0.4002    magn:    0.0016    constr:    0.0000
     atom:   91    charge:    0.4097    magn:   -0.0005    constr:    0.0000
     atom:   92    charge:    0.3992    magn:   -0.0003    constr:    0.0000
     atom:   93    charge:    0.4008    magn:   -0.0002    constr:    0.0000
     atom:   94    charge:    0.4020    magn:    0.0023    constr:    0.0000
     atom:   95    charge:    0.3830    magn:    0.0018    constr:    0.0000
     atom:   96    charge:    0.4051    magn:    0.0012    constr:    0.0000
     atom:   97    charge:    0.4152    magn:    0.0005    constr:    0.0000
     atom:   98    charge:    0.4140    magn:    0.0009    constr:    0.0000
     atom:   99    charge:    0.4110    magn:    0.0048    constr:    0.0000
     atom:  100    charge:    0.3818    magn:    0.0057    constr:    0.0000
     atom:  101    charge:    0.4100    magn:    0.0031    constr:    0.0000
     atom:  102    charge:    0.4097    magn:    0.0034    constr:    0.0000
     atom:  103    charge:    0.4087    magn:    0.0035    constr:    0.0000
     atom:  104    charge:    0.4068    magn:    0.0042    constr:    0.0000
     atom:  105    charge:    0.4038    magn:    0.0048    constr:    0.0000
     atom:  106    charge:    0.4107    magn:    0.0024    constr:    0.0000
     atom:  107    charge:    0.4152    magn:    0.0022    constr:    0.0000
     atom:  108    charge:    0.4090    magn:    0.0031    constr:    0.0000
     atom:  109    charge:    0.3853    magn:    0.0006    constr:    0.0000
     atom:  110    charge:    0.4001    magn:    0.0016    constr:    0.0000
     atom:  111    charge:    0.4095    magn:   -0.0005    constr:    0.0000
     atom:  112    charge:    0.3996    magn:   -0.0003    constr:    0.0000
     atom:  113    charge:    0.4020    magn:   -0.0002    constr:    0.0000
     atom:  114    charge:    0.3828    magn:    0.0018    constr:    0.0000
     atom:  115    charge:    0.4016    magn:    0.0023    constr:    0.0000
     atom:  116    charge:    0.4142    magn:    0.0009    constr:    0.0000
     atom:  117    charge:    0.4152    magn:    0.0005    constr:    0.0000
     atom:  118    charge:    0.4051    magn:    0.0011    constr:    0.0000
     atom:  119    charge:    0.3928    magn:    0.0016    constr:    0.0000
     atom:  120    charge:    0.4098    magn:    0.0011    constr:    0.0000
     atom:  121    charge:    0.4134    magn:    0.0005    constr:    0.0000
     atom:  122    charge:    0.4143    magn:   -0.0001    constr:    0.0000
     atom:  123    charge:    0.4008    magn:    0.0018    constr:    0.0000
     atom:  124    charge:    0.4055    magn:    0.0022    constr:    0.0000
     atom:  125    charge:    0.3821    magn:    0.0008    constr:    0.0000
     atom:  126    charge:    0.4102    magn:    0.0003    constr:    0.0000
     atom:  127    charge:    0.4074    magn:    0.0005    constr:    0.0000
     atom:  128    charge:    0.4129    magn:    0.0015    constr:    0.0000
     atom:  129    charge:    2.4493    magn:    0.0144    constr:    0.0000
     atom:  130    charge:    2.4493    magn:    0.0151    constr:    0.0000
     atom:  131    charge:    2.4507    magn:    0.0145    constr:    0.0000
     atom:  132    charge:    2.4490    magn:    0.0149    constr:    0.0000
     atom:  133    charge:    2.4489    magn:    0.0147    constr:    0.0000
     atom:  134    charge:    2.4492    magn:    0.0150    constr:    0.0000
     atom:  135    charge:    2.4537    magn:    0.0135    constr:    0.0000
     atom:  136    charge:    2.4480    magn:    0.0156    constr:    0.0000
     atom:  137    charge:    7.4365    magn:    1.1567    constr:    0.0000
     atom:  138    charge:    7.4499    magn:    1.1897    constr:    0.0000
     atom:  139    charge:    7.4551    magn:    1.1970    constr:    0.0000
     atom:  140    charge:    7.4511    magn:    1.1900    constr:    0.0000
     atom:  141    charge:    2.0407    magn:    0.0376    constr:    0.0000
     atom:  142    charge:    2.0407    magn:    0.0402    constr:    0.0000
     atom:  143    charge:    2.0387    magn:    0.0239    constr:    0.0000
     atom:  144    charge:    2.0443    magn:    0.0381    constr:    0.0000
     atom:  145    charge:    2.0436    magn:    0.0373    constr:    0.0000
     atom:  146    charge:    2.0423    magn:    0.0432    constr:    0.0000
     atom:  147    charge:    2.0889    magn:    0.0086    constr:    0.0000
     atom:  148    charge:    2.0417    magn:    0.0397    constr:    0.0000
     atom:  149    charge:    2.0416    magn:    0.0365    constr:    0.0000
     atom:  150    charge:    2.0380    magn:    0.0248    constr:    0.0000
     atom:  151    charge:    2.0390    magn:    0.0235    constr:    0.0000
     atom:  152    charge:    2.0452    magn:    0.0367    constr:    0.0000
     atom:  153    charge:    2.0445    magn:    0.0380    constr:    0.0000
     atom:  154    charge:    2.0897    magn:    0.0085    constr:    0.0000
     atom:  155    charge:    2.0890    magn:    0.0087    constr:    0.0000
     atom:  156    charge:    2.0429    magn:    0.0377    constr:    0.0000

     total cpu time spent up to now is     2509.0 secs

     End of self-consistent calculation

 ------ SPIN UP ------------


          k = 0.0000 0.0000 0.0000 ( 91663 PWs)   bands (ev):

   -22.5799 -22.5248 -22.5092 -21.0545 -21.0423 -21.0130 -21.0070 -20.8891
   -19.1079 -19.0915 -19.0897 -18.0968 -18.0594 -18.0534 -18.0438 -17.9528
   -17.8650 -17.8315 -17.7823 -17.7511 -17.7493 -17.6639 -17.6522 -17.6449
   -15.0547 -15.0494 -14.9250 -14.5273 -14.4998 -14.4909 -14.4837 -14.3955
   -13.7661 -13.7371 -13.7045 -13.5066 -13.3943 -13.3467 -13.2710 -13.1626
   -12.5971 -12.4884 -12.3208 -12.1304 -11.8557 -11.8429 -11.7516 -11.4301
   -10.8477 -10.7967 -10.6474 -10.6179 -10.5317 -10.4532 -10.3227 -10.2429
   -10.2152 -10.1751 -10.1577 -10.0834 -10.0476  -9.9238  -9.8406  -9.7838
    -9.6968  -9.6709  -9.6344  -8.9358  -8.8974  -8.7394  -8.4677  -8.3208
    -8.2068  -8.1381  -8.1307  -7.9761  -7.8588  -7.7768  -7.6931  -7.5402
    -7.5251  -7.4747  -7.3613  -6.7203  -6.6935  -6.6287  -6.6077  -6.4883
    -6.4301  -6.3763  -6.3483  -6.2966  -6.2875  -6.2640  -6.2459  -6.1756
    -6.0201  -5.9689  -5.9506  -5.8868  -5.8724  -5.7433  -5.7011  -5.6634
    -5.5657  -5.5429  -5.5159  -5.5050  -5.4457  -5.4082  -5.3700  -5.3007
    -5.2824  -5.2550  -5.2246  -5.1682  -5.0926  -5.0698  -5.0138  -4.9868
    -4.9616  -4.9493  -4.8625  -4.8365  -4.8182  -4.7908  -4.7543  -4.6858
    -4.6479  -4.6064  -4.5770  -4.5050  -4.4607  -4.4412  -4.4009  -4.3339
    -4.2899  -4.2478  -4.2194  -4.1811  -4.1559  -4.1433  -4.0591  -3.9871
    -3.9085  -3.8624  -3.8400  -3.8090  -3.7561  -3.7469  -3.6469  -3.5551
    -3.5479  -3.4812  -3.4505  -3.3677  -3.3577  -3.2777  -3.1807  -3.1172
    -3.0840  -2.9889  -2.9525  -2.9416  -2.9111  -2.8820  -2.8394  -2.7877
    -2.7625  -2.7151  -2.6722  -2.6652  -2.6226  -2.5905  -2.5486  -2.4959
    -2.4620  -2.4276  -2.3646  -2.3525  -2.3248  -2.2891  -2.2169  -2.1956
    -2.1828  -2.1663  -2.1349  -2.0947  -2.0573  -1.9915  -1.9681  -1.9454
    -1.9027  -1.8523  -1.8406  -1.7834  -1.7667  -1.6787  -1.6432  -1.5978
    -1.5836  -1.5723  -1.5447  -1.5016  -1.4816  -1.4424  -1.3789  -1.3599
    -1.3437  -1.2799  -1.2467  -1.1819  -1.1424  -1.1082  -1.0022  -0.9509
    -0.9195  -0.8485  -0.8252  -0.7994  -0.7779  -0.7370  -0.7262  -0.6906
    -0.6571  -0.6466  -0.6294  -0.6117  -0.5120  -0.4631  -0.4540  -0.4127
    -0.3919  -0.3651  -0.3255  -0.3135  -0.2890  -0.1730  -0.0076   0.0990
     0.2994   0.9737   1.0550   1.1017   1.2700   1.3988   1.4516   1.4867
     1.6205   2.3905   2.4930   2.5324   3.0715   3.1274   3.1539   3.3925
     3.4359   3.4611   3.5198   3.6059   4.3521   4.4885   4.5649   4.6940
     4.8098   4.8431   4.9694   5.0179   5.2011   5.5375   5.5745   5.6325
     5.6885   5.7422   5.8716   5.9144   5.9505   5.9722   6.0698   6.1374
     6.4625   6.5137   6.5456   6.6324   6.6886   6.7981   6.8472   7.1979
     7.2504   7.3727   7.4524   7.5544   7.7609   7.7815   7.8912   7.9381
     7.9514   8.0693   8.1297   8.1681   8.1831   8.2226

 ------ SPIN DOWN ----------


          k = 0.0000 0.0000 0.0000 ( 91663 PWs)   bands (ev):

   -22.5494 -22.4935 -22.4774 -20.9523 -20.9338 -20.9114 -20.9033 -20.7769
   -19.0409 -19.0235 -19.0190 -17.9681 -17.9252 -17.9235 -17.9120 -17.8273
   -17.8071 -17.7897 -17.7424 -17.7112 -17.7085 -17.6247 -17.6117 -17.6035
   -15.0163 -15.0107 -14.8855 -14.4866 -14.4610 -14.4514 -14.4439 -14.3509
   -13.7307 -13.7015 -13.6633 -13.4639 -13.3563 -13.3065 -13.2327 -13.1190
   -12.5725 -12.4666 -12.2911 -12.0945 -11.8213 -11.8096 -11.7131 -11.3894
   -10.8173 -10.7634 -10.6112 -10.5877 -10.5028 -10.4160 -10.2847 -10.1968
   -10.1751 -10.1341 -10.1228 -10.0544 -10.0035  -9.8995  -9.8079  -9.7478
    -9.6666  -9.6416  -9.6011  -8.9049  -8.8677  -8.7071  -8.4326  -8.2827
    -8.1783  -8.1017  -8.1010  -7.9430  -7.8269  -7.7388  -7.6579  -7.4987
    -7.4870  -7.4377  -7.3166  -6.6736  -6.6369  -6.5831  -6.5606  -6.4265
    -6.3791  -6.3295  -6.2947  -6.2363  -6.2279  -6.2043  -6.1859  -6.1096
    -5.9650  -5.9198  -5.8677  -5.8200  -5.8073  -5.6650  -5.6423  -5.6004
    -5.5005  -5.4576  -5.4365  -5.4258  -5.3830  -5.3544  -5.2966  -5.2285
    -5.2003  -5.1681  -5.1356  -5.1037  -5.0119  -4.9956  -4.9226  -4.9025
    -4.8832  -4.8544  -4.7687  -4.7656  -4.7337  -4.7067  -4.6733  -4.6129
    -4.6008  -4.5263  -4.5154  -4.4349  -4.4173  -4.3778  -4.3395  -4.2812
    -4.2612  -4.1815  -4.1662  -4.1161  -4.1016  -4.0673  -3.9880  -3.9135
    -3.8502  -3.8144  -3.7953  -3.7463  -3.7047  -3.6995  -3.5812  -3.5045
    -3.4806  -3.4157  -3.3973  -3.3113  -3.3039  -3.2083  -3.0750  -2.9767
    -2.9352  -2.9123  -2.8868  -2.8517  -2.8249  -2.7750  -2.7516  -2.7058
    -2.6703  -2.6158  -2.5779  -2.5637  -2.4150  -2.3873  -2.3653  -2.2889
    -2.2591  -2.2221  -2.1871  -2.1774  -2.1444  -2.1363  -2.1036  -2.0905
    -2.0480  -2.0313  -1.9599  -1.9140  -1.8849  -1.8364  -1.8205  -1.7393
    -1.7055  -1.6263  -1.6100  -1.5624  -1.5320  -1.4971  -1.4120  -1.3911
    -1.3217  -1.2869  -1.2334  -1.2201  -1.1730  -1.1130  -1.0792  -1.0359
    -0.9895  -0.9544  -0.9044  -0.8857  -0.8604  -0.7909  -0.7201  -0.6538
    -0.6003  -0.5877  -0.5466  -0.4732  -0.4281  -0.3429  -0.2891  -0.2553
    -0.2201  -0.0936  -0.0401   0.0445   0.1185   0.1356   0.1545   0.2353
     0.2519   0.2591   0.2768   0.3072   0.3382   0.3696   0.3920   0.4235
     0.4641   1.8461   1.9088   1.9507   2.0715   2.1643   2.2172   2.2517
     2.3183   2.5450   2.6354   2.6543   3.1720   3.2245   3.2541   3.5069
     3.5544   3.5754   3.6341   3.7173   4.4435   4.5839   4.6617   4.7853
     4.8899   4.9356   5.0601   5.1080   5.2575   5.6154   5.6305   5.7097
     5.7499   5.7963   5.9456   5.9798   6.0153   6.0446   6.1475   6.2076
     6.5044   6.5481   6.5857   6.6673   6.7228   6.8309   6.8817   7.2289
     7.2893   7.4093   7.4864   7.5832   7.7954   7.8190   7.9272   7.9806
     7.9865   8.1062   8.1747   8.2044   8.2279   8.2566

     the spin up/dw Fermi energies are     1.8533    1.4853 ev

!    total energy              =   -1841.41513837 Ry
     Harris-Foulkes estimate   =   -1841.41513872 Ry
     estimated scf accuracy    <       0.00000056 Ry

     The total energy is the sum of the following terms:

     one-electron contribution =   -2271.03150751 Ry
     hartree contribution      =    1328.23256554 Ry
     xc contribution           =    -573.57223488 Ry
     ewald contribution        =    -327.95031276 Ry
     Dispersion Correction     =      -0.81425138 Ry
     smearing contrib. (-TS)   =       3.72060263 Ry

     total magnetization       =     8.00 Bohr mag/cell
     absolute magnetization    =     8.23 Bohr mag/cell

     convergence has been achieved in  25 iterations

     Forces acting on atoms (cartesian axes, Ry/au):

     atom    1 type  1   force =    -0.00174631   -0.00890730    0.00775585
     atom    2 type  1   force =    -0.03178615    0.04039405    0.02461589
     atom    3 type  1   force =     0.01231552    0.02586223   -0.02173985
     atom    4 type  1   force =     0.01307672   -0.02407666   -0.00681857
     atom    5 type  1   force =     0.02229523    0.03049252    0.02626079
     atom    6 type  1   force =    -0.01082728    0.00794430   -0.00083397
     atom    7 type  1   force =     0.01562835    0.04244608    0.01138024
     atom    8 type  1   force =     0.00566310   -0.05216303    0.00994264
     atom    9 type  1   force =    -0.02339096    0.02436549    0.06565055
     atom   10 type  1   force =    -0.02657544   -0.03332571    0.05352510
     atom   11 type  1   force =     0.00752093    0.01103745   -0.00666125
     atom   12 type  1   force =     0.02911641    0.03520971    0.05015105
     atom   13 type  1   force =    -0.04166218   -0.06227161   -0.04569866
     atom   14 type  1   force =     0.00417448   -0.00210187   -0.00082093
     atom   15 type  1   force =    -0.00549004    0.00141154    0.00253210
     atom   16 type  1   force =     0.01028965   -0.03371110   -0.01810486
     atom   17 type  1   force =     0.01213638    0.00338587    0.00339535
     atom   18 type  1   force =     0.01261176   -0.00718751   -0.02935430
     atom   19 type  1   force =    -0.00373214   -0.02513806    0.00088675
     atom   20 type  1   force =    -0.01322296    0.01280576   -0.00459368
     atom   21 type  1   force =    -0.16895941   -0.03109051   -0.03700394
     atom   22 type  1   force =     0.00526654    0.00154384    0.00687792
     atom   23 type  1   force =     0.00301532    0.00577064   -0.00041208
     atom   24 type  1   force =    -0.00485649   -0.00122927    0.00380974
     atom   25 type  1   force =    -0.00188672   -0.00945921    0.00791825
     atom   26 type  1   force =    -0.03179950    0.04006862    0.02481923
     atom   27 type  1   force =     0.01261726    0.02607599   -0.02173163
     atom   28 type  1   force =     0.01297240   -0.02430415   -0.00735055
     atom   29 type  1   force =     0.02190077    0.02952158    0.02561145
     atom   30 type  1   force =    -0.01133512    0.00812940   -0.00047865
     atom   31 type  1   force =     0.04550590    0.03179862    0.03338769
     atom   32 type  1   force =    -0.00198712   -0.00642987    0.00075940
     atom   33 type  1   force =    -0.03787768    0.04148054    0.04728994
     atom   34 type  1   force =    -0.00337040    0.01002311   -0.00301962
     atom   35 type  1   force =     0.00724431    0.01152680   -0.00730200
     atom   36 type  1   force =     0.02930640    0.03524104    0.05032479
     atom   37 type  1   force =    -0.04158671   -0.06237907   -0.04539462
     atom   38 type  1   force =     0.00414622   -0.00208699   -0.00114290
     atom   39 type  1   force =     0.00961242    0.03009900   -0.03289675
     atom   40 type  1   force =     0.02192440   -0.04618519   -0.03752460
     atom   41 type  1   force =     0.01383382    0.01288335   -0.03145078
     atom   42 type  1   force =    -0.02998032    0.03692143    0.02911479
     atom   43 type  1   force =    -0.02123872   -0.02312054   -0.00805678
     atom   44 type  1   force =     0.00458368    0.00894754   -0.03757351
     atom   45 type  1   force =    -0.16710422   -0.03171154   -0.03638148
     atom   46 type  1   force =     0.00562620    0.00529996    0.00765540
     atom   47 type  1   force =     0.00458167    0.00603977    0.00072201
     atom   48 type  1   force =     0.16872317   -0.03780861   -0.03579824
     atom   49 type  1   force =    -0.00025305    0.00022571    0.00041762
     atom   50 type  1   force =    -0.00043531    0.00015208   -0.00050974
     atom   51 type  1   force =     0.00052728    0.00010311   -0.00034720
     atom   52 type  1   force =     0.00018865   -0.00013628    0.00029265
     atom   53 type  1   force =    -0.00002109    0.00045136    0.00010997
     atom   54 type  1   force =     0.00017630    0.00003518    0.00008112
     atom   55 type  1   force =     0.00039788   -0.00012564    0.00029900
     atom   56 type  1   force =     0.00023814   -0.00042483    0.00022909
     atom   57 type  1   force =    -0.00002552    0.00034388    0.00035294
     atom   58 type  1   force =    -0.00034409    0.00062421    0.00019273
     atom   59 type  1   force =    -0.00039960    0.00020277    0.00051566
     atom   60 type  1   force =    -0.00009010    0.00075982   -0.00014772
     atom   61 type  1   force =    -0.00073400    0.00013416   -0.00090354
     atom   62 type  1   force =    -0.00025958   -0.00062841    0.00014671
     atom   63 type  1   force =     0.00026281    0.00016975    0.00010724
     atom   64 type  1   force =     0.00053074   -0.00038754    0.00006684
     atom   65 type  2   force =     0.00129496    0.00220913   -0.00340969
     atom   66 type  2   force =    -0.00044135   -0.00237535   -0.00185083
     atom   67 type  2   force =     0.00004065    0.00284791   -0.00073854
     atom   68 type  2   force =    -0.00604684   -0.00236604    0.00191868
     atom   69 type  2   force =     0.00001940   -0.00081831    0.00143896
     atom   70 type  2   force =     0.00180637   -0.00408880   -0.00290765
     atom   71 type  2   force =     0.00723782   -0.00199671    0.00345102
     atom   72 type  2   force =    -0.00099009   -0.01165037   -0.02065115
     atom   73 type  2   force =     0.00021881   -0.00041881   -0.00146890
     atom   74 type  2   force =     0.00162558   -0.00101122   -0.00015848
     atom   75 type  2   force =     0.00428800   -0.01166788   -0.01700698
     atom   76 type  2   force =     0.00029812   -0.00173590   -0.01342893
     atom   77 type  2   force =     0.00055941    0.00234803   -0.01226870
     atom   78 type  2   force =     0.00111378    0.00243488   -0.00339613
     atom   79 type  2   force =    -0.00007704   -0.00218382   -0.00189945
     atom   80 type  2   force =    -0.00840383   -0.00148672    0.00747134
     atom   81 type  2   force =    -0.00693520    0.00181417    0.00142357
     atom   82 type  2   force =     0.00127820   -0.00402466   -0.00266842
     atom   83 type  2   force =     0.00699838   -0.00194818    0.00324942
     atom   84 type  2   force =    -0.00092872   -0.01188897   -0.02079229
     atom   85 type  2   force =     0.00013243   -0.00057567   -0.00145340
     atom   86 type  2   force =     0.00272159    0.01263472   -0.02376462
     atom   87 type  2   force =     0.00054252   -0.00472490   -0.02065462
     atom   88 type  2   force =     0.00094695   -0.00425610    0.00194176
     atom   89 type  2   force =     0.00074732   -0.00021576    0.00026715
     atom   90 type  2   force =     0.00050720   -0.00047186   -0.00045305
     atom   91 type  2   force =    -0.00048608    0.00039495    0.00012533
     atom   92 type  2   force =     0.00035603    0.00024994    0.00010017
     atom   93 type  2   force =     0.00014845   -0.00005792   -0.00013733
     atom   94 type  2   force =    -0.00046432   -0.00018040    0.00017442
     atom   95 type  2   force =     0.00038867   -0.00044958    0.00012334
     atom   96 type  2   force =    -0.00039279    0.00004757   -0.00013517
     atom   97 type  2   force =     0.00021034    0.00000093    0.00071427
     atom   98 type  2   force =     0.00042490    0.00047353    0.00028100
     atom   99 type  2   force =     0.00037020   -0.00001277    0.00024463
     atom  100 type  2   force =    -0.00027278    0.00040350   -0.00014075
     atom  101 type  2   force =    -0.00012701    0.00001254   -0.00035558
     atom  102 type  2   force =     0.00005851   -0.00031991    0.00011416
     atom  103 type  2   force =     0.00038923   -0.00008829   -0.00005714
     atom  104 type  2   force =     0.00066602    0.00061008    0.00051640
     atom  105 type  2   force =    -0.00006834   -0.00022411    0.00009130
     atom  106 type  2   force =    -0.00054083    0.00008282   -0.00005452
     atom  107 type  2   force =     0.00019395   -0.00015602   -0.00016506
     atom  108 type  2   force =     0.00004741   -0.00046707    0.00038620
     atom  109 type  2   force =     0.00012864    0.00026023    0.00005045
     atom  110 type  2   force =     0.00040882   -0.00047711   -0.00043513
     atom  111 type  2   force =    -0.00047874    0.00040685   -0.00023028
     atom  112 type  2   force =     0.00004398    0.00014112   -0.00031289
     atom  113 type  2   force =     0.00037694   -0.00011567    0.00014189
     atom  114 type  2   force =    -0.00025924   -0.00069207   -0.00023713
     atom  115 type  2   force =     0.00053618   -0.00028962    0.00019322
     atom  116 type  2   force =     0.00045468    0.00064512    0.00006267
     atom  117 type  2   force =    -0.00002690   -0.00021782   -0.00023705
     atom  118 type  2   force =     0.00015043   -0.00026390    0.00021203
     atom  119 type  2   force =     0.00033361    0.00006408   -0.00003869
     atom  120 type  2   force =     0.00041368    0.00010074    0.00055507
     atom  121 type  2   force =     0.00085555   -0.00038324    0.00046161
     atom  122 type  2   force =    -0.00068540   -0.00013542   -0.00029072
     atom  123 type  2   force =    -0.00013835    0.00008761   -0.00018962
     atom  124 type  2   force =    -0.00001745    0.00020269    0.00065904
     atom  125 type  2   force =     0.00034292   -0.00018458   -0.00057452
     atom  126 type  2   force =     0.00030615   -0.00030011   -0.00029523
     atom  127 type  2   force =    -0.00020315    0.00012307    0.00042921
     atom  128 type  2   force =     0.00068911   -0.00065281    0.00044967
     atom  129 type  3   force =     0.01284871   -0.00897566    0.00705780
     atom  130 type  3   force =    -0.00514482   -0.00021354    0.00048066
     atom  131 type  3   force =     0.00244336    0.00004420   -0.00368213
     atom  132 type  3   force =    -0.00798264   -0.00317144   -0.00066964
     atom  133 type  3   force =     0.01341290   -0.01021989    0.00757892
     atom  134 type  3   force =    -0.00508840   -0.00013875    0.00044729
     atom  135 type  3   force =    -0.00356509    0.00025358   -0.00198826
     atom  136 type  3   force =    -0.01125721   -0.01097805    0.00104075
     atom  137 type  4   force =     0.01132555   -0.00205618    0.00949987
     atom  138 type  4   force =    -0.00865891    0.03441679   -0.04252800
     atom  139 type  4   force =     0.02194927    0.03908797   -0.03510399
     atom  140 type  4   force =    -0.00782339    0.03380411   -0.04173248
     atom  141 type  5   force =     0.00441078   -0.00306102    0.00041751
     atom  142 type  5   force =     0.00647629    0.00456317   -0.00098030
     atom  143 type  5   force =     0.04871334   -0.02945026    0.04296791
     atom  144 type  5   force =    -0.00472881   -0.01240102    0.00708982
     atom  145 type  5   force =    -0.01107055   -0.00385857    0.00688765
     atom  146 type  5   force =    -0.00353254   -0.00170695    0.00194931
     atom  147 type  5   force =     0.10136483    0.01678981   -0.00011911
     atom  148 type  5   force =    -0.00240024   -0.00395974    0.00509770
     atom  149 type  5   force =     0.00864540   -0.00008404    0.00233731
     atom  150 type  5   force =    -0.05193346   -0.02285573    0.04522942
     atom  151 type  5   force =     0.04788006   -0.02802686    0.04324610
     atom  152 type  5   force =    -0.00835153   -0.01555775    0.00677309
     atom  153 type  5   force =    -0.00098542   -0.00941246    0.00882267
     atom  154 type  5   force =    -0.09599483    0.01905340    0.03087019
     atom  155 type  5   force =     0.10255672    0.01789985   -0.00069175
     atom  156 type  5   force =    -0.00122942   -0.00634451    0.00816631

     Total force =     0.487685     Total SCF correction =     0.001678

     BFGS Geometry Optimization

     number of scf cycles    =   1
     number of bfgs steps    =   0

     energy   new            =   -1841.4151383729 Ry

     new trust radius        =       0.1765743838 bohr
     new conv_thr            =       0.0000010000 Ry


ATOMIC_POSITIONS (crystal)
C             0.2881453746        0.9696736216        0.5223834652
C             0.0370570374        0.0328128519        0.0235758411
C             0.3911347555        0.0128628094        0.5453722892
C             0.1407909522        0.9867266400        0.0457948094
C             0.4528830417        0.9714904626        0.6517235615
C             0.2020610600        0.0286886867        0.1498500463
C             0.2088529832        0.5314975607        0.5269701390
C             0.4587939546        0.4692048493        0.0284160953
C             0.2442087447        0.6143605647        0.6098163309
C             0.4957446270        0.3872688208        0.1113738098
C             0.2497880057        0.8896723879        0.6028599123
C             0.0023480744        0.1137197876        0.1068300291
C             0.4061712229        0.8867517108        0.7251982911
C             0.1601108743        0.1094581853        0.2277697181
C             0.0886320616        0.6090426447        0.7274824155
C             0.3413084377        0.3902085364        0.2284615093
C             0.0474417356        0.5252220701        0.6514868773
C             0.2981641538        0.4744072916        0.1512421072
C             0.1080069050        0.4832077906        0.5501616721
C             0.3572681623        0.5161971080        0.0504014025
C             0.4261257698        0.0980052695        0.4647151127
C             0.1817463015        0.8997852350        0.9660262471
C             0.0675052076        0.3947178385        0.4706547756
C             0.3158410679        0.6041200573        0.9693032206
C             0.7881395850        0.9696503008        0.5223918294
C             0.5370566631        0.0327991008        0.0235863141
C             0.8911475314        0.0128718418        0.5453727125
C             0.6407860392        0.9867170273        0.0457674100
C             0.9528657414        0.9714494352        0.6516901174
C             0.7020399038        0.0286965081        0.1498683470
C             0.7101388853        0.5310476517        0.5281036326
C             0.9584626265        0.4711373057        0.0279431131
C             0.7435785266        0.6150837618        0.6088706678
C             0.9966735505        0.3891005270        0.1084614743
C             0.7497756998        0.8896930654        0.6028269107
C             0.5023562766        0.1137211113        0.1068389779
C             0.9061747016        0.8867471703        0.7252139506
C             0.6601083765        0.1094588141        0.2277531351
C             0.5892379157        0.6102548344        0.7256576531
C             0.8417825614        0.3896814430        0.2274612957
C             0.5474809001        0.5256233862        0.6496921278
C             0.7964166683        0.4762711161        0.1542535570
C             0.6072577281        0.4832930406        0.5497010355
C             0.8579907399        0.5160340786        0.0487027767
C             0.9262048561        0.0979790276        0.4647471723
C             0.6817622494        0.8999439502        0.9660662910
C             0.5675715508        0.3947292107        0.4707131869
C             0.8231489931        0.6025743960        0.9672632118
C             0.5472796838        0.0161285374        0.7169745097
C             0.5832721020        0.1303094262        0.7322087457
C             0.9552479865        0.0047463567        0.9298771174
C             0.8690942569        0.0804182416        0.8919700732
C             0.2775612105        0.5146810721        0.4178386641
C             0.3430105363        0.6086684867        0.3745371782
C             0.5284041166        0.4927816911        0.9220663998
C             0.6226562919        0.4217990486        0.8994647991
C             0.0474422511        0.0156935308        0.7169031783
C             0.0843916203        0.1295823759        0.7319629263
C             0.4552405744        0.0049455679        0.9297505591
C             0.3693900491        0.0810271061        0.8920403916
C             0.7953590937        0.4973726690        0.4491764634
C             0.8851441535        0.5682074463        0.4179595565
C             0.7222822213        0.5465501730        0.2236685234
C             0.6052605210        0.5790126243        0.2165494425
H             0.2371756003        0.9996683469        0.4429373837
H             0.2823195894        0.9985646294        0.1725066732
H             0.0086420277        0.5005173385        0.9505099615
H             0.3223869255        0.6504060228        0.5927338217
H             0.0749701698        0.3528164225        0.0951021136
H             0.1702277115        0.8549502277        0.5884102415
H             0.4226315044        0.1476476291        0.0900637449
H             0.4533087471        0.8546807131        0.8076973625
H             0.2062468823        0.1430853034        0.3087213445
H             0.0437976381        0.6429012708        0.8065998372
H             0.2965435061        0.3570329734        0.3081750558
H             0.4686720275        0.4931576493        0.6728103431
H             0.2189641715        0.5053002159        0.1746321006
H             0.7371679464        0.9996778860        0.4429380823
H             0.7823349595        0.9985727226        0.1725041688
H             0.8222923939        0.6504431788        0.5930198112
H             0.5746758702        0.3529276578        0.0951013208
H             0.6702055860        0.8549529379        0.5884225630
H             0.9226211834        0.1476496796        0.0900533615
H             0.9533112118        0.8546706311        0.8076900932
H             0.7062442416        0.1430786750        0.3087221427
H             0.5438218892        0.6434778805        0.8053840033
H             0.7963815963        0.3573263491        0.3079871840
H             0.9687138903        0.4930511585        0.6736020105
H             0.5649778732        0.1263228831        0.5676667593
H             0.6131630375        0.9588080615        0.7250706657
H             0.5198455490        0.1895676888        0.7189394549
H             0.6536161596        0.1495575611        0.6730621592
H             0.6160521531        0.1388825526        0.8315639266
H             0.9294125158        0.9220363770        0.9413619836
H             0.0168565621        0.9970060032        0.8298303525
H             0.8105532524        0.0822880101        0.9697010380
H             0.8250165700        0.0533290392        0.8055407886
H             0.8994302432        0.1609870091        0.8764814730
H             0.2234088942        0.4829624604        0.3425195996
H             0.3335763253        0.4487930499        0.4462667509
H             0.2943772922        0.6813445301        0.3677416858
H             0.3771465830        0.5950894822        0.2787858798
H             0.4123564168        0.6229752692        0.4396480572
H             0.4730746667        0.4976857788        0.8381225974
H             0.5517911937        0.5766255302        0.9372867024
H             0.5972720634        0.3390464997        0.8832571920
H             0.6687400522        0.4461034075        0.8156674987
H             0.6792793681        0.4229402639        0.9827848915
H             0.0661764908        0.1238439962        0.5664175982
H             0.1128058913        0.9578178398        0.7254915885
H             0.0213395264        0.1892341914        0.7188841395
H             0.1547165676        0.1482649629        0.6725038847
H             0.1174410832        0.1374731122        0.8312513079
H             0.5171238081        0.9969307565        0.8300167866
H             0.4284118696        0.9225397622        0.9412539518
H             0.3999912987        0.1615822596        0.8774432280
H             0.3256636395        0.0544207959        0.8051467906
H             0.3104055640        0.0824908490        0.9692889207
H             0.7258520807        0.5084977077        0.3249330070
H             0.8086700254        0.4118722568        0.4490215888
H             0.8592376353        0.6498788064        0.3975317754
H             0.9322237246        0.5371552776        0.3386840264
H             0.9404509680        0.5713217022        0.5023322338
H             0.7693338791        0.6202855648        0.2363339437
H             0.6781559721        0.6133722006        0.0528754094
H             0.5932956780        0.6361303188        0.2953457944
H             0.5752688059        0.6197192004        0.1277181064
H             0.5530055814        0.5111004154        0.2323171603
N             0.3089873107        0.8508737332        0.7051915118
N             0.0605117468        0.1488479769        0.2060767563
N             0.1866419396        0.6503118677        0.7056483517
N             0.4384715855        0.3507939909        0.2080065103
N             0.8090116733        0.8508211581        0.7052183523
N             0.5605141029        0.1488511371        0.2060750377
N             0.6863902788        0.6503207150        0.7057355949
N             0.9383346250        0.3504641223        0.2080946040
Ni            0.2474901470        0.7513991159        0.8368152907
Ni            0.4995657336        0.2494532829        0.3369875958
Ni            0.7478978824        0.7531376636        0.8345179696
Ni            0.9996018344        0.2494273938        0.3370285692
O             0.1229650342        0.3475596565        0.3828945037
O             0.3714811264        0.6511698170        0.8812415098
O             0.3797315885        0.1462625783        0.3793910618
O             0.1249045452        0.8518279946        0.8766261613
O             0.4726070039        0.3559969559        0.4833487485
O             0.2209893473        0.6413428728        0.9799773992
O             0.0331291576        0.1358674540        0.4810718652
O             0.2765892117        0.8625906811        0.9796615570
O             0.6231470222        0.3476854488        0.3829933829
O             0.8690528226        0.6500112305        0.8836215406
O             0.8796965888        0.1463227239        0.3794053901
O             0.6247509522        0.8516946068        0.8766098477
O             0.9730355717        0.3557622760        0.4834484113
O             0.7171038990        0.6422201021        0.9814669688
O             0.5331790560        0.1359143587        0.4810423715
O             0.7766416314        0.8624899127        0.9798196056



     Writing output data file /nfs/hpc/share/gantzlen/NiPyC2_relax_sc211_meta_functionalized_CH2-CH3_pbesol_relax_frozen_parent_atoms_Round2.save/
     NEW-OLD atomic charge density approx. for the potential

     Check: negative core charge=   -0.000145

     total cpu time spent up to now is     2536.1 secs

     Self-consistent Calculation

     iteration #  1     ecut=   100.00 Ry     beta= 0.70
     Davidson diagonalization with overlap
     ethr =  1.00E-06,  avg # of iterations = 16.0

     total cpu time spent up to now is     2878.7 secs

     total energy              =   -1841.44737632 Ry
     Harris-Foulkes estimate   =   -1841.47876544 Ry
     estimated scf accuracy    <       0.10238851 Ry

     total magnetization       =     8.00 Bohr mag/cell
     absolute magnetization    =     8.22 Bohr mag/cell

     iteration #  2     ecut=   100.00 Ry     beta= 0.70
     Davidson diagonalization with overlap
     ethr =  2.06E-05,  avg # of iterations =  2.0

     total cpu time spent up to now is     2983.9 secs

     total energy              =   -1841.44516385 Ry
     Harris-Foulkes estimate   =   -1841.45719999 Ry
     estimated scf accuracy    <       0.05540525 Ry

     total magnetization       =     8.00 Bohr mag/cell
     absolute magnetization    =     8.21 Bohr mag/cell

     iteration #  3     ecut=   100.00 Ry     beta= 0.70
     Davidson diagonalization with overlap
     ethr =  1.12E-05,  avg # of iterations =  2.0

     total cpu time spent up to now is     3085.8 secs

     total energy              =   -1841.44296719 Ry
     Harris-Foulkes estimate   =   -1841.45842350 Ry
     estimated scf accuracy    <       0.13491774 Ry

     total magnetization       =     8.00 Bohr mag/cell
     absolute magnetization    =     8.22 Bohr mag/cell

     iteration #  4     ecut=   100.00 Ry     beta= 0.70
     Davidson diagonalization with overlap
     ethr =  1.12E-05,  avg # of iterations =  2.0

     total cpu time spent up to now is     3210.5 secs

     total energy              =   -1841.44831421 Ry
     Harris-Foulkes estimate   =   -1841.45137785 Ry
     estimated scf accuracy    <       0.03158299 Ry

     total magnetization       =     8.00 Bohr mag/cell
     absolute magnetization    =     8.21 Bohr mag/cell

     iteration #  5     ecut=   100.00 Ry     beta= 0.70
     Davidson diagonalization with overlap
     ethr =  6.37E-06,  avg # of iterations =  8.0

     total cpu time spent up to now is     3315.9 secs

     total energy              =   -1841.44859592 Ry
     Harris-Foulkes estimate   =   -1841.45048610 Ry
     estimated scf accuracy    <       0.01253191 Ry

     total magnetization       =     8.00 Bohr mag/cell
     absolute magnetization    =     8.21 Bohr mag/cell

     iteration #  6     ecut=   100.00 Ry     beta= 0.70
     Davidson diagonalization with overlap
     ethr =  2.53E-06,  avg # of iterations = 10.5

     total cpu time spent up to now is     3426.5 secs

     total energy              =   -1841.44889808 Ry
     Harris-Foulkes estimate   =   -1841.44937442 Ry
     estimated scf accuracy    <       0.00240768 Ry

     total magnetization       =     8.00 Bohr mag/cell
     absolute magnetization    =     8.21 Bohr mag/cell

     iteration #  7     ecut=   100.00 Ry     beta= 0.70
     Davidson diagonalization with overlap
     ethr =  4.85E-07,  avg # of iterations =  3.0

     total cpu time spent up to now is     3499.0 secs

     total energy              =   -1841.44893940 Ry
     Harris-Foulkes estimate   =   -1841.44904902 Ry
     estimated scf accuracy    <       0.00060254 Ry

     total magnetization       =     8.00 Bohr mag/cell
     absolute magnetization    =     8.20 Bohr mag/cell

     iteration #  8     ecut=   100.00 Ry     beta= 0.70
     Davidson diagonalization with overlap
     ethr =  1.21E-07,  avg # of iterations =  2.5

     total cpu time spent up to now is     3555.9 secs

     total energy              =   -1841.44888915 Ry
     Harris-Foulkes estimate   =   -1841.44905438 Ry
     estimated scf accuracy    <       0.00218130 Ry

     total magnetization       =     8.00 Bohr mag/cell
     absolute magnetization    =     8.20 Bohr mag/cell

     iteration #  9     ecut=   100.00 Ry     beta= 0.70
     Davidson diagonalization with overlap
     ethr =  1.21E-07,  avg # of iterations =  1.5

     total cpu time spent up to now is     3609.7 secs

     total energy              =   -1841.44893417 Ry
     Harris-Foulkes estimate   =   -1841.44896669 Ry
     estimated scf accuracy    <       0.00018504 Ry

     total magnetization       =     8.00 Bohr mag/cell
     absolute magnetization    =     8.20 Bohr mag/cell

     iteration # 10     ecut=   100.00 Ry     beta= 0.70
     Davidson diagonalization with overlap
     ethr =  3.73E-08,  avg # of iterations =  3.0

     total cpu time spent up to now is     3667.5 secs

     total energy              =   -1841.44892995 Ry
     Harris-Foulkes estimate   =   -1841.44894500 Ry
     estimated scf accuracy    <       0.00010789 Ry

     total magnetization       =     8.00 Bohr mag/cell
     absolute magnetization    =     8.20 Bohr mag/cell

     iteration # 11     ecut=   100.00 Ry     beta= 0.70
     Davidson diagonalization with overlap
     ethr =  2.18E-08,  avg # of iterations =  1.5

     total cpu time spent up to now is     3759.6 secs

     total energy              =   -1841.44892809 Ry
     Harris-Foulkes estimate   =   -1841.44893490 Ry
     estimated scf accuracy    <       0.00004828 Ry

     total magnetization       =     8.00 Bohr mag/cell
     absolute magnetization    =     8.20 Bohr mag/cell

     iteration # 12     ecut=   100.00 Ry     beta= 0.70
     Davidson diagonalization with overlap
     ethr =  9.73E-09,  avg # of iterations =  2.5

     total cpu time spent up to now is     3864.2 secs

     total energy              =   -1841.44892404 Ry
     Harris-Foulkes estimate   =   -1841.44893507 Ry
     estimated scf accuracy    <       0.00011649 Ry

     total magnetization       =     8.00 Bohr mag/cell
     absolute magnetization    =     8.20 Bohr mag/cell

     iteration # 13     ecut=   100.00 Ry     beta= 0.70
     Davidson diagonalization with overlap
     ethr =  9.73E-09,  avg # of iterations =  2.0

     total cpu time spent up to now is     3966.5 secs

     total energy              =   -1841.44892907 Ry
     Harris-Foulkes estimate   =   -1841.44893073 Ry
     estimated scf accuracy    <       0.00003014 Ry

     total magnetization       =     8.00 Bohr mag/cell
     absolute magnetization    =     8.20 Bohr mag/cell

     iteration # 14     ecut=   100.00 Ry     beta= 0.70
     Davidson diagonalization with overlap
     ethr =  6.08E-09,  avg # of iterations =  1.0

     total cpu time spent up to now is     4064.9 secs

     total energy              =   -1841.44892934 Ry
     Harris-Foulkes estimate   =   -1841.44893053 Ry
     estimated scf accuracy    <       0.00001639 Ry

     total magnetization       =     8.00 Bohr mag/cell
     absolute magnetization    =     8.20 Bohr mag/cell

     iteration # 15     ecut=   100.00 Ry     beta= 0.70
     Davidson diagonalization with overlap
     ethr =  3.30E-09,  avg # of iterations =  1.5

     total cpu time spent up to now is     4189.1 secs

     total energy              =   -1841.44892993 Ry
     Harris-Foulkes estimate   =   -1841.44893038 Ry
     estimated scf accuracy    <       0.00000677 Ry

     total magnetization       =     8.00 Bohr mag/cell
     absolute magnetization    =     8.20 Bohr mag/cell

     iteration # 16     ecut=   100.00 Ry     beta= 0.70
     Davidson diagonalization with overlap
     ethr =  1.37E-09,  avg # of iterations =  3.0

[...]
     atom   68 type  2   force =     0.00045520    0.00022457    0.00009009
     atom   69 type  2   force =    -0.00001490   -0.00017773    0.00003956
     atom   70 type  2   force =     0.00034495    0.00009842    0.00000696
     atom   71 type  2   force =     0.00016058   -0.00046277   -0.00027543
     atom   72 type  2   force =    -0.00009168    0.00012229   -0.00021831
     atom   73 type  2   force =    -0.00028859   -0.00003281   -0.00024305
     atom   74 type  2   force =    -0.00017374   -0.00017097    0.00052003
     atom   75 type  2   force =     0.00014838   -0.00012602    0.00005179
     atom   76 type  2   force =     0.00007273   -0.00018068   -0.00006236
     atom   77 type  2   force =     0.00006079    0.00009842    0.00001381
     atom   78 type  2   force =     0.00022292    0.00015373    0.00005581
     atom   79 type  2   force =    -0.00004697    0.00006411   -0.00010038
     atom   80 type  2   force =    -0.00064042    0.00015330   -0.00004538
     atom   81 type  2   force =     0.00013113   -0.00005636   -0.00027191
     atom   82 type  2   force =     0.00027797    0.00011194   -0.00003750
     atom   83 type  2   force =     0.00014769   -0.00004524   -0.00000391
     atom   84 type  2   force =     0.00033317    0.00002318   -0.00016423
     atom   85 type  2   force =    -0.00030256   -0.00000977   -0.00002830
     atom   86 type  2   force =     0.00039602   -0.00013934    0.00004243
     atom   87 type  2   force =    -0.00038050    0.00006409    0.00012299
     atom   88 type  2   force =     0.00015071    0.00003623   -0.00036967
     atom   89 type  2   force =    -0.00003890    0.00019029   -0.00019040
     atom   90 type  2   force =     0.00000910    0.00031207   -0.00010984
     atom   91 type  2   force =    -0.00009913   -0.00031312   -0.00009102
     atom   92 type  2   force =    -0.00036308   -0.00009478   -0.00004605
     atom   93 type  2   force =     0.00011704    0.00001963   -0.00012846
     atom   94 type  2   force =     0.00008856   -0.00006096   -0.00020329
     atom   95 type  2   force =    -0.00002834    0.00001767   -0.00013988
     atom   96 type  2   force =    -0.00007995    0.00000115    0.00031162
     atom   97 type  2   force =    -0.00009218    0.00001160   -0.00022490
     atom   98 type  2   force =     0.00010339    0.00022768    0.00006572
     atom   99 type  2   force =    -0.00039688    0.00007980    0.00008117
     atom  100 type  2   force =    -0.00014520    0.00003258    0.00028295
     atom  101 type  2   force =    -0.00012852    0.00029609    0.00013752
     atom  102 type  2   force =    -0.00021049    0.00022340    0.00002931
     atom  103 type  2   force =    -0.00020271   -0.00000570    0.00027655
     atom  104 type  2   force =    -0.00019340   -0.00002434   -0.00002336
     atom  105 type  2   force =    -0.00010049    0.00001833   -0.00002111
     atom  106 type  2   force =    -0.00008783    0.00006448    0.00022059
     atom  107 type  2   force =     0.00004644   -0.00000262   -0.00009108
     atom  108 type  2   force =    -0.00000708   -0.00014905   -0.00005900
     atom  109 type  2   force =     0.00002385    0.00031530   -0.00021482
     atom  110 type  2   force =     0.00012869   -0.00029303   -0.00002152
     atom  111 type  2   force =    -0.00000987    0.00023254   -0.00010128
     atom  112 type  2   force =    -0.00004215   -0.00045862    0.00001597
     atom  113 type  2   force =     0.00040660    0.00000021    0.00009835
     atom  114 type  2   force =     0.00012791   -0.00021127    0.00012763
     atom  115 type  2   force =     0.00007331   -0.00006132    0.00003375
     atom  116 type  2   force =     0.00027717   -0.00015818    0.00009297
     atom  117 type  2   force =    -0.00000067   -0.00000495    0.00004764
     atom  118 type  2   force =     0.00024908   -0.00030669    0.00009009
     atom  119 type  2   force =    -0.00014986    0.00014740   -0.00024433
     atom  120 type  2   force =     0.00001821    0.00030505    0.00025535
     atom  121 type  2   force =     0.00001606   -0.00041526    0.00034111
     atom  122 type  2   force =    -0.00035648    0.00012111   -0.00010079
     atom  123 type  2   force =    -0.00043131    0.00016052   -0.00016778
     atom  124 type  2   force =    -0.00014768    0.00014629   -0.00025377
     atom  125 type  2   force =     0.00009731    0.00019900   -0.00046866
     atom  126 type  2   force =     0.00001582   -0.00048440   -0.00006506
     atom  127 type  2   force =     0.00006279   -0.00000340   -0.00010634
     atom  128 type  2   force =     0.00005955    0.00008451   -0.00038952
     atom  129 type  3   force =     0.00024660    0.00014469   -0.00014132
     atom  130 type  3   force =     0.00002480    0.00027067    0.00025541
     atom  131 type  3   force =     0.00005439    0.00029973   -0.00008764
     atom  132 type  3   force =    -0.00007431    0.00020493    0.00026315
     atom  133 type  3   force =    -0.00002388   -0.00002954   -0.00006393
     atom  134 type  3   force =    -0.00022877    0.00041379    0.00026152
     atom  135 type  3   force =     0.00005610    0.00013099   -0.00039163
     atom  136 type  3   force =     0.00002165   -0.00033590   -0.00006254
     atom  137 type  4   force =    -0.00044057   -0.00043829    0.00013878
     atom  138 type  4   force =    -0.00046841    0.00008372    0.00015570
     atom  139 type  4   force =    -0.00018280   -0.00004439   -0.00005414
     atom  140 type  4   force =     0.00009782    0.00001683    0.00010412
     atom  141 type  5   force =     0.00006458    0.00034270    0.00033741
     atom  142 type  5   force =     0.00015257   -0.00044579    0.00043013
     atom  143 type  5   force =     0.00060034   -0.00029298    0.00034304
     atom  144 type  5   force =     0.00019834   -0.00013438    0.00002411
     atom  145 type  5   force =    -0.00000923    0.00041823   -0.00003604
     atom  146 type  5   force =    -0.00019403   -0.00043293   -0.00000126
     atom  147 type  5   force =    -0.00033380    0.00057046    0.00027167
     atom  148 type  5   force =     0.00008384   -0.00000334    0.00028351
     atom  149 type  5   force =    -0.00012265    0.00011350    0.00023960
     atom  150 type  5   force =     0.00010694    0.00029909   -0.00007927
     atom  151 type  5   force =     0.00077560    0.00036667   -0.00026907
     atom  152 type  5   force =     0.00021172   -0.00014518   -0.00004499
     atom  153 type  5   force =    -0.00029961   -0.00053996   -0.00009677
     atom  154 type  5   force =    -0.00011805    0.00015933   -0.00000707
     atom  155 type  5   force =    -0.00003450    0.00064691    0.00015132
     atom  156 type  5   force =     0.00004215    0.00012062   -0.00007773

     Total force =     0.004941     Total SCF correction =     0.000208

     bfgs converged in  87 scf cycles and  86 bfgs steps
     (criteria: energy <  1.0E-04 Ry, force <  1.0E-03 Ry/Bohr)

     End of BFGS Geometry Optimization

     Final energy   =   -1841.7334305990 Ry
Begin final coordinates

ATOMIC_POSITIONS (crystal)
C             0.2875208124        0.9783448513        0.5310724115
C             0.0347678133        0.0337688527        0.0361983252
C             0.3886277765        0.0213927313        0.5617880824
C             0.1324076478        0.9787687241        0.0604697602
C             0.4474429989        0.9746697580        0.6663933378
C             0.2015398276        0.0195543500        0.1575494014
C             0.2158315113        0.5427365294        0.5241912244
C             0.4523285208        0.4438038031       -0.0023576240
C             0.2413376877        0.6283686204        0.6088304648
C             0.4863170624        0.3649005579        0.0883762047
C             0.2463113325        0.8937502471        0.6038465362
C             0.0135832587        0.1257089823        0.1106278275
C             0.4034855511        0.8813440117        0.7241556277
C             0.1726710698        0.1098756862        0.2294865276
C             0.0944710903        0.5965296335        0.7392160889
C             0.3263946785        0.3691431302        0.1980431247
C             0.0667155618        0.5064972036        0.6654034492
C             0.2865446415        0.4484909017        0.1136029626
C             0.1268311590        0.4788734004        0.5568112290
C             0.3522418645        0.4928229604        0.0196400562
C             0.4329939728        0.1060414388        0.4803199473
C             0.1689299746        0.8870806943        0.9826890113
C             0.0867606997        0.3917757099        0.4740096221
C             0.3146259313        0.5909418824        0.9535901349
C             0.7899908976        0.9881785468        0.5217648202
C             0.5272748902        0.0330669171        0.0518242744
C             0.8945993936        0.0238302737        0.5481541129
C             0.6294452648        0.9855466939        0.0697907569
C             0.9529259761        0.9742838123        0.6514043662
C             0.6994042798        0.0308152337        0.1629033713
C             0.7172429162        0.5414943826        0.5459420984
C             0.9596505826        0.4742588279        0.0136324591
C             0.7418844689        0.6292653714        0.6273916384
C             0.9999661834        0.3915960164        0.0921525054
C             0.7451817013        0.9075958022        0.5972216347
C             0.5006334726        0.1188763171        0.1330449197
C             0.9057963154        0.8826716390        0.7091892874
C             0.6667782644        0.1180445504        0.2379811277
C             0.5667151345        0.6468905292        0.6917731490
C             0.8474260876        0.3937546650        0.2163282539
C             0.5346760393        0.5613666922        0.6114324024
C             0.8080601436        0.4878119114        0.1550025134
C             0.6102403823        0.5029849746        0.5428475967
C             0.8631012358        0.5237541306        0.0440893894
C             0.9418213988        0.1040756965        0.4635615880
C             0.6672398381        0.8969739140        0.9887762383
C             0.5741554913        0.4086962855        0.4683031068
C             0.8192536144        0.6117525756        0.9650805355
C             0.5402638769        0.0159488982        0.7390238887
C             0.5796430019        0.1283290550        0.7486686866
C             0.9524398890        0.0048544820        0.9427788485
C             0.8646399498        0.0777376212        0.9058632979
C             0.2808898749        0.5282411179        0.4091823924
C             0.3460902971        0.6186207821        0.3597836130
C             0.5233076499        0.4719565439        0.8914928895
C             0.6291133284        0.4178877805        0.8825589173
C             0.0467200672        0.0128556045        0.7243424460
C             0.0888113836        0.1243701934        0.7304965140
C             0.4459760905        0.0049874535        0.9562282682
C             0.3592813951        0.0794282748        0.9191012957
C             0.8045111516        0.5026691665        0.4733739739
C             0.8975759506        0.5680665437        0.4457773284
C             0.7287847603        0.5518005838        0.2268542873
C             0.6088075788        0.5459199280        0.2050417018
H             0.2395110941        1.0102462759        0.4505793187
H             0.2775428415        0.9808091778        0.1794800068
H             0.0067646470        0.5010005290        0.9325642889
H             0.3109748330        0.6772460483        0.5905241280
H             0.0773653755        0.3552192537        0.0753161190
H             0.1677577371        0.8601081342        0.5819985938
H             0.4218846729        0.1544440222        0.1241179994
H             0.4507191223        0.8395350921        0.7981751626
H             0.2245113736        0.1416714458        0.3063853519
H             0.0472419616        0.6248902126        0.8196193752
H             0.2787876391        0.3374416699        0.2760160829
H             0.4507156265        0.5393902556        0.6070649567
H             0.2064682290        0.4794651090        0.1274979234
H             0.7419796896        1.0235617509        0.4435818435
H             0.7793602266        0.9987425967        0.1786881283
H             0.8235930548        0.6581030592        0.6347331153
H             0.5640202888        0.3275074784        0.0780017697
H             0.6633017088        0.8805393236        0.5810214316
H             0.9394031542        0.1690764771        0.0940171629
H             0.9523830938        0.8358886190        0.7794832341
H             0.7198511799        0.1549401835        0.3100047311
H             0.5099334845        0.6884901817        0.7516452643
H             0.8007835278        0.3558828428        0.2914009299
H             0.9974751554        0.4593182378        0.6917801429
H             0.5719756563        0.1143028920        0.5696950450
H             0.6014331094        0.9543135334        0.7547317220
H             0.5189802139        0.1884043519        0.7255814907
H             0.6525739046        0.1413066015        0.6921030066
H             0.6088761916        0.1415340075        0.8486969103
H             0.9359731575        0.9190481481        0.9407858469
H             0.0112744321        1.0000961492        0.8377663596
H             0.8104312555        0.0843834483        0.9881757793
H             0.8172342547        0.0471375827        0.8240051690
H             0.8935685867        0.1579383443        0.8835839878
H             0.2270670637        0.4951396150        0.3325617652
H             0.3344709578        0.4582619409        0.4300421473
H             0.2967948612        0.6895631717        0.3391743785
H             0.3853972479        0.5965795472        0.2695991587
H             0.4099833216        0.6423286061        0.4295749264
H             0.4759366993        0.4631065937        0.7995023362
H             0.5307905839        0.5605047925        0.8943490938
H             0.6199707978        0.3316020643        0.8659809516
H             0.6754252569        0.4497618185        0.8024779820
H             0.6774156895        0.4270281311        0.9727855079
H             0.0811828140        0.1099239166        0.5518563334
H             0.1060033270        0.9495556169        0.7416191503
H             0.0293169809        0.1850417797        0.7051034355
H             0.1619122958        0.1342070597        0.6732015250
H             0.1182888941        0.1394119263        0.8299594085
H             0.5043110060        1.0003165771        0.8534751119
H             0.4266825270        0.9196654732        0.9549588087
H             0.3892194350        0.1598731820        0.9003027822
H             0.3131616879        0.0505141322        0.8351449830
H             0.3032205576        0.0850247057        0.9998412579
H             0.7391624421        0.5230700720        0.3304456141
H             0.8058082386        0.4170789367        0.4547276484
H             0.8766648710        0.6513365785        0.4261478198
H             0.9458974600        0.5346301696        0.3690920330
H             0.9491608210        0.5685973140        0.5347343027
H             0.7565908612        0.6351684355        0.2293052851
H             0.6757516518        0.5980590741        0.0398124387
H             0.5691529993        0.5888579771        0.2829720283
H             0.5758474933        0.5805150328        0.1139312677
H             0.5833318413        0.4627791338        0.2072071119
N             0.3033379807        0.8479162172        0.7031499186
N             0.0785570390        0.1602946803        0.2061686944
N             0.1826815822        0.6535780457        0.7116269575
N             0.4280165570        0.3352724441        0.1906074692
N             0.8025675745        0.8574980743        0.6929702671
N             0.5672325461        0.1588497179        0.2236677973
N             0.6703440585        0.6762976826        0.7028571783
N             0.9438691932        0.3522697692        0.1928129456
Ni            0.2432361619        0.7494137436        0.8435982271
Ni            0.5004431621        0.2621530654        0.3402808168
Ni            0.7372956785        0.7696350304        0.8355356874
Ni            1.0127182437        0.2589610192        0.3305043048
O             0.1363378826        0.3537197356        0.3753396986
O             0.3702636341        0.6475534845        0.8754817916
O             0.3813684852        0.1594384566        0.3970809603
O             0.1108722703        0.8360524370        0.8983376771
O             0.4766712063        0.3739866871        0.4737811434
O             0.2207298889        0.6285466730        0.9734704400
O             0.0479873344        0.1208981068        0.4648752224
O             0.2661555399        0.8531643865        0.9906011416
O             0.6330131746        0.3530470157        0.3930139513
O             0.8669963319        0.6655066625        0.8818003573
O             0.8917241914        0.1583464306        0.3797405603
O             0.6068116529        0.8439434281        0.9080645927
O             0.9948807911        0.3481562409        0.4911365785
O             0.7176216130        0.6413416819        0.9787450801
O             0.5378946664        0.1284536705        0.4840445866
O             0.7657207326        0.8676215536        0.9880797535
End final coordinates



     Writing output data file /nfs/hpc/share/gantzlen/NiPyC2_relax_sc211_meta_functionalized_CH2-CH3_pbesol_relax_frozen_parent_atoms_Round2.save/
 
     init_run     :     83.12s CPU     85.18s WALL (       1 calls)
     electrons    : 119818.04s CPU 123817.47s WALL (      87 calls)
     update_pot   :    591.01s CPU    647.80s WALL (      86 calls)
     forces       :   2317.37s CPU   2351.38s WALL (      87 calls)

     Called by init_run:
     wfcinit      :     74.21s CPU     75.90s WALL (       1 calls)
     potinit      :      3.66s CPU      3.91s WALL (       1 calls)
     hinit0       :      2.87s CPU      2.94s WALL (       1 calls)

     Called by electrons:
     c_bands      : 114149.85s CPU 117253.77s WALL (    1161 calls)
     sum_band     :   3593.89s CPU   4117.93s WALL (    1161 calls)
     v_of_rho     :   1007.83s CPU   1150.27s WALL (    1226 calls)
     mix_rho      :   1058.72s CPU   1241.49s WALL (    1161 calls)

     Called by c_bands:
     init_us_2    :     73.61s CPU     79.69s WALL (    2323 calls)
     regterg      : 114037.94s CPU 117089.80s WALL (    1161 calls)

     Called by sum_band:

     Called by *egterg:
     h_psi        :  38422.51s CPU  40392.93s WALL (    3862 calls)
     g_psi        :     25.47s CPU     26.21s WALL (    2700 calls)
     rdiaghg      :   2614.81s CPU   2642.61s WALL (    3753 calls)

     Called by h_psi:
     h_psi:calbec :  13212.26s CPU  13305.13s WALL (    3862 calls)
     vloc_psi     :  12859.09s CPU  14689.61s WALL (    3862 calls)
     add_vuspsi   :  12282.53s CPU  12322.01s WALL (    3862 calls)

     General routines
     calbec       :  14964.76s CPU  15067.90s WALL (    4210 calls)
     fft          :    732.67s CPU    903.99s WALL (   19390 calls)
     ffts         :    739.23s CPU    871.43s WALL (   20206 calls)
     fftw         :  13578.65s CPU  15830.71s WALL (  954365 calls)
 
     Parallel routines
     fft_scatt_xy :   3453.54s CPU   3505.37s WALL (  993961 calls)
     fft_scatt_yz :   2823.39s CPU   5195.78s WALL (  993961 calls)
 
     PWSCF        :   1d10h 7m CPU   1d11h16m WALL

 
   This run was terminated on:  21:38:23   9Jul2020            

=------------------------------------------------------------------------------=
   JOB DONE.
=------------------------------------------------------------------------------=
QE finished Thu Jul 9 21:38:23 PDT 2020
