/apps/openmpi/3.1_intel-19/bin/mpiexec
starting QE Sun Jul 5 11:05:30 PDT 2020

     Program PWSCF v.6.5 starts on  5Jul2020 at 11: 5:32 

     This program is part of the open-source Quantum ESPRESSO suite
     for quantum simulation of materials; please cite
         "P. Giannozzi et al., J. Phys.:Condens. Matter 21 395502 (2009);
         "P. Giannozzi et al., J. Phys.:Condens. Matter 29 465901 (2017);
          URL http://www.quantum-espresso.org", 
     in publications or presentations arising from this work. More details at
     http://www.quantum-espresso.org/quote

     Parallel version (MPI), running on    16 processors

     MPI processes distributed on     1 nodes
     K-points division:     npool     =       2
     R & G space division:  proc/nbgrp/npool/nimage =       8
     Reading input from ./QE_input_scripts/pw.NiPyC2_relax_sc211_meta_functionalized_CH-S_pbesol_relax_frozen_parent_atoms.in
Warning: card &CELL ignored
Warning: card    CELL_DYNAMICS = 'BFGS' ignored
Warning: card    CELL_DOFREE = 'XYZ' ignored
Warning: card / ignored

     Current dimensions of program PWSCF are:
     Max number of different atomic species (ntypx) = 10
     Max number of k-points (npk) =  40000
     Max angular momentum in pseudopotentials (lmaxx) =  3

     -------------------------------------------------
     Parameters for Dispersion (Grimme-D2) Correction:
     -------------------------------------------------
       atom      VdW radius       C_6     

        C          2.744         60.710
        H          1.892          4.857
        N          2.640         42.670
        Ni         2.952        374.666
        O          2.536         24.284
        S          3.180        193.230

     gamma-point specific algorithms are used

     Subspace diagonalization in iterative solution of the eigenvalue problem:
     a serial algorithm will be used

 
     Parallelization info
     --------------------
     sticks:   dense  smooth     PW     G-vecs:    dense   smooth      PW
     Min        2228    2228    556               183376   183376   22914
     Max        2230    2230    558               183380   183380   22917
     Sum       17829   17829   4453              1467017  1467017  183325
 


     bravais-lattice index     =            0
     lattice parameter (alat)  =      23.6322  a.u.
     unit-cell volume          =   10858.6228 (a.u.)^3
     number of atoms/cell      =          124
     number of atomic types    =            6
     number of electrons       =       480.00 (up: 244.00, down: 236.00)
     number of Kohn-Sham states=          293
     kinetic-energy cutoff     =     100.0000  Ry
     charge density cutoff     =     400.0000  Ry
     convergence threshold     =      5.0E-06
     mixing beta               =       0.7000
     number of iterations used =            8  local-TF  mixing
     Exchange-correlation= PBESOL
                           (   1   4  10   8   0   0   0)
     nstep                     =          200


     celldm(1)=  23.632159  celldm(2)=   0.000000  celldm(3)=   0.000000
     celldm(4)=   0.000000  celldm(5)=   0.000000  celldm(6)=   0.000000

     crystal axes: (cart. coord. in units of alat)
               a(1) = (   1.000000   0.000000   0.000000 )  
               a(2) = (   0.000000   1.001423   0.000000 )  
               a(3) = (  -0.018199   0.000000   0.821574 )  

     reciprocal axes: (cart. coord. in units 2 pi/alat)
               b(1) = (  1.000000  0.000000  0.022152 )  
               b(2) = (  0.000000  0.998579  0.000000 )  
               b(3) = (  0.000000  0.000000  1.217175 )  


     PseudoPot. # 1 for C  read from file:
     ./pseudo/C.pbesol-nc.UPF
     MD5 check sum: ce26087537ded160c8d400e183a8bf42
     Pseudo is Norm-conserving, Zval =  4.0
     Generated using "atomic" code by A. Dal Corso v.6.5
     Using radial grid of 1073 points,  1 beta functions with: 
                l(1) =   1

     PseudoPot. # 2 for H  read from file:
     ./pseudo/H.pbesol-n-nc.UPF
     MD5 check sum: 7995ef24074557c85b430109caaacc09
     Pseudo is Norm-conserving, Zval =  1.0
     Generated using "atomic" code by A. Dal Corso v.6.5
     Using radial grid of  929 points,  0 beta functions with: 

     PseudoPot. # 3 for N  read from file:
     ./pseudo/N.pbesol-nc.UPF
     MD5 check sum: e18cc5e4b8a5600c1a19b30c2cab1ca0
     Pseudo is Norm-conserving, Zval =  5.0
     Generated using "atomic" code by A. Dal Corso v.6.5
     Using radial grid of 1085 points,  1 beta functions with: 
                l(1) =   1

     PseudoPot. # 4 for Ni read from file:
     ./pseudo/Ni.pbesol-n-nc.UPF
     MD5 check sum: 623411631e0c2eb7c0b2b9815547d2d9
     Pseudo is Norm-conserving + core correction, Zval = 10.0
     Generated using "atomic" code by A. Dal Corso v.6.5
     Using radial grid of 1195 points,  2 beta functions with: 
                l(1) =   1
                l(2) =   2

     PseudoPot. # 5 for O  read from file:
     ./pseudo/O.pbesol-nc.UPF
     MD5 check sum: 73d10e7e91dbfcbe8a7e362101007f84
     Pseudo is Norm-conserving, Zval =  6.0
     Generated using "atomic" code by A. Dal Corso v.6.5
     Using radial grid of 1095 points,  1 beta functions with: 
                l(1) =   1

     PseudoPot. # 6 for S  read from file:
     ./pseudo/S.pbesol-n-nc.UPF
     MD5 check sum: d8715477aa2619fbc4411ed981bb1c26
     Pseudo is Norm-conserving + core correction, Zval =  6.0
     Generated using "atomic" code by A. Dal Corso v.6.5
     Using radial grid of 1151 points,  2 beta functions with: 
                l(1) =   0
                l(2) =   1

     atomic species   valence    mass     pseudopotential
        C              4.00    12.01070     C ( 1.00)
        H              1.00     1.00794     H ( 1.00)
        N              5.00    14.00670     N ( 1.00)
        Ni            10.00    58.69340     Ni( 1.00)
        O              6.00    15.99940     O ( 1.00)
        S              6.00    32.06500     S ( 1.00)

     Starting magnetic structure 
     atomic species   magnetization
        C            0.000
        H            0.000
        N            0.000
        Ni           0.250
        O            0.000
        S            0.000

     No symmetry found



   Cartesian axes

     site n.     atom                  positions (alat units)
         1           C   tau(   1) = (   0.2787122   0.9714307   0.4288486  )
         2           C   tau(   2) = (   0.0379730   0.0311503   0.0183277  )
         3           C   tau(   3) = (   0.3806882   0.0117868   0.4489838  )
         4           C   tau(   4) = (   0.1394042   0.9891499   0.0379124  )
         5           C   tau(   5) = (   0.4400787   0.9715829   0.5343281  )
         6           C   tau(   6) = (   0.1997920   0.0283934   0.1231482  )
         7           C   tau(   7) = (   0.1986011   0.5304580   0.4324635  )
         8           C   tau(   8) = (   0.4580372   0.4720800   0.0229252  )
         9           C   tau(   9) = (   0.2341003   0.6142040   0.4982314  )
        10           C   tau(  10) = (   0.4948422   0.3892302   0.0892369  )
        11           C   tau(  11) = (   0.2384981   0.8904717   0.4955761  )
        12           C   tau(  12) = (  -0.0008282   0.1123917   0.0856467  )
        13           C   tau(  13) = (   0.3947360   0.8906489   0.5977380  )
        14           C   tau(  14) = (   0.1557890   0.1097029   0.1871645  )
        15           C   tau(  15) = (   0.0756247   0.6098498   0.5975737  )
        16           C   tau(  16) = (   0.3367152   0.3921904   0.1884642  )
        17           C   tau(  17) = (   0.0350715   0.5258264   0.5351012  )
        18           C   tau(  18) = (   0.2948780   0.4753867   0.1254988  )
        19           C   tau(  19) = (   0.0981522   0.4849593   0.4519611  )
        20           C   tau(  20) = (   0.3569104   0.5163900   0.0416029  )
        21           C   tau(  21) = (   0.4248178   0.0994604   0.3833638  )
        22           C   tau(  22) = (   0.1639424   0.9010006   0.7933713  )
        23           C   tau(  23) = (   0.0588120   0.3950355   0.3866953  )
        24           C   tau(  24) = (   0.2984059   0.6050320   0.7961934  )
        25           C   tau(  25) = (   0.7787122   0.9714307   0.4288486  )
        26           C   tau(  26) = (   0.5379730   0.0311503   0.0183277  )
        27           C   tau(  27) = (   0.8806882   0.0117868   0.4489838  )
        28           C   tau(  28) = (   0.6394042   0.9891499   0.0379124  )
        29           C   tau(  29) = (   0.9400787   0.9715829   0.5343281  )
        30           C   tau(  30) = (   0.6997920   0.0283934   0.1231482  )
        31           C   tau(  31) = (   0.6986021   0.5304580   0.4324635  )
        32           C   tau(  32) = (   0.9580382   0.4720800   0.0229252  )
        33           C   tau(  33) = (   0.7341003   0.6142040   0.4982314  )
        34           C   tau(  34) = (   0.9948422   0.3892302   0.0892369  )
        35           C   tau(  35) = (   0.7384981   0.8904717   0.4955761  )
        36           C   tau(  36) = (   0.4991718   0.1123917   0.0856467  )
        37           C   tau(  37) = (   0.8947360   0.8906489   0.5977380  )
        38           C   tau(  38) = (   0.6557880   0.1097029   0.1871645  )
        39           C   tau(  39) = (   0.5756247   0.6098498   0.5975737  )
        40           C   tau(  40) = (   0.8367152   0.3921904   0.1884642  )
        41           C   tau(  41) = (   0.5350715   0.5258264   0.5351012  )
        42           C   tau(  42) = (   0.7948780   0.4753867   0.1254988  )
        43           C   tau(  43) = (   0.5981522   0.4849593   0.4519611  )
        44           C   tau(  44) = (   0.8569104   0.5163900   0.0416029  )
        45           C   tau(  45) = (   0.9248178   0.0994604   0.3833638  )
        46           C   tau(  46) = (   0.6639424   0.9010006   0.7933713  )
        47           C   tau(  47) = (   0.5588110   0.3950355   0.3866953  )
        48           C   tau(  48) = (   0.7984059   0.6050320   0.7961934  )
        49           C   tau(  49) = (   0.5527667   0.0086062   0.5623134  )
        50           C   tau(  50) = (   0.3121553   0.9899100   0.1503563  )
        51           C   tau(  51) = (   0.2723522   0.4931529   0.3422185  )
        52           C   tau(  52) = (   0.5134237   0.5099098   0.7541263  )
        53           C   tau(  53) = (   0.7079426   0.0085702   0.3366516  )
        54           C   tau(  54) = (   0.4481359   0.9955801   0.7477517  )
        55           C   tau(  55) = (   0.7723532   0.4931519   0.3422194  )
        56           C   tau(  56) = (   0.6830101   0.5169157   0.1522632  )
        57           H   tau(  57) = (   0.2290596   1.0009978   0.3640502  )
        58           H   tau(  58) = (   0.0198054   1.0002267   0.5533467  )
        59           H   tau(  59) = (  -0.0086584   0.5011092   0.7809458  )
        60           H   tau(  60) = (   0.3118554   0.6514319   0.4868937  )
        61           H   tau(  61) = (   0.0732386   0.3533532   0.0780726  )
        62           H   tau(  62) = (   0.1594426   0.8563401   0.4835457  )
        63           H   tau(  63) = (   0.4206861   0.1479423   0.0738480  )
        64           H   tau(  64) = (   0.4386511   0.8563902   0.6644572  )
        65           H   tau(  65) = (   0.2006191   0.1433067   0.2536997  )
        66           H   tau(  66) = (   0.0290492   0.6438591   0.6626884  )
        67           H   tau(  67) = (   0.2907535   0.3580349   0.2539083  )
        68           H   tau(  68) = (   0.4564147   0.4939330   0.5533319  )
        69           H   tau(  69) = (   0.2157623   0.5059201   0.1439924  )
        70           H   tau(  70) = (   0.9693669   0.0026958   0.7751545  )
        71           H   tau(  71) = (   0.7791988   1.0000865   0.1418054  )
        72           H   tau(  72) = (   0.8118554   0.6514319   0.4868937  )
        73           H   tau(  73) = (   0.5732386   0.3533532   0.0780726  )
        74           H   tau(  74) = (   0.6594426   0.8563401   0.4835457  )
        75           H   tau(  75) = (   0.9206861   0.1479423   0.0738480  )
        76           H   tau(  76) = (   0.9386511   0.8563902   0.6644572  )
        77           H   tau(  77) = (   0.7006201   0.1433067   0.2536997  )
        78           H   tau(  78) = (   0.5290492   0.6438591   0.6626884  )
        79           H   tau(  79) = (   0.7907535   0.3580349   0.2539083  )
        80           H   tau(  80) = (   0.9564147   0.4939330   0.5533319  )
        81           H   tau(  81) = (   0.5916434   0.0699594   0.5170931  )
        82           H   tau(  82) = (   0.3500223   0.9282353   0.1047195  )
        83           H   tau(  83) = (   0.2499010   0.4297248   0.2893667  )
        84           H   tau(  84) = (   0.4902092   0.5726529   0.7007897  )
        85           H   tau(  85) = (   0.7338464   0.0699654   0.2829847  )
        86           H   tau(  86) = (   0.4729388   0.9340887   0.6936765  )
        87           H   tau(  87) = (   0.7499030   0.4297238   0.2893675  )
        88           H   tau(  88) = (   0.6467691   0.5800775   0.1073452  )
        89           N   tau(  89) = (   0.2956096   0.8524646   0.5790685  )
        90           N   tau(  90) = (   0.0569790   0.1490689   0.1692870  )
        91           N   tau(  91) = (   0.1736962   0.6512356   0.5798983  )
        92           N   tau(  92) = (   0.4350238   0.3514275   0.1709211  )
        93           N   tau(  93) = (   0.7956096   0.8524646   0.5790685  )
        94           N   tau(  94) = (   0.5569790   0.1490689   0.1692870  )
        95           N   tau(  95) = (   0.6736972   0.6512356   0.5798983  )
        96           N   tau(  96) = (   0.9350238   0.3514275   0.1709211  )
        97           Ni  tau(  97) = (   0.2317814   0.7525556   0.6871039  )
        98           Ni  tau(  98) = (   0.4937992   0.2483520   0.2786599  )
        99           Ni  tau(  99) = (   0.7317814   0.7525556   0.6871039  )
       100           Ni  tau( 100) = (   0.9937992   0.2483520   0.2786599  )
       101           O   tau( 101) = (   0.1158100   0.3481839   0.3145586  )
       102           O   tau( 102) = (   0.3551690   0.6519036   0.7240468  )
       103           O   tau( 103) = (   0.3707656   0.1477170   0.3098797  )
       104           O   tau( 104) = (   0.1091506   0.8535652   0.7199135  )
       105           O   tau( 105) = (   0.4642788   0.3566669   0.3968154  )
       106           O   tau( 106) = (   0.2033039   0.6423280   0.8050417  )
       107           O   tau( 107) = (   0.0200847   0.1353504   0.3952413  )
       108           O   tau( 108) = (   0.2588616   0.8639860   0.8046490  )
       109           O   tau( 109) = (   0.6158110   0.3481839   0.3145586  )
       110           O   tau( 110) = (   0.8551690   0.6519036   0.7240468  )
       111           O   tau( 111) = (   0.8707656   0.1477170   0.3098797  )
       112           O   tau( 112) = (   0.6091506   0.8535652   0.7199135  )
       113           O   tau( 113) = (   0.9642788   0.3566669   0.3968154  )
       114           O   tau( 114) = (   0.7033039   0.6423280   0.8050417  )
       115           O   tau( 115) = (   0.5200847   0.1353504   0.3952413  )
       116           O   tau( 116) = (   0.7588616   0.8639860   0.8046490  )
       117           S   tau( 117) = (   0.6137067   0.9670425   0.6502078  )
       118           S   tau( 118) = (   0.3741089   0.0304323   0.2380454  )
       119           S   tau( 119) = (   0.3757312   0.5400766   0.3222683  )
       120           S   tau( 120) = (   0.6175448   0.4643850   0.7348012  )
       121           S   tau( 121) = (   0.6030152   0.9670205   0.3159027  )
       122           S   tau( 122) = (   0.3437988   0.0388102   0.7275788  )
       123           S   tau( 123) = (   0.8757322   0.5400756   0.3222691  )
       124           S   tau( 124) = (   0.6193822   0.4746116   0.2385704  )

     number of k points=     1  Marzari-Vanderbilt smearing, width (Ry)=  0.2000
                       cart. coord. in units 2pi/alat
        k(    1) = (   0.0000000   0.0000000   0.0000000), wk =   1.0000000

     Dense  grid:   733509 G-vectors     FFT dimensions: ( 160, 160, 125)

     Estimated max dynamical RAM per process >     675.41 MB

     Estimated total dynamical RAM >      10.55 GB
     Generating pointlists ...
     new r_m :   0.0353 (alat units)  0.8341 (a.u.) for type    1
     new r_m :   0.0353 (alat units)  0.8341 (a.u.) for type    2
     new r_m :   0.0445 (alat units)  1.0514 (a.u.) for type    3
     new r_m :   0.0654 (alat units)  1.5454 (a.u.) for type    4
     new r_m :   0.0423 (alat units)  0.9991 (a.u.) for type    5
     new r_m :   0.0475 (alat units)  1.1237 (a.u.) for type    6

     Check: negative core charge=   -0.000143

     Initial potential from superposition of free atoms

     starting charge  479.99611, renormalised to  480.00000
     Starting wfcs are  420 randomized atomic wfcs

     total cpu time spent up to now is       99.7 secs

     Self-consistent Calculation

     iteration #  1     ecut=   100.00 Ry     beta= 0.70
     Davidson diagonalization with overlap
     ethr =  1.00E-02,  avg # of iterations =  4.0

     total cpu time spent up to now is      357.3 secs

     total energy              =   -1896.01095354 Ry
     Harris-Foulkes estimate   =   -1903.08404395 Ry
     estimated scf accuracy    <      18.83910583 Ry

     total magnetization       =     8.00 Bohr mag/cell
     absolute magnetization    =     8.13 Bohr mag/cell

     iteration #  2     ecut=   100.00 Ry     beta= 0.70
     Davidson diagonalization with overlap
     ethr =  3.92E-03,  avg # of iterations =  2.0

     total cpu time spent up to now is      496.9 secs

     total energy              =   -1896.69886846 Ry
     Harris-Foulkes estimate   =   -1899.30436994 Ry
     estimated scf accuracy    <      11.19472076 Ry

     total magnetization       =     8.00 Bohr mag/cell
     absolute magnetization    =     8.13 Bohr mag/cell

     iteration #  3     ecut=   100.00 Ry     beta= 0.70
     Davidson diagonalization with overlap
     ethr =  2.33E-03,  avg # of iterations =  2.0

     total cpu time spent up to now is      641.3 secs

     total energy              =   -1896.96947834 Ry
     Harris-Foulkes estimate   =   -1898.59444907 Ry
     estimated scf accuracy    <      10.07600764 Ry

     total magnetization       =     8.00 Bohr mag/cell
     absolute magnetization    =     8.16 Bohr mag/cell

     iteration #  4     ecut=   100.00 Ry     beta= 0.70
     Davidson diagonalization with overlap
     ethr =  2.10E-03,  avg # of iterations =  1.0

     total cpu time spent up to now is      777.3 secs

     total energy              =   -1897.66873111 Ry
     Harris-Foulkes estimate   =   -1897.99990686 Ry
     estimated scf accuracy    <       2.71903796 Ry

     total magnetization       =     8.00 Bohr mag/cell
     absolute magnetization    =     8.13 Bohr mag/cell

     iteration #  5     ecut=   100.00 Ry     beta= 0.70
     Davidson diagonalization with overlap
     ethr =  5.66E-04,  avg # of iterations =  6.0

     total cpu time spent up to now is      950.4 secs

     total energy              =   -1897.67716261 Ry
     Harris-Foulkes estimate   =   -1897.76814165 Ry
     estimated scf accuracy    <       0.42620948 Ry

     total magnetization       =     8.00 Bohr mag/cell
     absolute magnetization    =     8.15 Bohr mag/cell

     iteration #  6     ecut=   100.00 Ry     beta= 0.70
     Davidson diagonalization with overlap
     ethr =  8.88E-05,  avg # of iterations =  7.0

     total cpu time spent up to now is     1104.5 secs

     total energy              =   -1897.67588187 Ry
     Harris-Foulkes estimate   =   -1897.70491427 Ry
     estimated scf accuracy    <       0.20597231 Ry

     total magnetization       =     8.00 Bohr mag/cell
     absolute magnetization    =     8.16 Bohr mag/cell

     iteration #  7     ecut=   100.00 Ry     beta= 0.70
     Davidson diagonalization with overlap
     ethr =  4.29E-05,  avg # of iterations =  3.0

     total cpu time spent up to now is     1244.9 secs

     total energy              =   -1897.66553325 Ry
     Harris-Foulkes estimate   =   -1897.69906905 Ry
     estimated scf accuracy    <       0.29568034 Ry

     total magnetization       =     8.00 Bohr mag/cell
     absolute magnetization    =     8.16 Bohr mag/cell

     iteration #  8     ecut=   100.00 Ry     beta= 0.70
     Davidson diagonalization with overlap
     ethr =  4.29E-05,  avg # of iterations =  1.0

     total cpu time spent up to now is     1384.9 secs

     total energy              =   -1897.67170035 Ry
     Harris-Foulkes estimate   =   -1897.67601278 Ry
     estimated scf accuracy    <       0.04786702 Ry

     total magnetization       =     8.00 Bohr mag/cell
     absolute magnetization    =     8.16 Bohr mag/cell

     iteration #  9     ecut=   100.00 Ry     beta= 0.70
     Davidson diagonalization with overlap
     ethr =  9.97E-06,  avg # of iterations = 11.0

     total cpu time spent up to now is     1553.7 secs

     total energy              =   -1897.67391182 Ry
     Harris-Foulkes estimate   =   -1897.67381195 Ry
     estimated scf accuracy    <       0.02491445 Ry

     total magnetization       =     8.00 Bohr mag/cell
     absolute magnetization    =     8.15 Bohr mag/cell

     iteration # 10     ecut=   100.00 Ry     beta= 0.70
     Davidson diagonalization with overlap
     ethr =  5.19E-06,  avg # of iterations =  2.0

     total cpu time spent up to now is     1696.2 secs

     total energy              =   -1897.67516229 Ry
     Harris-Foulkes estimate   =   -1897.67696906 Ry
     estimated scf accuracy    <       0.05726328 Ry

     total magnetization       =     8.00 Bohr mag/cell
     absolute magnetization    =     8.15 Bohr mag/cell

     iteration # 11     ecut=   100.00 Ry     beta= 0.70
     Davidson diagonalization with overlap
     ethr =  5.19E-06,  avg # of iterations =  2.0

     total cpu time spent up to now is     1838.8 secs

     total energy              =   -1897.67886941 Ry
     Harris-Foulkes estimate   =   -1897.67730920 Ry
     estimated scf accuracy    <       0.00575811 Ry

     total magnetization       =     8.00 Bohr mag/cell
     absolute magnetization    =     8.15 Bohr mag/cell

     iteration # 12     ecut=   100.00 Ry     beta= 0.70
     Davidson diagonalization with overlap
     ethr =  1.20E-06,  avg # of iterations =  7.5

     total cpu time spent up to now is     2010.5 secs

     total energy              =   -1897.67972821 Ry
     Harris-Foulkes estimate   =   -1897.67918201 Ry
     estimated scf accuracy    <       0.00158017 Ry

     total magnetization       =     8.00 Bohr mag/cell
     absolute magnetization    =     8.14 Bohr mag/cell

     iteration # 13     ecut=   100.00 Ry     beta= 0.70
     Davidson diagonalization with overlap
     ethr =  3.29E-07,  avg # of iterations =  3.5

     total cpu time spent up to now is     2146.4 secs

     total energy              =   -1897.67996359 Ry
     Harris-Foulkes estimate   =   -1897.67983038 Ry
     estimated scf accuracy    <       0.00092847 Ry

     total magnetization       =     8.00 Bohr mag/cell
     absolute magnetization    =     8.14 Bohr mag/cell

     iteration # 14     ecut=   100.00 Ry     beta= 0.70
     Davidson diagonalization with overlap
     ethr =  1.93E-07,  avg # of iterations =  3.0

     total cpu time spent up to now is     2289.6 secs

     total energy              =   -1897.67996263 Ry
     Harris-Foulkes estimate   =   -1897.68004439 Ry
     estimated scf accuracy    <       0.00093261 Ry

     total magnetization       =     8.00 Bohr mag/cell
     absolute magnetization    =     8.14 Bohr mag/cell

     iteration # 15     ecut=   100.00 Ry     beta= 0.70
     Davidson diagonalization with overlap
     ethr =  1.93E-07,  avg # of iterations =  1.5

     total cpu time spent up to now is     2432.5 secs

     total energy              =   -1897.68008942 Ry
     Harris-Foulkes estimate   =   -1897.68005872 Ry
     estimated scf accuracy    <       0.00092036 Ry

     total magnetization       =     8.00 Bohr mag/cell
     absolute magnetization    =     8.14 Bohr mag/cell

     iteration # 16     ecut=   100.00 Ry     beta= 0.70
     Davidson diagonalization with overlap
     ethr =  1.92E-07,  avg # of iterations =  2.5

     total cpu time spent up to now is     2576.6 secs

     total energy              =   -1897.68013362 Ry
     Harris-Foulkes estimate   =   -1897.68012412 Ry
     estimated scf accuracy    <       0.00013006 Ry

     total magnetization       =     8.00 Bohr mag/cell
     absolute magnetization    =     8.15 Bohr mag/cell

     iteration # 17     ecut=   100.00 Ry     beta= 0.70
     Davidson diagonalization with overlap
     ethr =  2.71E-08,  avg # of iterations =  3.0

     total cpu time spent up to now is     2701.7 secs

     total energy              =   -1897.68013711 Ry
     Harris-Foulkes estimate   =   -1897.68014194 Ry
     estimated scf accuracy    <       0.00010130 Ry

     total magnetization       =     8.00 Bohr mag/cell
     absolute magnetization    =     8.15 Bohr mag/cell

     iteration # 18     ecut=   100.00 Ry     beta= 0.70
     Davidson diagonalization with overlap
     ethr =  2.11E-08,  avg # of iterations =  1.5

     total cpu time spent up to now is     2843.9 secs

     total energy              =   -1897.68014592 Ry
     Harris-Foulkes estimate   =   -1897.68014148 Ry
     estimated scf accuracy    <       0.00005002 Ry

     total magnetization       =     8.00 Bohr mag/cell
     absolute magnetization    =     8.15 Bohr mag/cell

     iteration # 19     ecut=   100.00 Ry     beta= 0.70
     Davidson diagonalization with overlap
     ethr =  1.04E-08,  avg # of iterations =  2.5

     total cpu time spent up to now is     2984.8 secs

     total energy              =   -1897.68014981 Ry
     Harris-Foulkes estimate   =   -1897.68014785 Ry
     estimated scf accuracy    <       0.00002559 Ry

     total magnetization       =     8.00 Bohr mag/cell
     absolute magnetization    =     8.15 Bohr mag/cell

     iteration # 20     ecut=   100.00 Ry     beta= 0.70
     Davidson diagonalization with overlap
     ethr =  5.33E-09,  avg # of iterations =  3.0

     total cpu time spent up to now is     3122.7 secs

     total energy              =   -1897.68014926 Ry
     Harris-Foulkes estimate   =   -1897.68015144 Ry
     estimated scf accuracy    <       0.00003400 Ry

     total magnetization       =     8.00 Bohr mag/cell
     absolute magnetization    =     8.15 Bohr mag/cell

     iteration # 21     ecut=   100.00 Ry     beta= 0.70
     Davidson diagonalization with overlap
     ethr =  5.33E-09,  avg # of iterations =  1.0

     total cpu time spent up to now is     3258.1 secs

     total energy              =   -1897.68015052 Ry
     Harris-Foulkes estimate   =   -1897.68015100 Ry
     estimated scf accuracy    <       0.00001864 Ry

     total magnetization       =     8.00 Bohr mag/cell
     absolute magnetization    =     8.15 Bohr mag/cell

     iteration # 22     ecut=   100.00 Ry     beta= 0.70
     Davidson diagonalization with overlap
     ethr =  3.88E-09,  avg # of iterations =  2.0

     total cpu time spent up to now is     3399.6 secs

     total energy              =   -1897.68015113 Ry
     Harris-Foulkes estimate   =   -1897.68015120 Ry
     estimated scf accuracy    <       0.00000589 Ry

     total magnetization       =     8.00 Bohr mag/cell
     absolute magnetization    =     8.15 Bohr mag/cell

     iteration # 23     ecut=   100.00 Ry     beta= 0.70
     Davidson diagonalization with overlap
     ethr =  1.23E-09,  avg # of iterations =  3.0
 
     Magnetic moment per site:
     atom:    1    charge:    0.8139    magn:    0.0054    constr:    0.0000
     atom:    2    charge:    0.8117    magn:    0.0047    constr:    0.0000
     atom:    3    charge:    0.8144    magn:    0.0023    constr:    0.0000
     atom:    4    charge:    0.8144    magn:    0.0043    constr:    0.0000
     atom:    5    charge:    0.8035    magn:    0.0050    constr:    0.0000
     atom:    6    charge:    0.8013    magn:    0.0043    constr:    0.0000
     atom:    7    charge:    0.8022    magn:    0.0059    constr:    0.0000
     atom:    8    charge:    0.8014    magn:    0.0058    constr:    0.0000
     atom:    9    charge:    0.8069    magn:    0.0064    constr:    0.0000
     atom:   10    charge:    0.8068    magn:    0.0059    constr:    0.0000
     atom:   11    charge:    0.8040    magn:    0.0043    constr:    0.0000
     atom:   12    charge:    0.8042    magn:    0.0048    constr:    0.0000
     atom:   13    charge:    0.8152    magn:    0.0062    constr:    0.0000
     atom:   14    charge:    0.8068    magn:    0.0056    constr:    0.0000
     atom:   15    charge:    0.8064    magn:    0.0051    constr:    0.0000
     atom:   16    charge:    0.8115    magn:    0.0053    constr:    0.0000
     atom:   17    charge:    0.8123    magn:    0.0050    constr:    0.0000
     atom:   18    charge:    0.8142    magn:    0.0058    constr:    0.0000
     atom:   19    charge:    0.8156    magn:    0.0042    constr:    0.0000
     atom:   20    charge:    0.8134    magn:    0.0040    constr:    0.0000
     atom:   21    charge:    0.8007    magn:    0.0053    constr:    0.0000
     atom:   22    charge:    0.7898    magn:   -0.0006    constr:    0.0000
     atom:   23    charge:    0.7896    magn:   -0.0005    constr:    0.0000
     atom:   24    charge:    0.7899    magn:   -0.0011    constr:    0.0000
     atom:   25    charge:    0.8022    magn:    0.0061    constr:    0.0000
     atom:   26    charge:    0.8039    magn:    0.0061    constr:    0.0000
     atom:   27    charge:    0.8145    magn:    0.0042    constr:    0.0000
     atom:   28    charge:    0.8138    magn:    0.0024    constr:    0.0000
     atom:   29    charge:    0.8122    magn:    0.0050    constr:    0.0000
     atom:   30    charge:    0.8150    magn:    0.0068    constr:    0.0000
     atom:   31    charge:    0.8040    magn:    0.0056    constr:    0.0000
     atom:   32    charge:    0.8115    magn:    0.0044    constr:    0.0000
     atom:   33    charge:    0.8068    magn:    0.0057    constr:    0.0000
     atom:   34    charge:    0.8038    magn:    0.0044    constr:    0.0000
     atom:   35    charge:    0.8076    magn:    0.0066    constr:    0.0000
     atom:   36    charge:    0.8070    magn:    0.0058    constr:    0.0000
     atom:   37    charge:    0.8068    magn:    0.0048    constr:    0.0000
     atom:   38    charge:    0.8124    magn:    0.0056    constr:    0.0000
     atom:   39    charge:    0.8122    magn:    0.0055    constr:    0.0000
     atom:   40    charge:    0.8128    magn:    0.0061    constr:    0.0000
     atom:   41    charge:    0.8139    magn:    0.0061    constr:    0.0000
     atom:   42    charge:    0.8029    magn:    0.0049    constr:    0.0000
     atom:   43    charge:    0.8158    magn:    0.0026    constr:    0.0000
     atom:   44    charge:    0.8136    magn:    0.0042    constr:    0.0000
     atom:   45    charge:    0.7888    magn:   -0.0011    constr:    0.0000
     atom:   46    charge:    0.8018    magn:    0.0039    constr:    0.0000
     atom:   47    charge:    0.7979    magn:    0.0035    constr:    0.0000
     atom:   48    charge:    0.7900    magn:   -0.0007    constr:    0.0000
     atom:   49    charge:    0.8520    magn:    0.0069    constr:    0.0000
     atom:   50    charge:    0.8499    magn:    0.0069    constr:    0.0000
     atom:   51    charge:    0.8497    magn:    0.0040    constr:    0.0000
     atom:   52    charge:    0.8496    magn:    0.0039    constr:    0.0000
     atom:   53    charge:    0.8522    magn:    0.0046    constr:    0.0000
     atom:   54    charge:    0.8529    magn:    0.0040    constr:    0.0000
     atom:   55    charge:    0.8520    magn:    0.0042    constr:    0.0000
     atom:   56    charge:    0.8527    magn:    0.0068    constr:    0.0000
     atom:   57    charge:    0.4736    magn:   -0.0010    constr:    0.0000
     atom:   58    charge:    0.4726    magn:   -0.0012    constr:    0.0000
     atom:   59    charge:    0.4730    magn:   -0.0013    constr:    0.0000
     atom:   60    charge:    0.4742    magn:   -0.0008    constr:    0.0000
     atom:   61    charge:    0.4765    magn:   -0.0010    constr:    0.0000
     atom:   62    charge:    0.4749    magn:   -0.0010    constr:    0.0000
     atom:   63    charge:    0.4743    magn:   -0.0005    constr:    0.0000
     atom:   64    charge:    0.4941    magn:   -0.0003    constr:    0.0000
     atom:   65    charge:    0.4753    magn:   -0.0008    constr:    0.0000
     atom:   66    charge:    0.4726    magn:   -0.0007    constr:    0.0000
     atom:   67    charge:    0.4932    magn:   -0.0003    constr:    0.0000
     atom:   68    charge:    0.4702    magn:   -0.0010    constr:    0.0000
     atom:   69    charge:    0.4708    magn:   -0.0010    constr:    0.0000
     atom:   70    charge:    0.4728    magn:   -0.0012    constr:    0.0000
     atom:   71    charge:    0.4696    magn:   -0.0011    constr:    0.0000
     atom:   72    charge:    0.4726    magn:   -0.0008    constr:    0.0000
     atom:   73    charge:    0.4751    magn:   -0.0005    constr:    0.0000
     atom:   74    charge:    0.4761    magn:   -0.0005    constr:    0.0000
     atom:   75    charge:    0.4769    magn:   -0.0010    constr:    0.0000
     atom:   76    charge:    0.4733    magn:   -0.0007    constr:    0.0000
     atom:   77    charge:    0.4958    magn:   -0.0000    constr:    0.0000
     atom:   78    charge:    0.4938    magn:   -0.0004    constr:    0.0000
     atom:   79    charge:    0.4939    magn:   -0.0004    constr:    0.0000
     atom:   80    charge:    0.4727    magn:   -0.0011    constr:    0.0000
     atom:   81    charge:    0.4537    magn:    0.0016    constr:    0.0000
     atom:   82    charge:    0.4526    magn:    0.0021    constr:    0.0000
     atom:   83    charge:    0.4915    magn:    0.0043    constr:    0.0000
     atom:   84    charge:    0.4914    magn:    0.0044    constr:    0.0000
     atom:   85    charge:    0.4975    magn:    0.0048    constr:    0.0000
     atom:   86    charge:    0.5107    magn:    0.0039    constr:    0.0000
     atom:   87    charge:    0.5051    magn:    0.0039    constr:    0.0000
     atom:   88    charge:    0.4567    magn:    0.0025    constr:    0.0000
     atom:   89    charge:    2.4495    magn:    0.0147    constr:    0.0000
     atom:   90    charge:    2.4469    magn:    0.0124    constr:    0.0000
     atom:   91    charge:    2.4502    magn:    0.0122    constr:    0.0000
     atom:   92    charge:    2.4543    magn:    0.0155    constr:    0.0000
     atom:   93    charge:    2.4512    magn:    0.0149    constr:    0.0000
     atom:   94    charge:    2.4551    magn:    0.0163    constr:    0.0000
     atom:   95    charge:    2.4537    magn:    0.0136    constr:    0.0000
     atom:   96    charge:    2.4492    magn:    0.0144    constr:    0.0000
     atom:   97    charge:    7.4399    magn:    1.0807    constr:    0.0000
     atom:   98    charge:    7.4925    magn:    1.1079    constr:    0.0000
     atom:   99    charge:    7.4711    magn:    1.0952    constr:    0.0000
     atom:  100    charge:    7.4383    magn:    1.0788    constr:    0.0000
     atom:  101    charge:    3.2657    magn:    0.0456    constr:    0.0000
     atom:  102    charge:    3.2659    magn:    0.0476    constr:    0.0000
     atom:  103    charge:    3.3111    magn:    0.0227    constr:    0.0000
     atom:  104    charge:    3.2566    magn:    0.0498    constr:    0.0000
     atom:  105    charge:    3.2616    magn:    0.0314    constr:    0.0000
     atom:  106    charge:    3.2584    magn:    0.0525    constr:    0.0000
     atom:  107    charge:    3.2596    magn:    0.0531    constr:    0.0000
     atom:  108    charge:    3.2700    magn:    0.0461    constr:    0.0000
     atom:  109    charge:    3.3018    magn:    0.0278    constr:    0.0000
     atom:  110    charge:    3.2577    magn:    0.0504    constr:    0.0000
     atom:  111    charge:    3.2668    magn:    0.0471    constr:    0.0000
     atom:  112    charge:    3.3257    magn:    0.0197    constr:    0.0000
     atom:  113    charge:    3.2610    magn:    0.0503    constr:    0.0000
     atom:  114    charge:    3.2716    magn:    0.0461    constr:    0.0000
     atom:  115    charge:    3.2725    magn:    0.0252    constr:    0.0000
     atom:  116    charge:    3.2554    magn:    0.0270    constr:    0.0000
     atom:  117    charge:    1.2214    magn:    0.0153    constr:    0.0000
     atom:  118    charge:    1.2152    magn:    0.0176    constr:    0.0000
     atom:  119    charge:    1.2026    magn:    0.0212    constr:    0.0000
     atom:  120    charge:    1.2027    magn:    0.0211    constr:    0.0000
     atom:  121    charge:    1.2048    magn:    0.0216    constr:    0.0000
     atom:  122    charge:    1.2035    magn:    0.0214    constr:    0.0000
     atom:  123    charge:    1.2033    magn:    0.0213    constr:    0.0000
     atom:  124    charge:    1.2135    magn:    0.0177    constr:    0.0000

     total cpu time spent up to now is     3542.6 secs

     End of self-consistent calculation

 ------ SPIN UP ------------


          k = 0.0000 0.0000 0.0000 ( 91663 PWs)   bands (ev):

   -23.6806 -23.2067 -22.2916 -20.6953 -20.6725 -20.6670 -20.5366 -20.5159
   -19.3439 -19.0569 -18.8552 -17.8359 -17.7553 -17.7226 -17.7113 -17.6873
   -17.6767 -17.6427 -17.6223 -17.5926 -17.5862 -17.4489 -17.3782 -17.3117
   -16.3212 -16.2970 -15.6994 -15.4388 -15.3703 -15.2458 -15.1805 -15.0365
   -14.1840 -14.1211 -14.0510 -13.8171 -13.7873 -13.7105 -13.6721 -13.6157
   -13.1007 -12.9993 -12.7279 -12.7174 -12.4983 -12.4550 -12.3077 -12.2294
   -11.0153 -10.8257 -10.7804 -10.7564 -10.5083 -10.2901 -10.2385 -10.1756
   -10.1316  -9.9652  -9.9153  -9.9114  -9.8317  -9.7647  -9.6526  -9.5821
    -9.4930  -9.4237  -9.1585  -9.1026  -9.0582  -8.8939  -8.7583  -8.5761
    -8.1896  -7.9555  -7.7341  -7.6682  -7.5919  -7.5295  -7.4224  -7.3290
    -7.2268  -7.1916  -7.0785  -6.9613  -6.7550  -6.6490  -6.5609  -6.4779
    -6.4219  -6.2548  -6.2126  -6.1479  -6.1137  -6.0061  -5.9754  -5.9236
    -5.9175  -5.8705  -5.8618  -5.7377  -5.6745  -5.6172  -5.4951  -5.4844
    -5.4249  -5.4063  -5.3317  -5.2496  -5.1976  -5.1421  -5.1114  -5.0609
    -5.0381  -5.0022  -4.9224  -4.9030  -4.8648  -4.8254  -4.7934  -4.7227
    -4.7012  -4.6531  -4.6383  -4.6057  -4.5918  -4.5357  -4.5059  -4.4490
    -4.4048  -4.3847  -4.3437  -4.3075  -4.2113  -4.1999  -4.1687  -4.1439
    -4.0998  -4.0279  -4.0072  -3.9820  -3.9558  -3.7881  -3.7501  -3.7171
    -3.6048  -3.5869  -3.5095  -3.4679  -3.4079  -3.3821  -3.2996  -3.2522
    -3.1226  -3.0545  -2.9896  -2.9802  -2.8840  -2.8472  -2.7702  -2.7257
    -2.7094  -2.7059  -2.6572  -2.5999  -2.5228  -2.4701  -2.4404  -2.3508
    -2.3318  -2.2308  -2.1782  -2.1112  -2.1035  -2.0566  -1.9946  -1.9853
    -1.9000  -1.8612  -1.8224  -1.7686  -1.7221  -1.6618  -1.6142  -1.5211
    -1.4699  -1.4163  -1.3811  -1.3509  -1.3185  -1.2960  -1.2647  -1.2363
    -1.1877  -1.1589  -1.1221  -1.0734  -1.0345  -1.0175  -0.9505  -0.8712
    -0.8040  -0.7744  -0.6863  -0.6721  -0.6630  -0.6261  -0.6013  -0.5455
    -0.5098  -0.4996  -0.4843  -0.4227  -0.4054  -0.3582  -0.3262  -0.2791
    -0.2596  -0.2332  -0.1891  -0.1357  -0.1297  -0.0547  -0.0381   0.0573
     0.1083   0.1309   0.1741   0.2875   0.7547   0.9562   1.0657   1.0941
     1.1066   1.2469   1.3395   1.6958   1.7371   1.7840   1.9411   1.9677
     2.0005   2.3211   2.3253   2.5944   2.7350   2.7860   2.9887   3.1540
     3.2447   3.3102   3.5257   3.5815   3.6743   3.7530   3.8429   3.9220
     3.9721   4.0083   4.1870   4.2621   5.0396   5.1382   5.2458   5.2786
     5.3453   5.4336   5.5032   5.5656   5.5913   5.7169   5.7907   5.9382
     6.0149   6.0912   6.1335   6.2358   6.2588   6.3361   6.3847   6.4927
     6.8005   6.8704   6.9227   6.9925   7.0098   7.1763   7.2714   7.4407
     7.5659   7.6283   7.7389   7.7637   7.9506

 ------ SPIN DOWN ----------


          k = 0.0000 0.0000 0.0000 ( 91663 PWs)   bands (ev):

   -23.6322 -23.1530 -22.2313 -20.6053 -20.5836 -20.5762 -20.4449 -20.4240
   -19.2872 -18.9986 -18.7855 -17.7943 -17.7136 -17.6648 -17.6367 -17.5926
   -17.5817 -17.5722 -17.5559 -17.4836 -17.4719 -17.4099 -17.3452 -17.2774
   -16.2709 -16.2426 -15.6418 -15.3843 -15.3174 -15.1931 -15.1272 -14.9814
   -14.1485 -14.0869 -14.0143 -13.7791 -13.7512 -13.6747 -13.6341 -13.5782
   -13.0608 -12.9604 -12.6866 -12.6773 -12.4572 -12.4170 -12.2647 -12.1867
   -10.9695 -10.7782 -10.7347 -10.7113 -10.4638 -10.2468 -10.1882 -10.1352
   -10.0867  -9.9253  -9.8750  -9.8684  -9.7899  -9.7277  -9.6056  -9.5418
    -9.4537  -9.3877  -9.1180  -9.0634  -9.0218  -8.8509  -8.7146  -8.5336
    -8.1445  -7.9056  -7.6951  -7.6268  -7.5485  -7.4929  -7.3827  -7.2833
    -7.1864  -7.1490  -7.0335  -6.9135  -6.7043  -6.6054  -6.5002  -6.4188
    -6.3714  -6.2067  -6.1649  -6.0941  -6.0644  -5.9475  -5.9163  -5.8677
    -5.8643  -5.8212  -5.8122  -5.6826  -5.6100  -5.5500  -5.4403  -5.4119
    -5.3730  -5.3492  -5.2764  -5.1868  -5.1519  -5.0876  -5.0312  -4.9947
    -4.9555  -4.9312  -4.8548  -4.8231  -4.7917  -4.7504  -4.7281  -4.6492
    -4.6156  -4.5812  -4.5613  -4.5280  -4.5143  -4.4520  -4.4116  -4.3654
    -4.3384  -4.3023  -4.2637  -4.2464  -4.1532  -4.1448  -4.0905  -4.0802
    -4.0440  -3.9712  -3.9484  -3.9095  -3.8972  -3.7230  -3.6929  -3.6413
    -3.5340  -3.5164  -3.4376  -3.3939  -3.3309  -3.3143  -3.2323  -3.1760
    -3.0412  -2.9747  -2.9179  -2.8301  -2.7883  -2.7391  -2.6831  -2.6172
    -2.6102  -2.5428  -2.4941  -2.4303  -2.3727  -2.3274  -2.2703  -2.2374
    -2.1997  -2.1377  -2.0278  -1.9127  -1.8824  -1.8166  -1.7912  -1.7603
    -1.7402  -1.6848  -1.6291  -1.5678  -1.5444  -1.4778  -1.4345  -1.3898
    -1.3146  -1.1812  -1.1394  -1.1358  -1.0913  -1.0726  -1.0369  -0.9899
    -0.9529  -0.9251  -0.8849  -0.7775  -0.7734  -0.7303  -0.6419  -0.6201
    -0.6090  -0.5674  -0.4780  -0.4429  -0.3915  -0.3582  -0.3086  -0.2440
    -0.2157  -0.1188  -0.0301   0.0374   0.1001   0.1252   0.1930   0.2604
     0.3548   0.4227   0.4486   0.4863   0.5195   0.5402   0.6426   0.6703
     0.6760   0.6914   0.7347   0.7859   1.1189   1.1605   1.2583   1.2895
     1.4137   1.7651   2.0483   2.2779   2.4022   2.4622   2.5179   2.5613
     2.6266   2.6809   2.6946   2.7402   2.8451   2.9829   3.1121   3.2441
     3.3428   3.4119   3.6337   3.6981   3.7744   3.8493   3.9420   4.0235
     4.0724   4.0970   4.2741   4.3529   5.1183   5.2219   5.3214   5.3592
     5.4271   5.5148   5.5857   5.6440   5.6597   5.7960   5.8676   6.0070
     6.0910   6.1509   6.1985   6.3001   6.3301   6.4090   6.4577   6.5600
     6.8515   6.9237   6.9789   7.0414   7.0572   7.2189   7.3125   7.4986
     7.6106   7.6674   7.7803   7.8151   7.9918

     the spin up/dw Fermi energies are     2.2456    1.9196 ev

!    total energy              =   -1897.68015019 Ry
     Harris-Foulkes estimate   =   -1897.68015138 Ry
     estimated scf accuracy    <       0.00000234 Ry

     The total energy is the sum of the following terms:

     one-electron contribution =   -2585.36759148 Ry
     hartree contribution      =    1482.81745145 Ry
     xc contribution           =    -585.28278735 Ry
     ewald contribution        =    -211.69189764 Ry
     Dispersion Correction     =      -0.65215739 Ry
     smearing contrib. (-TS)   =       2.49683223 Ry

     total magnetization       =     8.00 Bohr mag/cell
     absolute magnetization    =     8.15 Bohr mag/cell

     convergence has been achieved in  23 iterations

     Forces acting on atoms (cartesian axes, Ry/au):

     atom    1 type  1   force =    -0.00818836   -0.01250738    0.02684854
     atom    2 type  1   force =     0.00148270    0.00474651    0.00878023
     atom    3 type  1   force =    -0.00074401    0.04401887   -0.01945907
     atom    4 type  1   force =    -0.00275617   -0.01909640   -0.02038426
     atom    5 type  1   force =     0.09726791    0.03728562   -0.02010413
     atom    6 type  1   force =     0.07078706   -0.03480316    0.00323379
     atom    7 type  1   force =     0.04425875   -0.03116256   -0.05955267
     atom    8 type  1   force =     0.04688204    0.03317215   -0.06794086
     atom    9 type  1   force =    -0.01517404    0.00929850    0.02417946
     atom   10 type  1   force =    -0.01944401   -0.00479837    0.01620654
     atom   11 type  1   force =     0.00511537    0.01368830   -0.00692646
     atom   12 type  1   force =     0.00571424   -0.00974466   -0.00434407
     atom   13 type  1   force =    -0.05668447   -0.05406702   -0.08880982
     atom   14 type  1   force =    -0.01106141    0.00302835   -0.00582722
     atom   15 type  1   force =    -0.00761210   -0.00346553   -0.00026909
     atom   16 type  1   force =     0.05100321   -0.03885702   -0.07277660
     atom   17 type  1   force =     0.01016902    0.00647380   -0.00341869
     atom   18 type  1   force =     0.00310813   -0.00597543   -0.02625503
     atom   19 type  1   force =    -0.01418017   -0.01703764   -0.00606186
     atom   20 type  1   force =    -0.01389018    0.01237590   -0.00730884
     atom   21 type  1   force =     0.12899362   -0.04782789    0.23099375
     atom   22 type  1   force =    -0.04099051   -0.00426834   -0.00954624
     atom   23 type  1   force =     0.01465821   -0.00181294    0.00217439
     atom   24 type  1   force =    -0.01288973    0.00039603    0.00635215
     atom   25 type  1   force =    -0.04404185    0.03285280   -0.06651303
     atom   26 type  1   force =    -0.06046243   -0.02362561   -0.04995738
     atom   27 type  1   force =     0.01369318    0.01360256   -0.00374084
     atom   28 type  1   force =     0.01620834   -0.03869058   -0.00120235
     atom   29 type  1   force =    -0.00953368   -0.00763751   -0.00136591
     atom   30 type  1   force =     0.00283865    0.01041230   -0.02816466
     atom   31 type  1   force =     0.05814877   -0.02612520   -0.03799227
     atom   32 type  1   force =    -0.00078951   -0.00521078    0.00908367
     atom   33 type  1   force =    -0.01475878    0.00079219    0.01918289
     atom   34 type  1   force =    -0.00752098    0.01319646   -0.00243921
     atom   35 type  1   force =     0.02055431   -0.01198729    0.00964950
     atom   36 type  1   force =     0.02330458    0.00094347    0.00942598
     atom   37 type  1   force =     0.00706953    0.00294387   -0.00178556
     atom   38 type  1   force =    -0.05721742    0.05344721   -0.10103354
     atom   39 type  1   force =     0.04526727    0.03298757   -0.07390146
     atom   40 type  1   force =     0.05561168   -0.04252977   -0.06746713
     atom   41 type  1   force =     0.00002395    0.00934617   -0.02188787
     atom   42 type  1   force =    -0.08901724    0.04493352   -0.01866270
     atom   43 type  1   force =    -0.02122739   -0.03797148   -0.00918271
     atom   44 type  1   force =     0.00628825    0.01613599   -0.02030872
     atom   45 type  1   force =     0.00813970    0.00145408    0.00430217
     atom   46 type  1   force =     0.20253658    0.04910289    0.25907419
     atom   47 type  1   force =    -0.12193295    0.02381473    0.17609907
     atom   48 type  1   force =     0.03957892    0.00432505   -0.00813577
     atom   49 type  1   force =    -0.36317561    0.03203181   -0.30067878
     atom   50 type  1   force =    -0.36877175   -0.02147074   -0.26817354
     atom   51 type  1   force =    -0.38931193   -0.02943014    0.21393294
     atom   52 type  1   force =    -0.39258193    0.02367283    0.21245066
     atom   53 type  1   force =     0.39541463   -0.00131424    0.23371507
     atom   54 type  1   force =     0.37200202   -0.00966052    0.26035200
     atom   55 type  1   force =    -0.36708540   -0.01995889    0.26064603
     atom   56 type  1   force =     0.33694120    0.04796000   -0.29531019
     atom   57 type  2   force =    -0.00963699    0.00264774    0.00343596
     atom   58 type  2   force =    -0.00025379    0.00183115   -0.00181600
     atom   59 type  2   force =    -0.00111751    0.00247272   -0.00139185
     atom   60 type  2   force =     0.00365677    0.00113100   -0.00114853
     atom   61 type  2   force =    -0.00012213   -0.00169160    0.00230314
     atom   62 type  2   force =    -0.00046186   -0.00013759    0.00197593
     atom   63 type  2   force =     0.00224906    0.00771515   -0.01059858
     atom   64 type  2   force =    -0.03302281   -0.07912857   -0.04038054
     atom   65 type  2   force =    -0.00867682    0.00388710    0.00339236
     atom   66 type  2   force =     0.00194700    0.00011446   -0.00025411
     atom   67 type  2   force =     0.03174708   -0.06668652   -0.04536052
     atom   68 type  2   force =    -0.00241594   -0.00499036   -0.00413667
     atom   69 type  2   force =    -0.00356463    0.00539119   -0.00559645
     atom   70 type  2   force =     0.00170761   -0.00210506   -0.00133105
     atom   71 type  2   force =     0.00269628   -0.00580537   -0.00489470
     atom   72 type  2   force =     0.00345180    0.00092879    0.00012718
     atom   73 type  2   force =    -0.00187105   -0.00931294   -0.01023001
     atom   74 type  2   force =     0.00332859   -0.00891463   -0.01320592
     atom   75 type  2   force =     0.00002266    0.00029174    0.00118462
     atom   76 type  2   force =    -0.00197896   -0.00016019    0.00022026
     atom   77 type  2   force =    -0.03168786    0.08707643   -0.05298480
     atom   78 type  2   force =     0.03026137    0.06559238   -0.04757142
     atom   79 type  2   force =     0.03427010   -0.07273111   -0.04114972
     atom   80 type  2   force =    -0.00048296   -0.00214197   -0.00191514
     atom   81 type  2   force =     0.01205137    0.02970829   -0.03249005
     atom   82 type  2   force =     0.00923048   -0.03776091   -0.03487686
     atom   83 type  2   force =    -0.08788558    0.02915212    0.05369732
     atom   84 type  2   force =    -0.08622477   -0.02903922    0.05372634
     atom   85 type  2   force =     0.09553539   -0.04961119    0.06734369
     atom   86 type  2   force =     0.03503532    0.02434650    0.06744123
     atom   87 type  2   force =    -0.03520760    0.00037958    0.05905770
     atom   88 type  2   force =    -0.00498971    0.03216282   -0.04178781
     atom   89 type  3   force =     0.00157606   -0.02420789    0.00035014
     atom   90 type  3   force =     0.00613734    0.00741881    0.00916766
     atom   91 type  3   force =     0.00702149    0.00180431   -0.00770024
     atom   92 type  3   force =    -0.00861642   -0.03550435   -0.00842063
     atom   93 type  3   force =     0.00765782   -0.01485566    0.00032779
     atom   94 type  3   force =     0.00519993    0.04055590   -0.00887024
     atom   95 type  3   force =     0.00665432    0.02430898   -0.01389600
     atom   96 type  3   force =    -0.00221211   -0.02193441   -0.00143815
     atom   97 type  4   force =    -0.00002125   -0.00628490   -0.00019717
     atom   98 type  4   force =     0.01499617    0.01673331   -0.02146320
     atom   99 type  4   force =     0.06844218   -0.04549700   -0.00539986
     atom  100 type  4   force =     0.00358070   -0.00461064   -0.00008597
     atom  101 type  5   force =    -0.00155394   -0.00794395   -0.00228250
     atom  102 type  5   force =     0.00673521    0.01290452   -0.00748099
     atom  103 type  5   force =    -0.14582029    0.12136482   -0.06763935
     atom  104 type  5   force =     0.00480539    0.00800558    0.00931440
     atom  105 type  5   force =     0.03983981   -0.00184663    0.00066812
     atom  106 type  5   force =     0.00062863   -0.00324522    0.00283599
     atom  107 type  5   force =    -0.00003829   -0.00299712    0.00011154
     atom  108 type  5   force =     0.01732373   -0.02226146    0.00195243
     atom  109 type  5   force =     0.09016495   -0.11340810   -0.04122580
     atom  110 type  5   force =    -0.00366358   -0.00755248    0.01035466
     atom  111 type  5   force =    -0.00633495    0.01004753   -0.00773154
     atom  112 type  5   force =    -0.15514805   -0.16279812   -0.07582173
     atom  113 type  5   force =    -0.00773583   -0.00807678    0.00445551
     atom  114 type  5   force =    -0.01979733    0.02476956    0.00123214
     atom  115 type  5   force =    -0.04789941    0.02184592   -0.00920995
     atom  116 type  5   force =    -0.06872058    0.01255271   -0.01073779
     atom  117 type  6   force =     0.30778173    0.08181980    0.14888833
     atom  118 type  6   force =     0.26821598   -0.04652121    0.18239333
     atom  119 type  6   force =     0.35606433    0.18482865   -0.07153552
     atom  120 type  6   force =     0.35997735   -0.18037041   -0.07308213
     atom  121 type  6   force =    -0.35206574   -0.18612823   -0.07283373
     atom  122 type  6   force =    -0.36854597    0.18241604   -0.07735189
     atom  123 type  6   force =     0.37125520    0.18269456   -0.07529680
     atom  124 type  6   force =    -0.28549230    0.01995918    0.17706965

     Total force =     1.704153     Total SCF correction =     0.001862

     BFGS Geometry Optimization

     number of scf cycles    =   1
     number of bfgs steps    =   0

     energy   new            =   -1897.6801501885 Ry

     new trust radius        =       0.4725783412 bohr
     new conv_thr            =       0.0000050000 Ry


ATOMIC_POSITIONS (crystal)
C             0.2882120000        0.9700500000        0.5219840000    0   0   0
C             0.0383790000        0.0311060000        0.0223080000    0   0   0
C             0.3906340000        0.0117700000        0.5464920000    0   0   0
C             0.1402440000        0.9877440000        0.0461460000    0   0   0
C             0.4519150000        0.9702020000        0.6503710000    0   0   0
C             0.2025200000        0.0283530000        0.1498930000    0   0   0
C             0.2081810000        0.5297040000        0.5263840000    0   0   0
C             0.4585450000        0.4714090000        0.0279040000    0   0   0
C             0.2451370000        0.6133310000        0.6064350000    0   0   0
C             0.4968190000        0.3886770000        0.1086170000    0   0   0
C             0.2494760000        0.8892060000        0.6032030000    0   0   0
C             0.0010690000        0.1122320000        0.1042470000    0   0   0
C             0.4079770000        0.8893830000        0.7275520000    0   0   0
C             0.1599350000        0.1095470000        0.2278120000    0   0   0
C             0.0888620000        0.6089830000        0.7273520000    0   0   0
C             0.3408900000        0.3916330000        0.2293940000    0   0   0
C             0.0469250000        0.5250790000        0.6513120000    0   0   0
C             0.2976580000        0.4747110000        0.1527540000    0   0   0
C             0.1081640000        0.4842700000        0.5501160000    0   0   0
C             0.3578320000        0.5156560000        0.0506380000    0   0   0
C             0.4333100000        0.0993190000        0.4666210000    0   0   0
C             0.1815170000        0.8997200000        0.9656720000    0   0   0
C             0.0673780000        0.3944740000        0.4706760000    0   0   0
C             0.3160430000        0.6041720000        0.9691070000    0   0   0
C             0.7882120000        0.9700500000        0.5219840000    0   0   0
C             0.5383790000        0.0311060000        0.0223080000    0   0   0
C             0.8906340000        0.0117700000        0.5464920000    0   0   0
C             0.6402440000        0.9877440000        0.0461460000    0   0   0
C             0.9519150000        0.9702020000        0.6503710000    0   0   0
C             0.7025200000        0.0283530000        0.1498930000    0   0   0
C             0.7081820000        0.5297040000        0.5263840000    0   0   0
C             0.9585460000        0.4714090000        0.0279040000    0   0   0
C             0.7451370000        0.6133310000        0.6064350000    0   0   0
C             0.9968190000        0.3886770000        0.1086170000    0   0   0
C             0.7494760000        0.8892060000        0.6032030000    0   0   0
C             0.5010690000        0.1122320000        0.1042470000    0   0   0
C             0.9079770000        0.8893830000        0.7275520000    0   0   0
C             0.6599340000        0.1095470000        0.2278120000    0   0   0
C             0.5888620000        0.6089830000        0.7273520000    0   0   0
C             0.8408900000        0.3916330000        0.2293940000    0   0   0
C             0.5469250000        0.5250790000        0.6513120000    0   0   0
C             0.7976580000        0.4747110000        0.1527540000    0   0   0
C             0.6081640000        0.4842700000        0.5501160000    0   0   0
C             0.8578320000        0.5156560000        0.0506380000    0   0   0
C             0.9333100000        0.0993190000        0.4666210000    0   0   0
C             0.6815170000        0.8997200000        0.9656720000    0   0   0
C             0.5673770000        0.3944740000        0.4706760000    0   0   0
C             0.8160430000        0.6041720000        0.9691070000    0   0   0
C             0.5495733003        0.0099475067        0.6689475258
C             0.2996299677        0.9875957524        0.1691977098
C             0.2636597122        0.4912084271        0.4275586258
C             0.5137159519        0.5101852973        0.9288462811
C             0.7323511320        0.0085024666        0.4218015051
C             0.4806853906        0.9937567939        0.9235544415
C             0.7646450196        0.4916076356        0.4299655859
C             0.7003639289        0.5182075533        0.1701210352
H             0.2371240000        0.9995750000        0.4431130000    0   0   0
H             0.0320630000        0.9988050000        0.6735200000    0   0   0
H             0.0086410000        0.5003970000        0.9505480000    0   0   0
H             0.3226410000        0.6505060000        0.5926350000    0   0   0
H             0.0749680000        0.3528510000        0.0950280000    0   0   0
H             0.1701540000        0.8551230000        0.5885600000    0   0   0
H             0.4223220000        0.1477320000        0.0898860000    0   0   0
H             0.4533700000        0.8551730000        0.8087610000    0   0   0
H             0.2062390000        0.1431030000        0.3087970000    0   0   0
H             0.0437290000        0.6429440000        0.8066080000    0   0   0
H             0.2963780000        0.3575260000        0.3090510000    0   0   0
H             0.4686720000        0.4932310000        0.6735020000    0   0   0
H             0.2189520000        0.5052010000        0.1752640000    0   0   0
H             0.9865380000        0.0026920000        0.9434990000    0   0   0
H             0.7823400000        0.9986650000        0.1726020000    0   0   0
H             0.8226410000        0.6505060000        0.5926350000    0   0   0
H             0.5749680000        0.3528510000        0.0950280000    0   0   0
H             0.6701540000        0.8551230000        0.5885600000    0   0   0
H             0.9223220000        0.1477320000        0.0898860000    0   0   0
H             0.9533700000        0.8551730000        0.8087610000    0   0   0
H             0.7062400000        0.1431030000        0.3087970000    0   0   0
H             0.5437290000        0.6429440000        0.8066080000    0   0   0
H             0.7963780000        0.3575260000        0.3090510000    0   0   0
H             0.9686720000        0.4932310000        0.6735020000    0   0   0
H             0.6035775014        0.0711153260        0.6277195987
H             0.3526998977        0.9253204101        0.1256656656
H             0.2526424362        0.4303458248        0.3549756830
H             0.5021347410        0.5706119458        0.8557511774
H             0.7442207261        0.0677696756        0.3479105398
H             0.4898507440        0.9337897633        0.8477995636
H             0.7548785408        0.4291290391        0.3552527694
H             0.6488966893        0.5806120424        0.1285057169
N             0.3084370000        0.8512530000        0.7048280000    0   0   0
N             0.0607290000        0.1488570000        0.2060520000    0   0   0
N             0.1865420000        0.6503100000        0.7058380000    0   0   0
N             0.4388100000        0.3509280000        0.2080410000    0   0   0
N             0.8084370000        0.8512530000        0.7048280000    0   0   0
N             0.5607290000        0.1488570000        0.2060520000    0   0   0
N             0.6865430000        0.6503100000        0.7058380000    0   0   0
N             0.9388100000        0.3509280000        0.2080410000    0   0   0
Ni            0.2470020000        0.7514860000        0.8363260000    0   0   0
Ni            0.4999720000        0.2479990000        0.3391780000    0   0   0
Ni            0.7470020000        0.7514860000        0.8363260000    0   0   0
Ni            0.9999720000        0.2479990000        0.3391780000    0   0   0
O             0.1227780000        0.3476890000        0.3828730000    0   0   0
O             0.3712080000        0.6509770000        0.8812920000    0   0   0
O             0.3776300000        0.1475070000        0.3771780000    0   0   0
O             0.1250980000        0.8523520000        0.8762610000    0   0   0
O             0.4730690000        0.3561600000        0.4829940000    0   0   0
O             0.2211370000        0.6414150000        0.9798770000    0   0   0
O             0.0288400000        0.1351580000        0.4810780000    0   0   0
O             0.2766860000        0.8627580000        0.9793990000    0   0   0
O             0.6227790000        0.3476890000        0.3828730000    0   0   0
O             0.8712080000        0.6509770000        0.8812920000    0   0   0
O             0.8776300000        0.1475070000        0.3771780000    0   0   0
O             0.6250980000        0.8523520000        0.8762610000    0   0   0
O             0.9730690000        0.3561600000        0.4829940000    0   0   0
O             0.7211370000        0.6414150000        0.9798770000    0   0   0
O             0.5288400000        0.1351580000        0.4810780000    0   0   0
O             0.7766860000        0.8627580000        0.9793990000    0   0   0
S             0.6412734133        0.9691253017        0.7990855001
S             0.3909025860        0.0284232426        0.2991371770
S             0.3978698857        0.5471189485        0.3885725598
S             0.6489860162        0.4561034348        0.8906179014
S             0.5950469894        0.9577811377        0.3807576957
S             0.3442483897        0.0464630035        0.8816069875
S             0.8985101650        0.5470277723        0.3883798347
S             0.6127523085        0.4747803765        0.2995019802



     Writing output data file /nfs/hpc/share/gantzlen/NiPyC2_relax_sc211_meta_functionalized_CH-S_pbesol_relax_frozen_parent_atoms.save/
     NEW-OLD atomic charge density approx. for the potential

     Check: negative core charge=   -0.000143

     total cpu time spent up to now is     3604.3 secs

     Self-consistent Calculation

     iteration #  1     ecut=   100.00 Ry     beta= 0.70
     Davidson diagonalization with overlap
     ethr =  1.00E-06,  avg # of iterations = 16.0

     total cpu time spent up to now is     4356.6 secs

     total energy              =   -1898.02563573 Ry
     Harris-Foulkes estimate   =   -1898.41742093 Ry
     estimated scf accuracy    <       0.98612715 Ry

     total magnetization       =     8.00 Bohr mag/cell
     absolute magnetization    =     8.14 Bohr mag/cell

     iteration #  2     ecut=   100.00 Ry     beta= 0.70
     Davidson diagonalization with overlap
     ethr =  2.05E-04,  avg # of iterations =  2.0

     total cpu time spent up to now is     4498.5 secs

     total energy              =   -1898.02397963 Ry
     Harris-Foulkes estimate   =   -1898.11875787 Ry
     estimated scf accuracy    <       0.27122020 Ry

     total magnetization       =     8.00 Bohr mag/cell
     absolute magnetization    =     8.13 Bohr mag/cell

     iteration #  3     ecut=   100.00 Ry     beta= 0.70
     Davidson diagonalization with overlap
     ethr =  5.65E-05,  avg # of iterations =  2.0

     total cpu time spent up to now is     4645.5 secs

     total energy              =   -1898.01240963 Ry
     Harris-Foulkes estimate   =   -1898.14479276 Ry
     estimated scf accuracy    <       1.22845630 Ry

     total magnetization       =     8.00 Bohr mag/cell
     absolute magnetization    =     8.12 Bohr mag/cell

     iteration #  4     ecut=   100.00 Ry     beta= 0.70
     Davidson diagonalization with overlap
     ethr =  5.65E-05,  avg # of iterations =  2.0

     total cpu time spent up to now is     4789.7 secs

     total energy              =   -1898.07101867 Ry
     Harris-Foulkes estimate   =   -1898.07517585 Ry
     estimated scf accuracy    <       0.02101204 Ry

     total magnetization       =     8.00 Bohr mag/cell
     absolute magnetization    =     8.13 Bohr mag/cell

     iteration #  5     ecut=   100.00 Ry     beta= 0.70
     Davidson diagonalization with overlap
     ethr =  4.38E-06,  avg # of iterations = 10.0

     total cpu time spent up to now is     4946.1 secs

     total energy              =   -1898.07075961 Ry
     Harris-Foulkes estimate   =   -1898.07723458 Ry
     estimated scf accuracy    <       0.09269156 Ry

     total magnetization       =     8.00 Bohr mag/cell
     absolute magnetization    =     8.13 Bohr mag/cell

     iteration #  6     ecut=   100.00 Ry     beta= 0.70
     Davidson diagonalization with overlap
     ethr =  4.38E-06,  avg # of iterations =  2.0

     total cpu time spent up to now is     5092.2 secs

     total energy              =   -1898.07383812 Ry
     Harris-Foulkes estimate   =   -1898.07406213 Ry
     estimated scf accuracy    <       0.00147434 Ry

     total magnetization       =     8.00 Bohr mag/cell
     absolute magnetization    =     8.13 Bohr mag/cell

     iteration #  7     ecut=   100.00 Ry     beta= 0.70
     Davidson diagonalization with overlap
     ethr =  3.07E-07,  avg # of iterations =  2.5

     total cpu time spent up to now is     5235.2 secs

     total energy              =   -1898.07385387 Ry
     Harris-Foulkes estimate   =   -1898.07402741 Ry
     estimated scf accuracy    <       0.00216842 Ry

     total magnetization       =     8.00 Bohr mag/cell
     absolute magnetization    =     8.13 Bohr mag/cell

     iteration #  8     ecut=   100.00 Ry     beta= 0.70
     Davidson diagonalization with overlap
     ethr =  3.07E-07,  avg # of iterations =  1.0

     total cpu time spent up to now is     5375.3 secs

     total energy              =   -1898.07395659 Ry
     Harris-Foulkes estimate   =   -1898.07400338 Ry
     estimated scf accuracy    <       0.00105402 Ry

     total magnetization       =     8.00 Bohr mag/cell
     absolute magnetization    =     8.13 Bohr mag/cell

     iteration #  9     ecut=   100.00 Ry     beta= 0.70
     Davidson diagonalization with overlap
     ethr =  2.20E-07,  avg # of iterations =  1.0

     total cpu time spent up to now is     5513.7 secs

     total energy              =   -1898.07398492 Ry
     Harris-Foulkes estimate   =   -1898.07398413 Ry
     estimated scf accuracy    <       0.00027776 Ry

     total magnetization       =     8.00 Bohr mag/cell
     absolute magnetization    =     8.13 Bohr mag/cell

     iteration # 10     ecut=   100.00 Ry     beta= 0.70
     Davidson diagonalization with overlap
     ethr =  5.79E-08,  avg # of iterations =  2.5

     total cpu time spent up to now is     5659.4 secs

     total energy              =   -1898.07400304 Ry
     Harris-Foulkes estimate   =   -1898.07400008 Ry
     estimated scf accuracy    <       0.00008737 Ry

     total magnetization       =     8.00 Bohr mag/cell
     absolute magnetization    =     8.13 Bohr mag/cell

     iteration # 11     ecut=   100.00 Ry     beta= 0.70
     Davidson diagonalization with overlap
     ethr =  1.82E-08,  avg # of iterations =  2.5

     total cpu time spent up to now is     5802.8 secs

     total energy              =   -1898.07400688 Ry
     Harris-Foulkes estimate   =   -1898.07400838 Ry
     estimated scf accuracy    <       0.00005519 Ry

     total magnetization       =     8.00 Bohr mag/cell
     absolute magnetization    =     8.13 Bohr mag/cell

     iteration # 12     ecut=   100.00 Ry     beta= 0.70
     Davidson diagonalization with overlap
     ethr =  1.15E-08,  avg # of iterations =  1.5

     total cpu time spent up to now is     5940.1 secs

     total energy              =   -1898.07400998 Ry
     Harris-Foulkes estimate   =   -1898.07401297 Ry
     estimated scf accuracy    <       0.00008868 Ry

     total magnetization       =     8.00 Bohr mag/cell
     absolute magnetization    =     8.13 Bohr mag/cell

     iteration # 13     ecut=   100.00 Ry     beta= 0.70
     Davidson diagonalization with overlap
     ethr =  1.15E-08,  avg # of iterations =  2.0

     total cpu time spent up to now is     6070.0 secs

     total energy              =   -1898.07401426 Ry
     Harris-Foulkes estimate   =   -1898.07401491 Ry
     estimated scf accuracy    <       0.00002290 Ry

     total magnetization       =     8.00 Bohr mag/cell
     absolute magnetization    =     8.13 Bohr mag/cell

     iteration # 14     ecut=   100.00 Ry     beta= 0.70
     Davidson diagonalization with overlap
     ethr =  4.77E-09,  avg # of iterations =  2.5

     total cpu time spent up to now is     6216.1 secs

     total energy              =   -1898.07401524 Ry
     Harris-Foulkes estimate   =   -1898.07401626 Ry
     estimated scf accuracy    <       0.00001418 Ry

     total magnetization       =     8.00 Bohr mag/cell
     absolute magnetization    =     8.13 Bohr mag/cell

     iteration # 15     ecut=   100.00 Ry     beta= 0.70
     Davidson diagonalization with overlap
     ethr =  2.95E-09,  avg # of iterations =  1.0

     total cpu time spent up to now is     6352.3 secs

     total energy              =   -1898.07401589 Ry
     Harris-Foulkes estimate   =   -1898.07401629 Ry
     estimated scf accuracy    <       0.00000564 Ry

     total magnetization       =     8.00 Bohr mag/cell
     absolute magnetization    =     8.13 Bohr mag/cell

     iteration # 16     ecut=   100.00 Ry     beta= 0.70
     Davidson diagonalization with overlap
     ethr =  1.18E-09,  avg # of iterations =  1.5

     total cpu time spent up to now is     6496.1 secs

     total energy              =   -1898.07401625 Ry
     Harris-Foulkes estimate   =   -1898.07401659 Ry
     estimated scf accuracy    <       0.00000970 Ry

     total magnetization       =     8.00 Bohr mag/cell
     absolute magnetization    =     8.13 Bohr mag/cell

     iteration # 17     ecut=   100.00 Ry     beta= 0.70
     Davidson diagonalization with overlap
     ethr =  1.18E-09,  avg # of iterations =  1.5
 
     Magnetic moment per site:
     atom:    1    charge:    0.8142    magn:    0.0045    constr:    0.0000
     atom:    2    charge:    0.8120    magn:    0.0036    constr:    0.0000
     atom:    3    charge:    0.8156    magn:    0.0043    constr:    0.0000
     atom:    4    charge:    0.8154    magn:    0.0058    constr:    0.0000
     atom:    5    charge:    0.8428    magn:    0.0008    constr:    0.0000
     atom:    6    charge:    0.8424    magn:    0.0002    constr:    0.0000
     atom:    7    charge:    0.8435    magn:    0.0005    constr:    0.0000
     atom:    8    charge:    0.8420    magn:    0.0004    constr:    0.0000
     atom:    9    charge:    0.8062    magn:    0.0076    constr:    0.0000
     atom:   10    charge:    0.8056    magn:    0.0066    constr:    0.0000
     atom:   11    charge:    0.8041    magn:    0.0043    constr:    0.0000
     atom:   12    charge:    0.8043    magn:    0.0050    constr:    0.0000
     atom:   13    charge:    0.8128    magn:    0.0068    constr:    0.0000
     atom:   14    charge:    0.8064    magn:    0.0069    constr:    0.0000
     atom:   15    charge:    0.8065    magn:    0.0052    constr:    0.0000
     atom:   16    charge:    0.8094    magn:    0.0043    constr:    0.0000
     atom:   17    charge:    0.8124    magn:    0.0040    constr:    0.0000
     atom:   18    charge:    0.8133    magn:    0.0043    constr:    0.0000
     atom:   19    charge:    0.8163    magn:    0.0057    constr:    0.0000
     atom:   20    charge:    0.8144    magn:    0.0059    constr:    0.0000
     atom:   21    charge:    0.8044    magn:    0.0047    constr:    0.0000
     atom:   22    charge:    0.7896    magn:   -0.0004    constr:    0.0000
     atom:   23    charge:    0.7895    magn:   -0.0004    constr:    0.0000
     atom:   24    charge:    0.7902    magn:   -0.0012    constr:    0.0000
     atom:   25    charge:    0.8467    magn:    0.0005    constr:    0.0000
     atom:   26    charge:    0.8484    magn:    0.0015    constr:    0.0000
     atom:   27    charge:    0.8155    magn:    0.0057    constr:    0.0000
     atom:   28    charge:    0.8155    magn:    0.0045    constr:    0.0000
     atom:   29    charge:    0.8126    magn:    0.0038    constr:    0.0000
     atom:   30    charge:    0.8139    magn:    0.0050    constr:    0.0000
     atom:   31    charge:    0.8488    magn:    0.0017    constr:    0.0000
     atom:   32    charge:    0.8118    magn:    0.0035    constr:    0.0000
     atom:   33    charge:    0.8064    magn:    0.0065    constr:    0.0000
     atom:   34    charge:    0.8039    magn:    0.0044    constr:    0.0000
     atom:   35    charge:    0.8067    magn:    0.0076    constr:    0.0000
     atom:   36    charge:    0.8061    magn:    0.0063    constr:    0.0000
     atom:   37    charge:    0.8069    magn:    0.0046    constr:    0.0000
     atom:   38    charge:    0.8098    magn:    0.0043    constr:    0.0000
     atom:   39    charge:    0.8100    magn:    0.0047    constr:    0.0000
     atom:   40    charge:    0.8103    magn:    0.0066    constr:    0.0000
     atom:   41    charge:    0.8128    magn:    0.0046    constr:    0.0000
     atom:   42    charge:    0.8367    magn:    0.0010    constr:    0.0000
     atom:   43    charge:    0.8172    magn:    0.0046    constr:    0.0000
     atom:   44    charge:    0.8148    magn:    0.0058    constr:    0.0000
     atom:   45    charge:    0.7892    magn:   -0.0011    constr:    0.0000
     atom:   46    charge:    0.8055    magn:    0.0028    constr:    0.0000
     atom:   47    charge:    0.8001    magn:    0.0034    constr:    0.0000
     atom:   48    charge:    0.7898    magn:   -0.0005    constr:    0.0000
     atom:   49    charge:    0.7105    magn:    0.0099    constr:    0.0000
     atom:   50    charge:    0.7110    magn:    0.0105    constr:    0.0000
     atom:   51    charge:    0.7087    magn:    0.0071    constr:    0.0000
     atom:   52    charge:    0.7074    magn:    0.0069    constr:    0.0000
     atom:   53    charge:    0.7099    magn:    0.0075    constr:    0.0000
     atom:   54    charge:    0.7137    magn:    0.0057    constr:    0.0000
     atom:   55    charge:    0.7116    magn:    0.0054    constr:    0.0000
     atom:   56    charge:    0.7130    magn:    0.0113    constr:    0.0000
     atom:   57    charge:    0.4731    magn:   -0.0008    constr:    0.0000
     atom:   58    charge:    0.4725    magn:   -0.0010    constr:    0.0000
     atom:   59    charge:    0.4731    magn:   -0.0011    constr:    0.0000
     atom:   60    charge:    0.4726    magn:   -0.0007    constr:    0.0000
     atom:   61    charge:    0.4766    magn:   -0.0009    constr:    0.0000
     atom:   62    charge:    0.4750    magn:   -0.0010    constr:    0.0000
     atom:   63    charge:    0.4718    magn:   -0.0004    constr:    0.0000
     atom:   64    charge:    0.4896    magn:   -0.0003    constr:    0.0000
     atom:   65    charge:    0.4742    magn:   -0.0009    constr:    0.0000
     atom:   66    charge:    0.4724    magn:   -0.0007    constr:    0.0000
     atom:   67    charge:    0.4900    magn:   -0.0004    constr:    0.0000
     atom:   68    charge:    0.4695    magn:   -0.0008    constr:    0.0000
     atom:   69    charge:    0.4703    magn:   -0.0008    constr:    0.0000
     atom:   70    charge:    0.4728    magn:   -0.0011    constr:    0.0000
     atom:   71    charge:    0.4693    magn:   -0.0009    constr:    0.0000
     atom:   72    charge:    0.4712    magn:   -0.0007    constr:    0.0000
     atom:   73    charge:    0.4725    magn:   -0.0003    constr:    0.0000
     atom:   74    charge:    0.4730    magn:   -0.0004    constr:    0.0000
     atom:   75    charge:    0.4768    magn:   -0.0009    constr:    0.0000
     atom:   76    charge:    0.4732    magn:   -0.0006    constr:    0.0000
     atom:   77    charge:    0.4919    magn:   -0.0003    constr:    0.0000
     atom:   78    charge:    0.4905    magn:   -0.0005    constr:    0.0000
     atom:   79    charge:    0.4901    magn:   -0.0003    constr:    0.0000
     atom:   80    charge:    0.4725    magn:   -0.0009    constr:    0.0000
     atom:   81    charge:    0.4457    magn:    0.0001    constr:    0.0000
     atom:   82    charge:    0.4385    magn:    0.0001    constr:    0.0000
     atom:   83    charge:    0.4713    magn:    0.0015    constr:    0.0000
     atom:   84    charge:    0.4707    magn:    0.0015    constr:    0.0000
     atom:   85    charge:    0.4700    magn:    0.0017    constr:    0.0000
     atom:   86    charge:    0.4709    magn:    0.0019    constr:    0.0000
     atom:   87    charge:    0.4658    magn:    0.0021    constr:    0.0000
     atom:   88    charge:    0.4578    magn:    0.0006    constr:    0.0000
     atom:   89    charge:    2.4483    magn:    0.0123    constr:    0.0000
     atom:   90    charge:    2.4468    magn:    0.0089    constr:    0.0000
     atom:   91    charge:    2.4503    magn:    0.0089    constr:    0.0000
     atom:   92    charge:    2.4541    magn:    0.0138    constr:    0.0000
     atom:   93    charge:    2.4518    magn:    0.0129    constr:    0.0000
     atom:   94    charge:    2.4549    magn:    0.0146    constr:    0.0000
     atom:   95    charge:    2.4531    magn:    0.0113    constr:    0.0000
     atom:   96    charge:    2.4483    magn:    0.0121    constr:    0.0000
     atom:   97    charge:    7.4416    magn:    1.0107    constr:    0.0000
     atom:   98    charge:    7.4994    magn:    1.0414    constr:    0.0000
     atom:   99    charge:    7.4724    magn:    1.0247    constr:    0.0000
     atom:  100    charge:    7.4403    magn:    1.0090    constr:    0.0000
     atom:  101    charge:    3.2659    magn:    0.0410    constr:    0.0000
     atom:  102    charge:    3.2661    magn:    0.0436    constr:    0.0000
     atom:  103    charge:    3.3084    magn:    0.0188    constr:    0.0000
     atom:  104    charge:    3.2562    magn:    0.0441    constr:    0.0000
     atom:  105    charge:    3.2600    magn:    0.0284    constr:    0.0000
     atom:  106    charge:    3.2578    magn:    0.0473    constr:    0.0000
     atom:  107    charge:    3.2593    magn:    0.0476    constr:    0.0000
     atom:  108    charge:    3.2678    magn:    0.0437    constr:    0.0000
[...]
     atom   25 type  1   force =     0.00144014   -0.05556585   -0.01254359
     atom   26 type  1   force =    -0.02400229    0.05545012    0.03566144
     atom   27 type  1   force =     0.03488034    0.03126078    0.01893222
     atom   28 type  1   force =     0.02544537   -0.02432567   -0.02079309
     atom   29 type  1   force =    -0.01202652    0.00130473   -0.00362754
     atom   30 type  1   force =    -0.01785539   -0.00454377   -0.02637369
     atom   31 type  1   force =     0.03143488    0.00730426    0.03168630
     atom   32 type  1   force =    -0.00452251   -0.00424652    0.00901736
     atom   33 type  1   force =    -0.04302790    0.04487815    0.03896536
     atom   34 type  1   force =    -0.00309903    0.01094815   -0.00468485
     atom   35 type  1   force =     0.01363865   -0.02108908    0.07212516
     atom   36 type  1   force =     0.03841980    0.02950402    0.07374593
     atom   37 type  1   force =     0.00785027    0.00291644    0.00005007
     atom   38 type  1   force =    -0.00942422    0.02100376   -0.01181315
     atom   39 type  1   force =     0.01216905    0.02023375   -0.01417761
     atom   40 type  1   force =     0.03283251   -0.04795694    0.00418907
     atom   41 type  1   force =     0.01331345   -0.00417257   -0.02016481
     atom   42 type  1   force =    -0.04182820    0.01482184    0.01173964
     atom   43 type  1   force =    -0.02611665   -0.02193382   -0.02004835
     atom   44 type  1   force =     0.01323230    0.02915311   -0.04974382
     atom   45 type  1   force =     0.01306529   -0.00117397    0.00728755
     atom   46 type  1   force =     0.01199497    0.00331425    0.00944473
     atom   47 type  1   force =    -0.00328039    0.00283611    0.00567160
     atom   48 type  1   force =     0.16472072   -0.03544969   -0.03880201
     atom   49 type  1   force =    -0.00032110   -0.00005118    0.00088944
     atom   50 type  1   force =     0.00016579   -0.00015691   -0.00035357
     atom   51 type  1   force =    -0.00004892   -0.00022365    0.00003830
     atom   52 type  1   force =     0.00004736   -0.00005582   -0.00002060
     atom   53 type  1   force =     0.00003889   -0.00004472    0.00017580
     atom   54 type  1   force =     0.00010168   -0.00027016    0.00006550
     atom   55 type  1   force =     0.00073164   -0.00000157   -0.00043125
     atom   56 type  1   force =    -0.00001689    0.00054610   -0.00004406
     atom   57 type  2   force =     0.00176732    0.00355610    0.00224781
     atom   58 type  2   force =     0.00008283    0.00097553   -0.00263723
     atom   59 type  2   force =    -0.00197341    0.00301817   -0.00109965
     atom   60 type  2   force =     0.00234806    0.00291922   -0.00474317
     atom   61 type  2   force =    -0.00049069   -0.00099299    0.00122546
     atom   62 type  2   force =     0.00014511    0.00020486    0.00122225
     atom   63 type  2   force =    -0.00321098   -0.00035089   -0.00332026
     atom   64 type  2   force =    -0.00866134   -0.02053271   -0.01716963
     atom   65 type  2   force =    -0.00006019   -0.00367861    0.00018230
     atom   66 type  2   force =     0.00234895   -0.00045892   -0.00043138
     atom   67 type  2   force =     0.00617508   -0.00706182   -0.00356741
     atom   68 type  2   force =    -0.00011373   -0.00041416   -0.01934922
     atom   69 type  2   force =    -0.00124103   -0.00131287   -0.02230259
     atom   70 type  2   force =     0.00274960   -0.00280042   -0.00077912
     atom   71 type  2   force =    -0.00163894    0.00201005   -0.02456221
     atom   72 type  2   force =     0.00335065   -0.00227572    0.00225716
     atom   73 type  2   force =     0.00187496   -0.00278819   -0.00464117
     atom   74 type  2   force =    -0.00158876   -0.00328977   -0.00661307
     atom   75 type  2   force =     0.00019540   -0.00021994    0.00073610
     atom   76 type  2   force =    -0.00209313    0.00054545   -0.00030053
     atom   77 type  2   force =    -0.00303087    0.00525085   -0.00246031
     atom   78 type  2   force =     0.00481591    0.00831433   -0.00455729
     atom   79 type  2   force =    -0.00163741   -0.00461136   -0.02263348
     atom   80 type  2   force =     0.00043981   -0.00141417   -0.00219571
     atom   81 type  2   force =    -0.00027157    0.00000171    0.00000311
     atom   82 type  2   force =     0.00006556    0.00003402    0.00006609
     atom   83 type  2   force =     0.00000856    0.00006304    0.00015489
     atom   84 type  2   force =    -0.00012901    0.00012406   -0.00031734
     atom   85 type  2   force =    -0.00016940    0.00001295    0.00018462
     atom   86 type  2   force =     0.00025789   -0.00016802   -0.00004994
     atom   87 type  2   force =     0.00031330   -0.00077666   -0.00042680
     atom   88 type  2   force =    -0.00017838    0.00013659    0.00014829
     atom   89 type  3   force =     0.01479080   -0.00703146    0.00416715
     atom   90 type  3   force =     0.01235105    0.00346339    0.00511363
     atom   91 type  3   force =     0.01554035    0.00174028   -0.00794678
     atom   92 type  3   force =     0.01187905   -0.00609870   -0.00721471
     atom   93 type  3   force =    -0.01719772   -0.00333995   -0.00762537
     atom   94 type  3   force =    -0.01125179    0.00615981   -0.00474290
     atom   95 type  3   force =     0.00467612    0.00994599   -0.00608052
     atom   96 type  3   force =    -0.01087328   -0.00870433   -0.00007567
     atom   97 type  4   force =    -0.00296042   -0.03979910   -0.03679038
     atom   98 type  4   force =    -0.00520216    0.03993279   -0.03826929
     atom   99 type  4   force =     0.02217457    0.03748814   -0.02812440
     atom  100 type  4   force =     0.00360322   -0.00367527    0.00205134
     atom  101 type  5   force =    -0.00069342   -0.00441252   -0.00004693
     atom  102 type  5   force =     0.01081253    0.01120833   -0.00582700
     atom  103 type  5   force =     0.04652112   -0.02093051    0.04651607
     atom  104 type  5   force =     0.05150776    0.02671057    0.04636741
     atom  105 type  5   force =    -0.00342025   -0.00042380    0.00381441
     atom  106 type  5   force =    -0.00230083   -0.00068217    0.00499178
     atom  107 type  5   force =    -0.00020193   -0.00219919    0.00061374
     atom  108 type  5   force =     0.09688130   -0.02914583    0.02297539
     atom  109 type  5   force =     0.01073351   -0.00461316   -0.00121719
     atom  110 type  5   force =    -0.05166160   -0.02495910    0.04515985
     atom  111 type  5   force =    -0.00812056    0.00777864   -0.00568517
     atom  112 type  5   force =    -0.01557235   -0.00952843   -0.00326705
     atom  113 type  5   force =     0.00099835   -0.01221373    0.00543764
     atom  114 type  5   force =    -0.10166900    0.02269423    0.02201891
     atom  115 type  5   force =     0.09159789    0.02580406    0.00750201
     atom  116 type  5   force =     0.00054777    0.00203634    0.00412786
     atom  117 type  6   force =     0.00008196    0.00010924    0.00030804
     atom  118 type  6   force =    -0.00021301   -0.00034128   -0.00002313
     atom  119 type  6   force =     0.00012596   -0.00019353    0.00023933
     atom  120 type  6   force =    -0.00001066    0.00011750    0.00015432
     atom  121 type  6   force =    -0.00002040    0.00023478    0.00034550
     atom  122 type  6   force =     0.00055079   -0.00014922   -0.00010716
     atom  123 type  6   force =     0.00096214   -0.00001610   -0.00085724
     atom  124 type  6   force =     0.00031545    0.00017497    0.00021685

     Total force =     0.002532     Total SCF correction =     0.000142

     bfgs converged in  64 scf cycles and  63 bfgs steps
     (criteria: energy <  1.0E-04 Ry, force <  1.0E-03 Ry/Bohr)

     End of BFGS Geometry Optimization

     Final energy   =   -1899.2633400328 Ry
Begin final coordinates

ATOMIC_POSITIONS (crystal)
C             0.2882120000        0.9700500000        0.5219840000    0   0   0
C             0.0383790000        0.0311060000        0.0223080000    0   0   0
C             0.3906340000        0.0117700000        0.5464920000    0   0   0
C             0.1402440000        0.9877440000        0.0461460000    0   0   0
C             0.4519150000        0.9702020000        0.6503710000    0   0   0
C             0.2025200000        0.0283530000        0.1498930000    0   0   0
C             0.2081810000        0.5297040000        0.5263840000    0   0   0
C             0.4585450000        0.4714090000        0.0279040000    0   0   0
C             0.2451370000        0.6133310000        0.6064350000    0   0   0
C             0.4968190000        0.3886770000        0.1086170000    0   0   0
C             0.2494760000        0.8892060000        0.6032030000    0   0   0
C             0.0010690000        0.1122320000        0.1042470000    0   0   0
C             0.4079770000        0.8893830000        0.7275520000    0   0   0
C             0.1599350000        0.1095470000        0.2278120000    0   0   0
C             0.0888620000        0.6089830000        0.7273520000    0   0   0
C             0.3408900000        0.3916330000        0.2293940000    0   0   0
C             0.0469250000        0.5250790000        0.6513120000    0   0   0
C             0.2976580000        0.4747110000        0.1527540000    0   0   0
C             0.1081640000        0.4842700000        0.5501160000    0   0   0
C             0.3578320000        0.5156560000        0.0506380000    0   0   0
C             0.4333100000        0.0993190000        0.4666210000    0   0   0
C             0.1815170000        0.8997200000        0.9656720000    0   0   0
C             0.0673780000        0.3944740000        0.4706760000    0   0   0
C             0.3160430000        0.6041720000        0.9691070000    0   0   0
C             0.7882120000        0.9700500000        0.5219840000    0   0   0
C             0.5383790000        0.0311060000        0.0223080000    0   0   0
C             0.8906340000        0.0117700000        0.5464920000    0   0   0
C             0.6402440000        0.9877440000        0.0461460000    0   0   0
C             0.9519150000        0.9702020000        0.6503710000    0   0   0
C             0.7025200000        0.0283530000        0.1498930000    0   0   0
C             0.7081820000        0.5297040000        0.5263840000    0   0   0
C             0.9585460000        0.4714090000        0.0279040000    0   0   0
C             0.7451370000        0.6133310000        0.6064350000    0   0   0
C             0.9968190000        0.3886770000        0.1086170000    0   0   0
C             0.7494760000        0.8892060000        0.6032030000    0   0   0
C             0.5010690000        0.1122320000        0.1042470000    0   0   0
C             0.9079770000        0.8893830000        0.7275520000    0   0   0
C             0.6599340000        0.1095470000        0.2278120000    0   0   0
C             0.5888620000        0.6089830000        0.7273520000    0   0   0
C             0.8408900000        0.3916330000        0.2293940000    0   0   0
C             0.5469250000        0.5250790000        0.6513120000    0   0   0
C             0.7976580000        0.4747110000        0.1527540000    0   0   0
C             0.6081640000        0.4842700000        0.5501160000    0   0   0
C             0.8578320000        0.5156560000        0.0506380000    0   0   0
C             0.9333100000        0.0993190000        0.4666210000    0   0   0
C             0.6815170000        0.8997200000        0.9656720000    0   0   0
C             0.5673770000        0.3944740000        0.4706760000    0   0   0
C             0.8160430000        0.6041720000        0.9691070000    0   0   0
C             0.5506821427        0.0140068063        0.6882295643
C             0.2964869670        0.9798662674        0.1940070478
C             0.2543575948        0.5239371702        0.4045395875
C             0.5062707328        0.4774291910        0.9066409296
C             0.7451271409       -0.0316584846        0.3957545309
C             0.4693119353        1.0139377697        0.9173231153
C             0.7951874092        0.4843965539        0.4607448568
C             0.7034004666        0.5219688460        0.1931797972
H             0.2371240000        0.9995750000        0.4431130000    0   0   0
H             0.0320630000        0.9988050000        0.6735200000    0   0   0
H             0.0086410000        0.5003970000        0.9505480000    0   0   0
H             0.3226410000        0.6505060000        0.5926350000    0   0   0
H             0.0749680000        0.3528510000        0.0950280000    0   0   0
H             0.1701540000        0.8551230000        0.5885600000    0   0   0
H             0.4223220000        0.1477320000        0.0898860000    0   0   0
H             0.4533700000        0.8551730000        0.8087610000    0   0   0
H             0.2062390000        0.1431030000        0.3087970000    0   0   0
H             0.0437290000        0.6429440000        0.8066080000    0   0   0
H             0.2963780000        0.3575260000        0.3090510000    0   0   0
H             0.4686720000        0.4932310000        0.6735020000    0   0   0
H             0.2189520000        0.5052010000        0.1752640000    0   0   0
H             0.9865380000        0.0026920000        0.9434990000    0   0   0
H             0.7823400000        0.9986650000        0.1726020000    0   0   0
H             0.8226410000        0.6505060000        0.5926350000    0   0   0
H             0.5749680000        0.3528510000        0.0950280000    0   0   0
H             0.6701540000        0.8551230000        0.5885600000    0   0   0
H             0.9223220000        0.1477320000        0.0898860000    0   0   0
H             0.9533700000        0.8551730000        0.8087610000    0   0   0
H             0.7062400000        0.1431030000        0.3087970000    0   0   0
H             0.5437290000        0.6429440000        0.8066080000    0   0   0
H             0.7963780000        0.3575260000        0.3090510000    0   0   0
H             0.9686720000        0.4932310000        0.6735020000    0   0   0
H             0.5723822509        0.1073211312        0.5567548230
H             0.3194414180        0.8910363472        0.0554641235
H             0.2071632015        0.4731578196        0.3393036727
H             0.4581098435        0.5256987301        0.8396647576
H             0.7945331438        0.0148545512        0.3312084324
H             0.5060993555        0.9542700387        0.8568143746
H             0.7998126503        0.3977378027        0.4626379715
H             0.6795035151        0.6130307243        0.0545135253
N             0.3084370000        0.8512530000        0.7048280000    0   0   0
N             0.0607290000        0.1488570000        0.2060520000    0   0   0
N             0.1865420000        0.6503100000        0.7058380000    0   0   0
N             0.4388100000        0.3509280000        0.2080410000    0   0   0
N             0.8084370000        0.8512530000        0.7048280000    0   0   0
N             0.5607290000        0.1488570000        0.2060520000    0   0   0
N             0.6865430000        0.6503100000        0.7058380000    0   0   0
N             0.9388100000        0.3509280000        0.2080410000    0   0   0
Ni            0.2470020000        0.7514860000        0.8363260000    0   0   0
Ni            0.4999720000        0.2479990000        0.3391780000    0   0   0
Ni            0.7470020000        0.7514860000        0.8363260000    0   0   0
Ni            0.9999720000        0.2479990000        0.3391780000    0   0   0
O             0.1227780000        0.3476890000        0.3828730000    0   0   0
O             0.3712080000        0.6509770000        0.8812920000    0   0   0
O             0.3776300000        0.1475070000        0.3771780000    0   0   0
O             0.1250980000        0.8523520000        0.8762610000    0   0   0
O             0.4730690000        0.3561600000        0.4829940000    0   0   0
O             0.2211370000        0.6414150000        0.9798770000    0   0   0
O             0.0288400000        0.1351580000        0.4810780000    0   0   0
O             0.2766860000        0.8627580000        0.9793990000    0   0   0
O             0.6227790000        0.3476890000        0.3828730000    0   0   0
O             0.8712080000        0.6509770000        0.8812920000    0   0   0
O             0.8776300000        0.1475070000        0.3771780000    0   0   0
O             0.6250980000        0.8523520000        0.8762610000    0   0   0
O             0.9730690000        0.3561600000        0.4829940000    0   0   0
O             0.7211370000        0.6414150000        0.9798770000    0   0   0
O             0.5288400000        0.1351580000        0.4810780000    0   0   0
O             0.7766860000        0.8627580000        0.9793990000    0   0   0
S             0.6515129245        1.0776906651        0.7302319599
S             0.3906593872       -0.0855896459        0.2490327366
S             0.3558226902        0.5921167334        0.3494716361
S             0.6115530828        0.4131742705        0.8545699542
S             0.6478229580        0.8936015127        0.3361499815
S             0.3587926969        0.0768564349        0.8762176899
S             0.8931814656        0.5561846255        0.4016817388
S             0.6087697849        0.5848047963        0.2464651935
End final coordinates



     Writing output data file /nfs/hpc/share/gantzlen/NiPyC2_relax_sc211_meta_functionalized_CH-S_pbesol_relax_frozen_parent_atoms.save/
 
     init_run     :     92.26s CPU     97.83s WALL (       1 calls)
     electrons    : 102257.20s CPU 111480.76s WALL (      64 calls)
     update_pot   :   1009.62s CPU   1055.84s WALL (      63 calls)
     forces       :   2580.80s CPU   2720.52s WALL (      64 calls)

     Called by init_run:
     wfcinit      :     74.37s CPU     79.44s WALL (       1 calls)
     potinit      :      7.64s CPU      8.04s WALL (       1 calls)
     hinit0       :      7.46s CPU      7.54s WALL (       1 calls)

     Called by electrons:
     c_bands      :  96014.66s CPU 104111.28s WALL (     679 calls)
     sum_band     :   4030.89s CPU   4701.96s WALL (     679 calls)
     v_of_rho     :   1095.57s CPU   1245.56s WALL (     724 calls)
     mix_rho      :   1118.89s CPU   1348.63s WALL (     679 calls)

     Called by c_bands:
     init_us_2    :     80.32s CPU     82.13s WALL (    1359 calls)
     regterg      :  95632.36s CPU 102795.80s WALL (     679 calls)

     Called by sum_band:

     Called by *egterg:
     h_psi        :  35190.11s CPU  38756.58s WALL (    2417 calls)
     g_psi        :     21.76s CPU     22.15s WALL (    1737 calls)
     rdiaghg      :   2445.43s CPU   2473.39s WALL (    2334 calls)

     Called by h_psi:
     h_psi:calbec :  10468.06s CPU  11325.17s WALL (    2417 calls)
     vloc_psi     :  14388.72s CPU  17068.87s WALL (    2417 calls)
     add_vuspsi   :  10252.28s CPU  10280.41s WALL (    2417 calls)

     General routines
     calbec       :  12230.03s CPU  13181.32s WALL (    2673 calls)
     fft          :    800.95s CPU    990.59s WALL (   11601 calls)
     ffts         :    789.63s CPU    957.43s WALL (   11488 calls)
     fftw         :  15368.43s CPU  18567.06s WALL (  551177 calls)
 
     Parallel routines
     fft_scatt_xy :   3239.43s CPU   3336.55s WALL (  574266 calls)
     fft_scatt_yz :   4269.28s CPU   7465.30s WALL (  574266 calls)
 
     PWSCF        :   1d 5h26m CPU   1d 8h 3m WALL

 
   This run was terminated on:  19: 9: 4   6Jul2020            

=------------------------------------------------------------------------------=
   JOB DONE.
=------------------------------------------------------------------------------=
QE finished Mon Jul 6 19:09:04 PDT 2020
