/apps/openmpi/3.1_intel-19/bin/mpiexec
starting QE Wed Jul 8 10:22:15 PDT 2020

     Program PWSCF v.6.5 starts on  8Jul2020 at 10:22:16 

     This program is part of the open-source Quantum ESPRESSO suite
     for quantum simulation of materials; please cite
         "P. Giannozzi et al., J. Phys.:Condens. Matter 21 395502 (2009);
         "P. Giannozzi et al., J. Phys.:Condens. Matter 29 465901 (2017);
          URL http://www.quantum-espresso.org", 
     in publications or presentations arising from this work. More details at
     http://www.quantum-espresso.org/quote

     Parallel version (MPI), running on    16 processors

     MPI processes distributed on     1 nodes
     K-points division:     npool     =       2
     R & G space division:  proc/nbgrp/npool/nimage =       8
     Reading input from ./QE_input_scripts/pw.NiPyC2_relax_sc211_meta_functionalized_O-CH3_pbesol_relax_frozen_parent_atoms_Round2.in
Warning: card &CELL ignored
Warning: card    CELL_DYNAMICS = 'BFGS' ignored
Warning: card    CELL_DOFREE = 'XYZ' ignored
Warning: card / ignored

     Current dimensions of program PWSCF are:
     Max number of different atomic species (ntypx) = 10
     Max number of k-points (npk) =  40000
     Max angular momentum in pseudopotentials (lmaxx) =  3

     -------------------------------------------------
     Parameters for Dispersion (Grimme-D2) Correction:
     -------------------------------------------------
       atom      VdW radius       C_6     

        C          2.744         60.710
        H          1.892          4.857
        N          2.640         42.670
        Ni         2.952        374.666
        O          2.536         24.284

     gamma-point specific algorithms are used

     Subspace diagonalization in iterative solution of the eigenvalue problem:
     a serial algorithm will be used

 
     Parallelization info
     --------------------
     sticks:   dense  smooth     PW     G-vecs:    dense   smooth      PW
     Min        2228    2228    556               183376   183376   22914
     Max        2230    2230    558               183380   183380   22917
     Sum       17829   17829   4453              1467017  1467017  183325
 


     bravais-lattice index     =            0
     lattice parameter (alat)  =      23.6322  a.u.
     unit-cell volume          =   10858.6596 (a.u.)^3
     number of atoms/cell      =          140
     number of atomic types    =            5
     number of electrons       =       496.00 (up: 252.00, down: 244.00)
     number of Kohn-Sham states=          302
     kinetic-energy cutoff     =     100.0000  Ry
     charge density cutoff     =     400.0000  Ry
     convergence threshold     =      1.0E-06
     mixing beta               =       0.7000
     number of iterations used =            8  local-TF  mixing
     Exchange-correlation= PBESOL
                           (   1   4  10   8   0   0   0)
     nstep                     =          200


     celldm(1)=  23.632191  celldm(2)=   0.000000  celldm(3)=   0.000000
     celldm(4)=   0.000000  celldm(5)=   0.000000  celldm(6)=   0.000000

     crystal axes: (cart. coord. in units of alat)
               a(1) = (   1.000000   0.000000   0.000000 )  
               a(2) = (   0.000000   1.001423   0.000000 )  
               a(3) = (  -0.018199   0.000000   0.821574 )  

     reciprocal axes: (cart. coord. in units 2 pi/alat)
               b(1) = (  1.000000  0.000000  0.022151 )  
               b(2) = (  0.000000  0.998579  0.000000 )  
               b(3) = (  0.000000  0.000000  1.217176 )  


     PseudoPot. # 1 for C  read from file:
     ./pseudo/C.pbesol-nc.UPF
     MD5 check sum: ce26087537ded160c8d400e183a8bf42
     Pseudo is Norm-conserving, Zval =  4.0
     Generated using "atomic" code by A. Dal Corso v.6.5
     Using radial grid of 1073 points,  1 beta functions with: 
                l(1) =   1

     PseudoPot. # 2 for H  read from file:
     ./pseudo/H.pbesol-n-nc.UPF
     MD5 check sum: 7995ef24074557c85b430109caaacc09
     Pseudo is Norm-conserving, Zval =  1.0
     Generated using "atomic" code by A. Dal Corso v.6.5
     Using radial grid of  929 points,  0 beta functions with: 

     PseudoPot. # 3 for N  read from file:
     ./pseudo/N.pbesol-nc.UPF
     MD5 check sum: e18cc5e4b8a5600c1a19b30c2cab1ca0
     Pseudo is Norm-conserving, Zval =  5.0
     Generated using "atomic" code by A. Dal Corso v.6.5
     Using radial grid of 1085 points,  1 beta functions with: 
                l(1) =   1

     PseudoPot. # 4 for Ni read from file:
     ./pseudo/Ni.pbesol-n-nc.UPF
     MD5 check sum: 623411631e0c2eb7c0b2b9815547d2d9
     Pseudo is Norm-conserving + core correction, Zval = 10.0
     Generated using "atomic" code by A. Dal Corso v.6.5
     Using radial grid of 1195 points,  2 beta functions with: 
                l(1) =   1
                l(2) =   2

     PseudoPot. # 5 for O  read from file:
     ./pseudo/O.pbesol-nc.UPF
     MD5 check sum: 73d10e7e91dbfcbe8a7e362101007f84
     Pseudo is Norm-conserving, Zval =  6.0
     Generated using "atomic" code by A. Dal Corso v.6.5
     Using radial grid of 1095 points,  1 beta functions with: 
                l(1) =   1

     atomic species   valence    mass     pseudopotential
        C              4.00    12.01070     C ( 1.00)
        H              1.00     1.00794     H ( 1.00)
        N              5.00    14.00670     N ( 1.00)
        Ni            10.00    58.69340     Ni( 1.00)
        O              6.00    15.99940     O ( 1.00)

     Starting magnetic structure 
     atomic species   magnetization
        C            0.000
        H            0.000
        N            0.000
        Ni           0.250
        O            0.000

     No symmetry found



   Cartesian axes

     site n.     atom                  positions (alat units)
         1           C   tau(   1) = (   0.2787124   0.9714303   0.4288485  )
         2           C   tau(   2) = (   0.0379730   0.0311503   0.0183277  )
         3           C   tau(   3) = (   0.3806884   0.0117867   0.4489836  )
         4           C   tau(   4) = (   0.1394042   0.9891495   0.0379124  )
         5           C   tau(   5) = (   0.4400789   0.9715826   0.5343279  )
         6           C   tau(   6) = (   0.1997921   0.0283933   0.1231482  )
         7           C   tau(   7) = (   0.1986013   0.5304577   0.4324634  )
         8           C   tau(   8) = (   0.4580372   0.4720798   0.0229252  )
         9           C   tau(   9) = (   0.2341005   0.6142037   0.4982312  )
        10           C   tau(  10) = (   0.4948423   0.3892301   0.0892369  )
        11           C   tau(  11) = (   0.2384983   0.8904713   0.4955759  )
        12           C   tau(  12) = (  -0.0008282   0.1123917   0.0856466  )
        13           C   tau(  13) = (   0.3947363   0.8906486   0.5977378  )
        14           C   tau(  14) = (   0.1557890   0.1097029   0.1871644  )
        15           C   tau(  15) = (   0.0756249   0.6098496   0.5975735  )
        16           C   tau(  16) = (   0.3367153   0.3921903   0.1884642  )
        17           C   tau(  17) = (   0.0350718   0.5258262   0.5351010  )
        18           C   tau(  18) = (   0.2948780   0.4753865   0.1254987  )
        19           C   tau(  19) = (   0.0981524   0.4849591   0.4519610  )
        20           C   tau(  20) = (   0.3569104   0.5163898   0.0416029  )
        21           C   tau(  21) = (   0.4248180   0.0994603   0.3833637  )
        22           C   tau(  22) = (   0.1639427   0.9010003   0.7933710  )
        23           C   tau(  23) = (   0.0588122   0.3950353   0.3866952  )
        24           C   tau(  24) = (   0.2984062   0.6050317   0.7961931  )
        25           C   tau(  25) = (   0.7787124   0.9714303   0.4288485  )
        26           C   tau(  26) = (   0.5379730   0.0311503   0.0183277  )
        27           C   tau(  27) = (   0.8806884   0.0117867   0.4489836  )
        28           C   tau(  28) = (   0.6394042   0.9891495   0.0379124  )
        29           C   tau(  29) = (   0.9400789   0.9715826   0.5343279  )
        30           C   tau(  30) = (   0.6997921   0.0283933   0.1231482  )
        31           C   tau(  31) = (   0.6986023   0.5304577   0.4324634  )
        32           C   tau(  32) = (   0.9580382   0.4720798   0.0229252  )
        33           C   tau(  33) = (   0.7341005   0.6142037   0.4982312  )
        34           C   tau(  34) = (   0.9948423   0.3892301   0.0892369  )
        35           C   tau(  35) = (   0.7384983   0.8904713   0.4955759  )
        36           C   tau(  36) = (   0.4991718   0.1123917   0.0856466  )
        37           C   tau(  37) = (   0.8947363   0.8906486   0.5977378  )
        38           C   tau(  38) = (   0.6557880   0.1097029   0.1871644  )
        39           C   tau(  39) = (   0.5756249   0.6098496   0.5975735  )
        40           C   tau(  40) = (   0.8367153   0.3921903   0.1884642  )
        41           C   tau(  41) = (   0.5350718   0.5258262   0.5351010  )
        42           C   tau(  42) = (   0.7948780   0.4753865   0.1254987  )
        43           C   tau(  43) = (   0.5981524   0.4849591   0.4519610  )
        44           C   tau(  44) = (   0.8569104   0.5163898   0.0416029  )
        45           C   tau(  45) = (   0.9248180   0.0994603   0.3833637  )
        46           C   tau(  46) = (   0.6639427   0.9010003   0.7933710  )
        47           C   tau(  47) = (   0.5588112   0.3950353   0.3866952  )
        48           C   tau(  48) = (   0.7984062   0.6050317   0.7961931  )
        49           C   tau(  49) = (   0.5624612   0.1106372   0.5945813  )
        50           C   tau(  50) = (   0.8709513   0.0785847   0.7325376  )
        51           C   tau(  51) = (   0.3522110   0.5739986   0.3316259  )
        52           C   tau(  52) = (   0.5880235   0.4222310   0.7383050  )
        53           C   tau(  53) = (   0.6259649   0.9297461   0.3253573  )
        54           C   tau(  54) = (   0.8383198   0.8992187   0.1763426  )
        55           C   tau(  55) = (   0.8564987   0.5664909   0.3360657  )
        56           C   tau(  56) = (   0.6572798   0.6085016   0.1752565  )
        57           H   tau(  57) = (   0.2290598   1.0009974   0.3640501  )
        58           H   tau(  58) = (   0.4693672   0.0026958   0.7751543  )
        59           H   tau(  59) = (   0.0198056   1.0002263   0.5533465  )
        60           H   tau(  60) = (   0.2791988   1.0000861   0.1418053  )
        61           H   tau(  61) = (  -0.0086580   0.5011090   0.7809455  )
        62           H   tau(  62) = (   0.3118556   0.6514316   0.4868935  )
        63           H   tau(  63) = (   0.0732386   0.3533531   0.0780725  )
        64           H   tau(  64) = (   0.1594428   0.8563398   0.4835456  )
        65           H   tau(  65) = (   0.4206862   0.1479422   0.0738480  )
        66           H   tau(  66) = (   0.4386513   0.8563899   0.6644570  )
        67           H   tau(  67) = (   0.2006192   0.1433066   0.2536996  )
        68           H   tau(  68) = (   0.0290495   0.6438589   0.6626882  )
        69           H   tau(  69) = (   0.2907536   0.3580347   0.2539083  )
        70           H   tau(  70) = (   0.4564149   0.4939328   0.5533317  )
        71           H   tau(  71) = (   0.2157624   0.5059199   0.1439923  )
        72           H   tau(  72) = (   0.8118556   0.6514316   0.4868935  )
        73           H   tau(  73) = (   0.5732386   0.3533531   0.0780725  )
        74           H   tau(  74) = (   0.6594428   0.8563398   0.4835456  )
        75           H   tau(  75) = (   0.9206862   0.1479422   0.0738480  )
        76           H   tau(  76) = (   0.9386513   0.8563899   0.6644570  )
        77           H   tau(  77) = (   0.7006202   0.1433066   0.2536996  )
        78           H   tau(  78) = (   0.5290495   0.6438589   0.6626882  )
        79           H   tau(  79) = (   0.7907536   0.3580347   0.2539083  )
        80           H   tau(  80) = (   0.9564149   0.4939328   0.5533317  )
        81           H   tau(  81) = (   0.6306464   0.1352442   0.5456821  )
        82           H   tau(  82) = (   0.4933810   0.1630317   0.5842057  )
        83           H   tau(  83) = (   0.5876025   0.1070211   0.6789857  )
        84           H   tau(  84) = (   0.8390761   0.0528691   0.6561632  )
        85           H   tau(  85) = (   0.8109544   0.0661530   0.7947414  )
        86           H   tau(  86) = (   0.8972102   0.1619701   0.7280238  )
        87           H   tau(  87) = (   0.3901223   0.5439669   0.2597431  )
        88           H   tau(  88) = (   0.3268761   0.6571037   0.3202471  )
        89           H   tau(  89) = (   0.4078397   0.5655096   0.3986326  )
        90           H   tau(  90) = (   0.6216795   0.4478674   0.6626430  )
        91           H   tau(  91) = (   0.5592937   0.3396727   0.7323388  )
        92           H   tau(  92) = (   0.6479764   0.4317976   0.8010610  )
        93           H   tau(  93) = (   0.5902352   0.9597718   0.2522569  )
        94           H   tau(  94) = (   0.5675193   0.9369564   0.3897145  )
        95           H   tau(  95) = (   0.6531654   0.8470786   0.3153135  )
        96           H   tau(  96) = (   0.9017677   0.8781438   0.1200952  )
        97           H   tau(  97) = (   0.8730575   0.9087653   0.2565751  )
        98           H   tau(  98) = (   0.7732432   0.8411002   0.1757790  )
        99           H   tau(  99) = (   0.8982021   0.5307852   0.2689160  )
       100           H   tau( 100) = (   0.8295806   0.6478055   0.3174266  )
       101           H   tau( 101) = (   0.9105266   0.5655716   0.4048224  )
       102           H   tau( 102) = (   0.5933427   0.6264471   0.1184241  )
       103           H   tau( 103) = (   0.7218723   0.6669807   0.1709441  )
       104           H   tau( 104) = (   0.6232960   0.6036227   0.2562383  )
       105           N   tau( 105) = (   0.2956098   0.8524643   0.5790684  )
       106           N   tau( 106) = (   0.0569791   0.1490688   0.1692870  )
       107           N   tau( 107) = (   0.1736964   0.6512354   0.5798982  )
       108           N   tau( 108) = (   0.4350239   0.3514274   0.1709211  )
       109           N   tau( 109) = (   0.7956098   0.8524643   0.5790684  )
       110           N   tau( 110) = (   0.5569791   0.1490688   0.1692870  )
       111           N   tau( 111) = (   0.6736974   0.6512354   0.5798982  )
       112           N   tau( 112) = (   0.9350239   0.3514274   0.1709211  )
       113           Ni  tau( 113) = (   0.2317817   0.7525553   0.6871037  )
       114           Ni  tau( 114) = (   0.4937993   0.2483519   0.2786598  )
       115           Ni  tau( 115) = (   0.7317817   0.7525553   0.6871037  )
       116           Ni  tau( 116) = (   0.9937993   0.2483519   0.2786598  )
       117           O   tau( 117) = (   0.1158101   0.3481837   0.3145585  )
       118           O   tau( 118) = (   0.3551693   0.6519033   0.7240466  )
       119           O   tau( 119) = (   0.3707657   0.1477169   0.3098796  )
       120           O   tau( 120) = (   0.1091509   0.8535649   0.7199133  )
       121           O   tau( 121) = (   0.4642790   0.3566668   0.3968153  )
       122           O   tau( 122) = (   0.2033042   0.6423277   0.8050415  )
       123           O   tau( 123) = (   0.0200849   0.1353503   0.3952412  )
       124           O   tau( 124) = (   0.2588619   0.8639857   0.8046488  )
       125           O   tau( 125) = (   0.6158111   0.3481837   0.3145585  )
       126           O   tau( 126) = (   0.8551693   0.6519033   0.7240466  )
       127           O   tau( 127) = (   0.8707657   0.1477169   0.3098796  )
       128           O   tau( 128) = (   0.6091509   0.8535649   0.7199133  )
       129           O   tau( 129) = (   0.9642790   0.3566668   0.3968153  )
       130           O   tau( 130) = (   0.7033042   0.6423277   0.8050415  )
       131           O   tau( 131) = (   0.5200849   0.1353503   0.3952412  )
       132           O   tau( 132) = (   0.7588619   0.8639857   0.8046488  )
       133           O   tau( 133) = (   0.5367710   0.0013479   0.5675047  )
       134           O   tau( 134) = (   0.9633165   0.0103177   0.7534269  )
       135           O   tau( 135) = (   0.2583296   0.5071046   0.3488913  )
       136           O   tau( 136) = (   0.4976937   0.4931057   0.7587926  )
       137           O   tau( 137) = (   0.7175711   0.9982755   0.3474239  )
       138           O   tau( 138) = (   0.7999765   0.0029632   0.1486342  )
       139           O   tau( 139) = (   0.7641658   0.4990471   0.3562838  )
       140           O   tau( 140) = (   0.6957013   0.5021505   0.1534741  )

     number of k points=     1  Marzari-Vanderbilt smearing, width (Ry)=  0.2000
                       cart. coord. in units 2pi/alat
        k(    1) = (   0.0000000   0.0000000   0.0000000), wk =   1.0000000

     Dense  grid:   733509 G-vectors     FFT dimensions: ( 160, 160, 125)

     Estimated max dynamical RAM per process >     686.48 MB

     Estimated total dynamical RAM >      10.73 GB
     Generating pointlists ...
     new r_m :   0.0357 (alat units)  0.8446 (a.u.) for type    1
     new r_m :   0.0357 (alat units)  0.8446 (a.u.) for type    2
     new r_m :   0.0445 (alat units)  1.0514 (a.u.) for type    3
     new r_m :   0.0654 (alat units)  1.5454 (a.u.) for type    4
     new r_m :   0.0423 (alat units)  0.9991 (a.u.) for type    5

     Check: negative core charge=   -0.000145

     Initial potential from superposition of free atoms

     starting charge  495.99618, renormalised to  496.00000
     Starting wfcs are  436 randomized atomic wfcs

     total cpu time spent up to now is       45.4 secs

     Self-consistent Calculation

     iteration #  1     ecut=   100.00 Ry     beta= 0.70
     Davidson diagonalization with overlap
     ethr =  1.00E-02,  avg # of iterations =  4.0

     total cpu time spent up to now is      161.9 secs

     total energy              =   -1984.28421474 Ry
     Harris-Foulkes estimate   =   -1992.77016479 Ry
     estimated scf accuracy    <      21.78195847 Ry

     total magnetization       =     8.00 Bohr mag/cell
     absolute magnetization    =     8.69 Bohr mag/cell

     iteration #  2     ecut=   100.00 Ry     beta= 0.70
     Davidson diagonalization with overlap
     ethr =  4.39E-03,  avg # of iterations =  2.0

     total cpu time spent up to now is      230.8 secs

     total energy              =   -1987.26369165 Ry
     Harris-Foulkes estimate   =   -1991.22546555 Ry
     estimated scf accuracy    <      19.21352028 Ry

     total magnetization       =     8.00 Bohr mag/cell
     absolute magnetization    =     8.38 Bohr mag/cell

     iteration #  3     ecut=   100.00 Ry     beta= 0.70
     Davidson diagonalization with overlap
     ethr =  3.87E-03,  avg # of iterations =  1.0

     total cpu time spent up to now is      293.7 secs

     total energy              =   -1987.23606909 Ry
     Harris-Foulkes estimate   =   -1988.14253601 Ry
     estimated scf accuracy    <       2.58408877 Ry

     total magnetization       =     8.00 Bohr mag/cell
     absolute magnetization    =     8.25 Bohr mag/cell

     iteration #  4     ecut=   100.00 Ry     beta= 0.70
     Davidson diagonalization with overlap
     ethr =  5.21E-04,  avg # of iterations =  7.0

     total cpu time spent up to now is      379.3 secs

     total energy              =   -1987.11014071 Ry
     Harris-Foulkes estimate   =   -1988.06473542 Ry
     estimated scf accuracy    <       8.43736730 Ry

     total magnetization       =     8.00 Bohr mag/cell
     absolute magnetization    =     8.32 Bohr mag/cell

     iteration #  5     ecut=   100.00 Ry     beta= 0.70
     Davidson diagonalization with overlap
     ethr =  5.21E-04,  avg # of iterations =  1.5

     total cpu time spent up to now is      443.9 secs

     total energy              =   -1987.54451335 Ry
     Harris-Foulkes estimate   =   -1987.60685821 Ry
     estimated scf accuracy    <       0.40921718 Ry

     total magnetization       =     8.00 Bohr mag/cell
     absolute magnetization    =     8.27 Bohr mag/cell

     iteration #  6     ecut=   100.00 Ry     beta= 0.70
     Davidson diagonalization with overlap
     ethr =  8.25E-05,  avg # of iterations =  4.5

     total cpu time spent up to now is      511.8 secs

     total energy              =   -1987.53416669 Ry
     Harris-Foulkes estimate   =   -1987.60753324 Ry
     estimated scf accuracy    <       1.27270764 Ry

     total magnetization       =     8.00 Bohr mag/cell
     absolute magnetization    =     8.27 Bohr mag/cell

     iteration #  7     ecut=   100.00 Ry     beta= 0.70
     Davidson diagonalization with overlap
     ethr =  8.25E-05,  avg # of iterations =  1.0

     total cpu time spent up to now is      575.7 secs

     total energy              =   -1987.44646043 Ry
     Harris-Foulkes estimate   =   -1987.56372679 Ry
     estimated scf accuracy    <       0.64165072 Ry

     total magnetization       =     8.00 Bohr mag/cell
     absolute magnetization    =     8.28 Bohr mag/cell

     iteration #  8     ecut=   100.00 Ry     beta= 0.70
     Davidson diagonalization with overlap
     ethr =  8.25E-05,  avg # of iterations =  2.0

     total cpu time spent up to now is      638.8 secs

     total energy              =   -1987.50600691 Ry
     Harris-Foulkes estimate   =   -1987.52114829 Ry
     estimated scf accuracy    <       0.28409134 Ry

     total magnetization       =     8.00 Bohr mag/cell
     absolute magnetization    =     8.29 Bohr mag/cell

     iteration #  9     ecut=   100.00 Ry     beta= 0.70
     Davidson diagonalization with overlap
     ethr =  5.73E-05,  avg # of iterations =  1.0

     total cpu time spent up to now is      702.7 secs

     total energy              =   -1987.49130717 Ry
     Harris-Foulkes estimate   =   -1987.51605534 Ry
     estimated scf accuracy    <       0.23421979 Ry

     total magnetization       =     8.00 Bohr mag/cell
     absolute magnetization    =     8.29 Bohr mag/cell

     iteration # 10     ecut=   100.00 Ry     beta= 0.70
     Davidson diagonalization with overlap
     ethr =  4.72E-05,  avg # of iterations =  4.0

     total cpu time spent up to now is      767.9 secs

     total energy              =   -1987.50691962 Ry
     Harris-Foulkes estimate   =   -1987.50991899 Ry
     estimated scf accuracy    <       0.06095081 Ry

     total magnetization       =     8.00 Bohr mag/cell
     absolute magnetization    =     8.27 Bohr mag/cell

     iteration # 11     ecut=   100.00 Ry     beta= 0.70
     Davidson diagonalization with overlap
     ethr =  1.23E-05,  avg # of iterations =  9.5

     total cpu time spent up to now is      847.1 secs

     total energy              =   -1987.50982469 Ry
     Harris-Foulkes estimate   =   -1987.50962333 Ry
     estimated scf accuracy    <       0.00991516 Ry

     total magnetization       =     8.00 Bohr mag/cell
     absolute magnetization    =     8.26 Bohr mag/cell

     iteration # 12     ecut=   100.00 Ry     beta= 0.70
     Davidson diagonalization with overlap
     ethr =  2.00E-06,  avg # of iterations =  5.0

     total cpu time spent up to now is      920.9 secs

     total energy              =   -1987.51006299 Ry
     Harris-Foulkes estimate   =   -1987.51079120 Ry
     estimated scf accuracy    <       0.01347152 Ry

     total magnetization       =     8.00 Bohr mag/cell
     absolute magnetization    =     8.26 Bohr mag/cell

     iteration # 13     ecut=   100.00 Ry     beta= 0.70
     Davidson diagonalization with overlap
     ethr =  2.00E-06,  avg # of iterations =  2.0

     total cpu time spent up to now is      984.9 secs

     total energy              =   -1987.51127498 Ry
     Harris-Foulkes estimate   =   -1987.51101043 Ry
     estimated scf accuracy    <       0.00596584 Ry

     total magnetization       =     8.00 Bohr mag/cell
     absolute magnetization    =     8.25 Bohr mag/cell

     iteration # 14     ecut=   100.00 Ry     beta= 0.70
     Davidson diagonalization with overlap
     ethr =  1.20E-06,  avg # of iterations =  2.5

     total cpu time spent up to now is     1051.6 secs

     total energy              =   -1987.51182225 Ry
     Harris-Foulkes estimate   =   -1987.51149273 Ry
     estimated scf accuracy    <       0.00100391 Ry

     total magnetization       =     8.00 Bohr mag/cell
     absolute magnetization    =     8.25 Bohr mag/cell

     iteration # 15     ecut=   100.00 Ry     beta= 0.70
     Davidson diagonalization with overlap
     ethr =  2.02E-07,  avg # of iterations =  3.5

     total cpu time spent up to now is     1120.5 secs

     total energy              =   -1987.51192142 Ry
     Harris-Foulkes estimate   =   -1987.51186688 Ry
     estimated scf accuracy    <       0.00044756 Ry

     total magnetization       =     8.00 Bohr mag/cell
     absolute magnetization    =     8.25 Bohr mag/cell

     iteration # 16     ecut=   100.00 Ry     beta= 0.70
     Davidson diagonalization with overlap
     ethr =  9.02E-08,  avg # of iterations =  2.5

     total cpu time spent up to now is     1185.4 secs

     total energy              =   -1987.51192416 Ry
     Harris-Foulkes estimate   =   -1987.51196170 Ry
     estimated scf accuracy    <       0.00045733 Ry

     total magnetization       =     8.00 Bohr mag/cell
     absolute magnetization    =     8.25 Bohr mag/cell

     iteration # 17     ecut=   100.00 Ry     beta= 0.70
     Davidson diagonalization with overlap
     ethr =  9.02E-08,  avg # of iterations =  1.0

     total cpu time spent up to now is     1250.8 secs

     total energy              =   -1987.51194555 Ry
     Harris-Foulkes estimate   =   -1987.51196107 Ry
     estimated scf accuracy    <       0.00038277 Ry

     total magnetization       =     8.00 Bohr mag/cell
     absolute magnetization    =     8.25 Bohr mag/cell

     iteration # 18     ecut=   100.00 Ry     beta= 0.70
     Davidson diagonalization with overlap
     ethr =  7.72E-08,  avg # of iterations =  2.5

     total cpu time spent up to now is     1315.1 secs

     total energy              =   -1987.51195024 Ry
     Harris-Foulkes estimate   =   -1987.51195756 Ry
     estimated scf accuracy    <       0.00009803 Ry

     total magnetization       =     8.00 Bohr mag/cell
     absolute magnetization    =     8.25 Bohr mag/cell

     iteration # 19     ecut=   100.00 Ry     beta= 0.70
     Davidson diagonalization with overlap
     ethr =  1.98E-08,  avg # of iterations =  1.5

     total cpu time spent up to now is     1378.9 secs

     total energy              =   -1987.51195161 Ry
     Harris-Foulkes estimate   =   -1987.51196488 Ry
     estimated scf accuracy    <       0.00025686 Ry

     total magnetization       =     8.00 Bohr mag/cell
     absolute magnetization    =     8.25 Bohr mag/cell

     iteration # 20     ecut=   100.00 Ry     beta= 0.70
     Davidson diagonalization with overlap
     ethr =  1.98E-08,  avg # of iterations =  1.5

     total cpu time spent up to now is     1442.9 secs

     total energy              =   -1987.51196238 Ry
     Harris-Foulkes estimate   =   -1987.51196220 Ry
     estimated scf accuracy    <       0.00003685 Ry

     total magnetization       =     8.00 Bohr mag/cell
     absolute magnetization    =     8.25 Bohr mag/cell

     iteration # 21     ecut=   100.00 Ry     beta= 0.70
     Davidson diagonalization with overlap
     ethr =  7.43E-09,  avg # of iterations =  3.0

     total cpu time spent up to now is     1509.4 secs

     total energy              =   -1987.51196359 Ry
     Harris-Foulkes estimate   =   -1987.51196361 Ry
     estimated scf accuracy    <       0.00001441 Ry

     total magnetization       =     8.00 Bohr mag/cell
     absolute magnetization    =     8.25 Bohr mag/cell

     iteration # 22     ecut=   100.00 Ry     beta= 0.70
     Davidson diagonalization with overlap
     ethr =  2.91E-09,  avg # of iterations =  2.5

     total cpu time spent up to now is     1570.9 secs

     total energy              =   -1987.51196454 Ry
     Harris-Foulkes estimate   =   -1987.51196418 Ry
     estimated scf accuracy    <       0.00000811 Ry

     total magnetization       =     8.00 Bohr mag/cell
     absolute magnetization    =     8.25 Bohr mag/cell

     iteration # 23     ecut=   100.00 Ry     beta= 0.70
     Davidson diagonalization with overlap
     ethr =  1.64E-09,  avg # of iterations =  2.5

     total cpu time spent up to now is     1635.7 secs

     total energy              =   -1987.51196407 Ry
     Harris-Foulkes estimate   =   -1987.51196530 Ry
     estimated scf accuracy    <       0.00001406 Ry

     total magnetization       =     8.00 Bohr mag/cell
     absolute magnetization    =     8.25 Bohr mag/cell

     iteration # 24     ecut=   100.00 Ry     beta= 0.70
     Davidson diagonalization with overlap
     ethr =  1.64E-09,  avg # of iterations =  1.5

     total cpu time spent up to now is     1697.1 secs

     total energy              =   -1987.51196474 Ry
     Harris-Foulkes estimate   =   -1987.51196500 Ry
     estimated scf accuracy    <       0.00000436 Ry

     total magnetization       =     8.00 Bohr mag/cell
     absolute magnetization    =     8.25 Bohr mag/cell

     iteration # 25     ecut=   100.00 Ry     beta= 0.70
     Davidson diagonalization with overlap
     ethr =  8.79E-10,  avg # of iterations =  1.5

     total cpu time spent up to now is     1760.8 secs

     total energy              =   -1987.51196482 Ry
     Harris-Foulkes estimate   =   -1987.51196505 Ry
     estimated scf accuracy    <       0.00000275 Ry

     total magnetization       =     8.00 Bohr mag/cell
     absolute magnetization    =     8.25 Bohr mag/cell

     iteration # 26     ecut=   100.00 Ry     beta= 0.70
     Davidson diagonalization with overlap
     ethr =  5.54E-10,  avg # of iterations =  1.5
 
     Magnetic moment per site:
     atom:    1    charge:    0.8405    magn:    0.0047    constr:    0.0000
     atom:    2    charge:    0.8376    magn:    0.0021    constr:    0.0000
     atom:    3    charge:    0.8461    magn:    0.0060    constr:    0.0000
     atom:    4    charge:    0.8456    magn:    0.0064    constr:    0.0000
     atom:    5    charge:    0.8315    magn:    0.0037    constr:    0.0000
     atom:    6    charge:    0.8421    magn:    0.0045    constr:    0.0000
     atom:    7    charge:    0.8385    magn:    0.0017    constr:    0.0000
     atom:    8    charge:    0.8372    magn:    0.0020    constr:    0.0000
     atom:    9    charge:    0.8414    magn:    0.0088    constr:    0.0000
     atom:   10    charge:    0.8401    magn:    0.0089    constr:    0.0000
     atom:   11    charge:    0.8337    magn:    0.0055    constr:    0.0000
     atom:   12    charge:    0.8403    magn:    0.0089    constr:    0.0000
     atom:   13    charge:    0.8402    magn:    0.0076    constr:    0.0000
     atom:   14    charge:    0.8352    magn:    0.0062    constr:    0.0000
     atom:   15    charge:    0.8357    magn:    0.0060    constr:    0.0000
     atom:   16    charge:    0.8363    magn:    0.0069    constr:    0.0000
     atom:   17    charge:    0.8418    magn:    0.0042    constr:    0.0000
     atom:   18    charge:    0.8419    magn:    0.0054    constr:    0.0000
     atom:   19    charge:    0.8481    magn:    0.0064    constr:    0.0000
     atom:   20    charge:    0.8460    magn:    0.0063    constr:    0.0000
     atom:   21    charge:    0.8182    magn:   -0.0016    constr:    0.0000
     atom:   22    charge:    0.8183    magn:   -0.0019    constr:    0.0000
     atom:   23    charge:    0.8185    magn:   -0.0018    constr:    0.0000
     atom:   24    charge:    0.8188    magn:   -0.0020    constr:    0.0000
     atom:   25    charge:    0.8375    magn:    0.0020    constr:    0.0000
     atom:   26    charge:    0.8413    magn:    0.0046    constr:    0.0000
     atom:   27    charge:    0.8465    magn:    0.0061    constr:    0.0000
     atom:   28    charge:    0.8461    magn:    0.0061    constr:    0.0000
     atom:   29    charge:    0.8416    magn:    0.0054    constr:    0.0000
     atom:   30    charge:    0.8340    magn:    0.0043    constr:    0.0000
     atom:   31    charge:    0.8389    magn:    0.0017    constr:    0.0000
     atom:   32    charge:    0.8408    magn:    0.0045    constr:    0.0000
     atom:   33    charge:    0.8416    magn:    0.0087    constr:    0.0000
     atom:   34    charge:    0.8332    magn:    0.0055    constr:    0.0000
     atom:   35    charge:    0.8408    magn:    0.0088    constr:    0.0000
     atom:   36    charge:    0.8338    magn:    0.0056    constr:    0.0000
     atom:   37    charge:    0.8368    magn:    0.0069    constr:    0.0000
     atom:   38    charge:    0.8402    magn:    0.0082    constr:    0.0000
     atom:   39    charge:    0.8367    magn:    0.0068    constr:    0.0000
     atom:   40    charge:    0.8407    magn:    0.0081    constr:    0.0000
     atom:   41    charge:    0.8427    magn:    0.0051    constr:    0.0000
     atom:   42    charge:    0.8326    magn:    0.0040    constr:    0.0000
     atom:   43    charge:    0.8488    magn:    0.0062    constr:    0.0000
     atom:   44    charge:    0.8457    magn:    0.0060    constr:    0.0000
     atom:   45    charge:    0.8178    magn:   -0.0020    constr:    0.0000
     atom:   46    charge:    0.8191    magn:   -0.0016    constr:    0.0000
     atom:   47    charge:    0.8186    magn:   -0.0018    constr:    0.0000
     atom:   48    charge:    0.8193    magn:   -0.0016    constr:    0.0000
     atom:   49    charge:    0.8219    magn:    0.0015    constr:    0.0000
     atom:   50    charge:    0.8280    magn:    0.0006    constr:    0.0000
     atom:   51    charge:    0.8281    magn:    0.0009    constr:    0.0000
     atom:   52    charge:    0.8290    magn:    0.0008    constr:    0.0000
     atom:   53    charge:    0.8280    magn:    0.0002    constr:    0.0000
     atom:   54    charge:    0.8221    magn:    0.0013    constr:    0.0000
     atom:   55    charge:    0.8293    magn:    0.0006    constr:    0.0000
     atom:   56    charge:    0.8223    magn:    0.0011    constr:    0.0000
     atom:   57    charge:    0.4836    magn:   -0.0012    constr:    0.0000
     atom:   58    charge:    0.4834    magn:   -0.0012    constr:    0.0000
     atom:   59    charge:    0.4828    magn:   -0.0014    constr:    0.0000
     atom:   60    charge:    0.4839    magn:   -0.0014    constr:    0.0000
     atom:   61    charge:    0.4834    magn:   -0.0012    constr:    0.0000
     atom:   62    charge:    0.4854    magn:   -0.0009    constr:    0.0000
     atom:   63    charge:    0.4892    magn:   -0.0012    constr:    0.0000
     atom:   64    charge:    0.4891    magn:   -0.0012    constr:    0.0000
     atom:   65    charge:    0.4895    magn:   -0.0012    constr:    0.0000
     atom:   66    charge:    0.4804    magn:   -0.0010    constr:    0.0000
     atom:   67    charge:    0.4855    magn:   -0.0008    constr:    0.0000
     atom:   68    charge:    0.4851    magn:   -0.0010    constr:    0.0000
     atom:   69    charge:    0.4843    magn:   -0.0007    constr:    0.0000
     atom:   70    charge:    0.4831    magn:   -0.0014    constr:    0.0000
     atom:   71    charge:    0.4834    magn:   -0.0014    constr:    0.0000
     atom:   72    charge:    0.4854    magn:   -0.0009    constr:    0.0000
     atom:   73    charge:    0.4853    magn:   -0.0008    constr:    0.0000
     atom:   74    charge:    0.4856    magn:   -0.0009    constr:    0.0000
     atom:   75    charge:    0.4856    magn:   -0.0008    constr:    0.0000
     atom:   76    charge:    0.4853    magn:   -0.0006    constr:    0.0000
     atom:   77    charge:    0.4793    magn:   -0.0008    constr:    0.0000
     atom:   78    charge:    0.4842    magn:   -0.0008    constr:    0.0000
     atom:   79    charge:    0.4789    magn:   -0.0009    constr:    0.0000
     atom:   80    charge:    0.4838    magn:   -0.0013    constr:    0.0000
     atom:   81    charge:    0.4868    magn:    0.0024    constr:    0.0000
     atom:   82    charge:    0.4925    magn:    0.0008    constr:    0.0000
     atom:   83    charge:    0.4824    magn:    0.0035    constr:    0.0000
     atom:   84    charge:    0.5015    magn:    0.0003    constr:    0.0000
     atom:   85    charge:    0.4919    magn:    0.0019    constr:    0.0000
     atom:   86    charge:    0.4910    magn:    0.0010    constr:    0.0000
     atom:   87    charge:    0.5009    magn:    0.0004    constr:    0.0000
     atom:   88    charge:    0.4898    magn:    0.0010    constr:    0.0000
     atom:   89    charge:    0.4897    magn:    0.0018    constr:    0.0000
     atom:   90    charge:    0.5001    magn:    0.0004    constr:    0.0000
     atom:   91    charge:    0.4902    magn:    0.0009    constr:    0.0000
     atom:   92    charge:    0.4912    magn:    0.0019    constr:    0.0000
     atom:   93    charge:    0.5002    magn:   -0.0001    constr:    0.0000
     atom:   94    charge:    0.4915    magn:    0.0018    constr:    0.0000
     atom:   95    charge:    0.4918    magn:    0.0007    constr:    0.0000
     atom:   96    charge:    0.4879    magn:    0.0024    constr:    0.0000
     atom:   97    charge:    0.4858    magn:    0.0031    constr:    0.0000
     atom:   98    charge:    0.4947    magn:    0.0008    constr:    0.0000
     atom:   99    charge:    0.5004    magn:   -0.0001    constr:    0.0000
     atom:  100    charge:    0.4905    magn:    0.0008    constr:    0.0000
     atom:  101    charge:    0.4898    magn:    0.0019    constr:    0.0000
     atom:  102    charge:    0.4875    magn:    0.0023    constr:    0.0000
     atom:  103    charge:    0.4943    magn:    0.0010    constr:    0.0000
     atom:  104    charge:    0.4866    magn:    0.0029    constr:    0.0000
     atom:  105    charge:    2.4469    magn:    0.0122    constr:    0.0000
     atom:  106    charge:    2.4460    magn:    0.0118    constr:    0.0000
     atom:  107    charge:    2.4491    magn:    0.0115    constr:    0.0000
     atom:  108    charge:    2.4472    magn:    0.0112    constr:    0.0000
     atom:  109    charge:    2.4474    magn:    0.0112    constr:    0.0000
     atom:  110    charge:    2.4479    magn:    0.0117    constr:    0.0000
     atom:  111    charge:    2.4501    magn:    0.0108    constr:    0.0000
     atom:  112    charge:    2.4482    magn:    0.0118    constr:    0.0000
     atom:  113    charge:    7.4341    magn:    1.1067    constr:    0.0000
     atom:  114    charge:    7.4333    magn:    1.1076    constr:    0.0000
     atom:  115    charge:    7.4357    magn:    1.1106    constr:    0.0000
     atom:  116    charge:    7.4326    magn:    1.1057    constr:    0.0000
     atom:  117    charge:    3.2574    magn:    0.0583    constr:    0.0000
     atom:  118    charge:    3.2569    magn:    0.0595    constr:    0.0000
     atom:  119    charge:    3.2594    magn:    0.0562    constr:    0.0000
     atom:  120    charge:    3.2553    magn:    0.0588    constr:    0.0000
     atom:  121    charge:    3.2576    magn:    0.0572    constr:    0.0000
     atom:  122    charge:    3.2575    magn:    0.0593    constr:    0.0000
     atom:  123    charge:    3.2583    magn:    0.0598    constr:    0.0000
     atom:  124    charge:    3.2562    magn:    0.0588    constr:    0.0000
     atom:  125    charge:    3.2569    magn:    0.0593    constr:    0.0000
     atom:  126    charge:    3.2583    magn:    0.0564    constr:    0.0000
     atom:  127    charge:    3.2575    magn:    0.0602    constr:    0.0000
     atom:  128    charge:    3.2555    magn:    0.0580    constr:    0.0000
     atom:  129    charge:    3.2574    magn:    0.0577    constr:    0.0000
     atom:  130    charge:    3.2643    magn:    0.0572    constr:    0.0000
     atom:  131    charge:    3.2648    magn:    0.0582    constr:    0.0000
     atom:  132    charge:    3.2626    magn:    0.0573    constr:    0.0000
     atom:  133    charge:    3.2741    magn:    0.0411    constr:    0.0000
     atom:  134    charge:    3.2752    magn:    0.0282    constr:    0.0000
     atom:  135    charge:    3.2758    magn:    0.0274    constr:    0.0000
     atom:  136    charge:    3.2742    magn:    0.0274    constr:    0.0000
     atom:  137    charge:    3.2798    magn:    0.0275    constr:    0.0000
     atom:  138    charge:    3.2793    magn:    0.0426    constr:    0.0000
     atom:  139    charge:    3.2801    magn:    0.0273    constr:    0.0000
     atom:  140    charge:    3.2774    magn:    0.0400    constr:    0.0000

     total cpu time spent up to now is     1817.8 secs

     End of self-consistent calculation

 ------ SPIN UP ------------


          k = 0.0000 0.0000 0.0000 ( 91663 PWs)   bands (ev):

   -21.4566 -21.4307 -21.3498 -21.3442 -21.3154 -21.3074 -21.2948 -21.2276
   -21.1568 -21.1305 -21.1216 -21.0532 -21.0375 -20.9802 -20.9540 -20.9249
   -18.2418 -18.2331 -18.2286 -18.1988 -18.1947 -18.1739 -18.1685 -18.1616
   -18.0583 -18.0405 -18.0266 -18.0157 -17.9434 -17.9376 -17.9195 -17.8977
   -14.4935 -14.4451 -14.4357 -14.4170 -14.3996 -14.3905 -14.3526 -14.3401
   -13.3125 -13.2839 -13.1953 -13.1404 -13.0414 -13.0336 -12.8759 -12.8563
   -11.7551 -11.7047 -11.6108 -11.6056 -11.5739 -11.5367 -11.5141 -11.4838
   -10.8191 -10.7035 -10.6795 -10.5655 -10.5466 -10.5110 -10.4759 -10.4561
    -9.4923  -9.4334  -9.3905  -9.3848  -9.3065  -9.2756  -9.2529  -9.2395
    -8.5674  -8.4215  -8.3230  -8.1952  -8.1412  -8.0281  -7.9551  -7.8754
    -7.3000  -7.1619  -7.1258  -7.0916  -7.0798  -7.0684  -7.0230  -6.9751
    -6.8431  -6.8239  -6.7881  -6.7779  -6.7235  -6.6777  -6.6364  -6.6109
    -6.5805  -6.4499  -6.2422  -6.2124  -6.1843  -6.1335  -6.1101  -5.9915
    -5.9789  -5.8751  -5.8167  -5.8031  -5.7248  -5.6351  -5.6044  -5.5774
    -5.5498  -5.5393  -5.5246  -5.4942  -5.4575  -5.4198  -5.3822  -5.3773
    -5.3448  -5.3389  -5.2996  -5.2434  -5.2011  -5.1721  -5.1447  -5.0981
    -5.0750  -5.0479  -5.0166  -4.9899  -4.9411  -4.9107  -4.8800  -4.8460
    -4.7802  -4.7239  -4.6916  -4.6750  -4.6657  -4.6047  -4.5933  -4.5051
    -4.4295  -4.4024  -4.3566  -4.3064  -4.2683  -4.2180  -4.1800  -4.1407
    -4.0742  -3.9988  -3.8743  -3.7613  -3.7397  -3.6996  -3.6509  -3.6128
    -3.4913  -3.4325  -3.3954  -3.3898  -3.3339  -3.2970  -3.2734  -3.2456
    -3.2229  -3.2049  -3.1937  -3.1407  -2.9992  -2.9103  -2.8442  -2.8408
    -2.8197  -2.7981  -2.7636  -2.6748  -2.6312  -2.6235  -2.5379  -2.4883
    -2.4671  -2.4199  -2.3526  -2.3356  -2.2600  -2.2291  -2.1471  -2.1337
    -1.9528  -1.9081  -1.8997  -1.8816  -1.8399  -1.8051  -1.7745  -1.7624
    -1.7400  -1.7164  -1.7091  -1.6894  -1.5873  -1.5456  -1.4894  -1.3848
    -1.3689  -1.3310  -1.2828  -1.2345  -1.2091  -1.1233  -1.1003  -1.0755
    -1.0460  -1.0295  -1.0068  -0.9945  -0.9378  -0.9262  -0.9054  -0.8696
    -0.8456  -0.8183  -0.7832  -0.7791  -0.7580  -0.7412  -0.7301  -0.6827
    -0.6227  -0.5452  -0.5427  -0.5094  -0.1999  -0.1177  -0.0883   0.0204
     0.0816   0.1017   0.1628   0.2564   1.0282   1.0757   1.0911   1.1705
     1.3390   1.3541   1.3813   1.4102   3.0287   3.0921   3.1083   3.1185
     3.1576   3.1794   3.2302   3.2515   4.2595   4.2959   4.4055   4.4742
     4.6062   4.6420   4.7018   4.7776   4.8096   5.2789   5.3197   5.3698
     5.6540   5.6736   5.6860   5.7639   5.7848   5.8138   5.8452   5.8531
     6.1412   6.2628   6.3367   6.3865   6.4603   6.4979   6.5959   6.9247
     7.0221   7.0431   7.1318   7.1601   7.2459   7.2589   7.3785   7.4013
     7.4284   7.5668   7.6261   7.7042   7.8112   7.8854

 ------ SPIN DOWN ----------


          k = 0.0000 0.0000 0.0000 ( 91663 PWs)   bands (ev):

   -21.3929 -21.3682 -21.2845 -21.2728 -21.2468 -21.2213 -21.1999 -21.1345
   -21.0621 -21.0397 -21.0226 -20.9510 -20.9373 -20.8974 -20.8662 -20.8368
   -18.1074 -18.0987 -18.0952 -18.0649 -18.0586 -18.0379 -18.0293 -18.0243
   -18.0115 -18.0008 -17.9882 -17.9779 -17.9070 -17.8996 -17.8830 -17.8608
   -14.4572 -14.4075 -14.3964 -14.3799 -14.3613 -14.3523 -14.3144 -14.3029
   -13.2739 -13.2443 -13.1566 -13.1010 -13.0007 -12.9933 -12.8334 -12.8143
   -11.7336 -11.6837 -11.5900 -11.5832 -11.5523 -11.5079 -11.4838 -11.4528
   -10.7748 -10.6608 -10.6359 -10.5235 -10.5036 -10.4698 -10.4357 -10.4125
    -9.4608  -9.4014  -9.3591  -9.3510  -9.2785  -9.2469  -9.2259  -9.2118
    -8.5337  -8.3875  -8.2879  -8.1607  -8.1068  -7.9905  -7.9183  -7.8395
    -7.2513  -7.1258  -7.0825  -7.0510  -7.0447  -7.0280  -6.9793  -6.9305
    -6.8020  -6.7814  -6.7440  -6.7374  -6.6751  -6.6311  -6.5797  -6.5613
    -6.5318  -6.3916  -6.1903  -6.1563  -6.1288  -6.0767  -6.0562  -5.9282
    -5.9128  -5.8043  -5.7511  -5.7292  -5.6564  -5.5435  -5.5242  -5.4795
    -5.4521  -5.4464  -5.4372  -5.4120  -5.3649  -5.3258  -5.3022  -5.2825
    -5.2434  -5.2174  -5.2000  -5.1626  -5.1154  -5.0665  -5.0455  -5.0072
    -5.0023  -4.9318  -4.9141  -4.8920  -4.8604  -4.8418  -4.8261  -4.7629
    -4.7064  -4.6451  -4.6368  -4.6064  -4.5810  -4.5391  -4.5163  -4.4574
    -4.3739  -4.3479  -4.3018  -4.2485  -4.2079  -4.1594  -4.1226  -4.0635
    -3.9988  -3.9218  -3.8015  -3.6929  -3.6677  -3.6269  -3.5890  -3.5507
    -3.3936  -3.3714  -3.3475  -3.3299  -3.2920  -3.1886  -3.1810  -3.1709
    -3.1241  -3.0251  -3.0074  -2.9126  -2.8579  -2.7968  -2.7208  -2.6473
    -2.6228  -2.6095  -2.5708  -2.5122  -2.4524  -2.4225  -2.3529  -2.3406
    -2.3058  -2.2401  -2.2155  -2.1502  -2.0980  -2.0200  -1.9290  -1.8650
    -1.6825  -1.6477  -1.5695  -1.5492  -1.5012  -1.4645  -1.4568  -1.3944
    -1.3500  -1.3183  -1.3086  -1.2869  -1.2544  -1.2391  -1.2207  -1.1089
    -1.0793  -1.0344  -1.0236  -0.9740  -0.9176  -0.9025  -0.8718  -0.8429
    -0.8220  -0.7629  -0.7445  -0.6695  -0.6283  -0.6001  -0.5258  -0.4586
    -0.2853  -0.2121  -0.1406  -0.1268  -0.0336  -0.0031   0.0020   0.0419
     0.0595   0.0704   0.0729   0.0848   0.0892   0.1467   0.1608   0.1874
     0.2407   0.2625   0.3032   0.4000   1.7979   1.8390   1.8569   1.9059
     2.0385   2.0716   2.0818   2.1073   3.1377   3.1933   3.2152   3.2279
     3.2780   3.3028   3.3435   3.3571   4.3408   4.3745   4.4906   4.5574
     4.6937   4.7240   4.7873   4.8360   4.8789   5.3171   5.3583   5.4158
     5.7274   5.7465   5.7613   5.8413   5.8600   5.8913   5.9305   5.9320
     6.1786   6.2987   6.3742   6.4182   6.4957   6.5375   6.6276   6.9538
     7.0530   7.0746   7.1603   7.1941   7.2828   7.2954   7.4117   7.4349
     7.4618   7.5973   7.6600   7.7375   7.8432   7.9171

     the spin up/dw Fermi energies are     1.5801    1.2414 ev

!    total energy              =   -1987.51196495 Ry
     Harris-Foulkes estimate   =   -1987.51196498 Ry
     estimated scf accuracy    <       0.00000046 Ry

     The total energy is the sum of the following terms:

     one-electron contribution =   -2557.91621252 Ry
     hartree contribution      =    1471.59232291 Ry
     xc contribution           =    -588.26400266 Ry
     ewald contribution        =    -315.51448651 Ry
     Dispersion Correction     =      -0.67244896 Ry
     smearing contrib. (-TS)   =       3.26286278 Ry

     total magnetization       =     8.00 Bohr mag/cell
     absolute magnetization    =     8.25 Bohr mag/cell

     convergence has been achieved in  26 iterations

     Forces acting on atoms (cartesian axes, Ry/au):

     atom    1 type  1   force =     0.00757045   -0.01029297    0.01629657
     atom    2 type  1   force =    -0.03145362    0.04278220   -0.02055808
     atom    3 type  1   force =    -0.00626190    0.03608555   -0.03341195
     atom    4 type  1   force =     0.03599628   -0.03921820   -0.00271036
     atom    5 type  1   force =     0.01132519    0.00903424    0.03209220
     atom    6 type  1   force =    -0.02288627    0.00653983   -0.00639597
     atom    7 type  1   force =     0.03352401    0.03969933   -0.01553611
     atom    8 type  1   force =     0.03175534   -0.04345376   -0.02223893
     atom    9 type  1   force =    -0.01602946    0.03453536    0.06291749
     atom   10 type  1   force =    -0.01157164   -0.03709956    0.06487484
     atom   11 type  1   force =    -0.00185545    0.00644776   -0.00616955
     atom   12 type  1   force =     0.01057793    0.03782421    0.06432390
     atom   13 type  1   force =    -0.02357132   -0.03775662    0.00519541
     atom   14 type  1   force =     0.01126816   -0.00104956    0.00502499
     atom   15 type  1   force =    -0.01241497   -0.00197945    0.00359702
     atom   16 type  1   force =    -0.00949184   -0.02884941   -0.00408691
     atom   17 type  1   force =     0.02529315    0.00862802   -0.00386717
     atom   18 type  1   force =     0.01588486   -0.00775476   -0.02552624
     atom   19 type  1   force =    -0.03336820   -0.04145614   -0.00701711
     atom   20 type  1   force =    -0.03466095    0.03810065   -0.00466082
     atom   21 type  1   force =    -0.00513739    0.00407966   -0.00322960
     atom   22 type  1   force =    -0.00515529   -0.00050031   -0.00495890
     atom   23 type  1   force =     0.00625575   -0.00157087   -0.00448860
     atom   24 type  1   force =     0.00289006    0.00030030   -0.00379205
     atom   25 type  1   force =    -0.04517414   -0.03559667   -0.00598634
     atom   26 type  1   force =     0.00461791    0.00827606    0.02093601
     atom   27 type  1   force =     0.03441789    0.03574158   -0.01005855
     atom   28 type  1   force =    -0.00577459   -0.03849630   -0.03114259
     atom   29 type  1   force =    -0.01419035   -0.01067048   -0.02494458
     atom   30 type  1   force =     0.02633025    0.00242496    0.00621683
     atom   31 type  1   force =     0.04418983    0.02495578    0.00171233
     atom   32 type  1   force =    -0.00770761   -0.00916610    0.01848873
     atom   33 type  1   force =    -0.01936274    0.03890046    0.05459991
     atom   34 type  1   force =     0.00367906    0.00638938   -0.00545197
     atom   35 type  1   force =     0.01507012   -0.04086496    0.06311292
     atom   36 type  1   force =    -0.00354206   -0.00676828   -0.00530702
     atom   37 type  1   force =     0.00831380   -0.02931400   -0.00222283
     atom   38 type  1   force =    -0.02487128    0.06499788   -0.00009308
     atom   39 type  1   force =    -0.00983215    0.02713006   -0.00410367
     atom   40 type  1   force =     0.02615797   -0.06452604   -0.00221309
     atom   41 type  1   force =     0.01811110    0.01293999   -0.02394434
     atom   42 type  1   force =    -0.02892591    0.00095245    0.00975819
     atom   43 type  1   force =    -0.03391979   -0.03687779   -0.01250032
     atom   44 type  1   force =     0.00669783    0.03888981   -0.03152929
     atom   45 type  1   force =    -0.00558900    0.00273642   -0.00539741
     atom   46 type  1   force =    -0.00604698   -0.00158695   -0.00517527
     atom   47 type  1   force =     0.00794590   -0.00186202   -0.00513295
     atom   48 type  1   force =     0.00367625    0.00142575   -0.00350993
     atom   49 type  1   force =    -0.00088994    0.00048531    0.00019095
     atom   50 type  1   force =     0.00010036    0.00013232    0.00012004
     atom   51 type  1   force =     0.00005167   -0.00003178   -0.00007123
     atom   52 type  1   force =     0.00018657    0.00010658    0.00004355
     atom   53 type  1   force =    -0.00008328    0.00012644   -0.00008760
     atom   54 type  1   force =    -0.00022419    0.00071394    0.00022010
     atom   55 type  1   force =    -0.00005095    0.00010011    0.00011746
     atom   56 type  1   force =     0.00034215    0.00089646   -0.00012292
     atom   57 type  2   force =     0.00211150    0.00339132   -0.00179145
     atom   58 type  2   force =     0.00290264   -0.00461043   -0.00051368
     atom   59 type  2   force =    -0.00338963    0.00212300   -0.00196085
     atom   60 type  2   force =    -0.00030332   -0.00242528   -0.00406339
     atom   61 type  2   force =    -0.00167469    0.00373532   -0.00229575
     atom   62 type  2   force =    -0.00804260   -0.00081194    0.00648539
     atom   63 type  2   force =    -0.00055144   -0.00035826    0.00121634
     atom   64 type  2   force =     0.00026152    0.00010523    0.00093153
     atom   65 type  2   force =     0.00022806   -0.00057668    0.00078523
     atom   66 type  2   force =     0.00455885    0.00477929    0.00092036
     atom   67 type  2   force =    -0.00211670   -0.00054560   -0.00123745
     atom   68 type  2   force =     0.00213008    0.00000883   -0.00062680
     atom   69 type  2   force =     0.00386479    0.00294266   -0.00605019
     atom   70 type  2   force =     0.00226276   -0.00354528   -0.00060513
     atom   71 type  2   force =     0.00201689    0.00266827   -0.00290971
     atom   72 type  2   force =    -0.00699784   -0.00145903    0.00676534
     atom   73 type  2   force =    -0.00939941    0.00278231    0.00654587
     atom   74 type  2   force =     0.00929041    0.00350167    0.00693436
     atom   75 type  2   force =     0.00938482   -0.00356606    0.00537926
     atom   76 type  2   force =    -0.00391735    0.00183856   -0.00668905
     atom   77 type  2   force =     0.00145030   -0.00511274   -0.00905075
     atom   78 type  2   force =     0.00471178   -0.00271679   -0.00551697
     atom   79 type  2   force =    -0.00238851    0.00672111   -0.00631789
     atom   80 type  2   force =     0.00033906   -0.00468132   -0.00189083
     atom   81 type  2   force =     0.00002901   -0.00015011    0.00041792
     atom   82 type  2   force =     0.00074490   -0.00026348    0.00003385
     atom   83 type  2   force =    -0.00015655   -0.00014830   -0.00018131
     atom   84 type  2   force =     0.00004627   -0.00004037   -0.00003246
     atom   85 type  2   force =     0.00023131    0.00023808   -0.00004049
     atom   86 type  2   force =     0.00020393    0.00023321    0.00011737
     atom   87 type  2   force =     0.00006603    0.00004981   -0.00000589
     atom   88 type  2   force =    -0.00017978    0.00005047   -0.00008079
     atom   89 type  2   force =    -0.00010228   -0.00002361    0.00010110
     atom   90 type  2   force =     0.00006142    0.00006789   -0.00005324
     atom   91 type  2   force =    -0.00006664    0.00006317   -0.00001168
     atom   92 type  2   force =     0.00004078    0.00015318   -0.00007621
     atom   93 type  2   force =     0.00021148    0.00019401   -0.00047814
     atom   94 type  2   force =    -0.00004844   -0.00009072   -0.00023319
     atom   95 type  2   force =     0.00037423    0.00022531   -0.00007269
     atom   96 type  2   force =     0.00016785    0.00002823   -0.00028303
     atom   97 type  2   force =    -0.00011472   -0.00022148    0.00007746
     atom   98 type  2   force =     0.00013664   -0.00000477    0.00009307
     atom   99 type  2   force =     0.00006192    0.00048739    0.00005654
     atom  100 type  2   force =     0.00034052   -0.00002335   -0.00025222
     atom  101 type  2   force =    -0.00023904    0.00018842    0.00031019
     atom  102 type  2   force =    -0.00020346    0.00016221   -0.00033094
     atom  103 type  2   force =     0.00012251    0.00025800    0.00003398
     atom  104 type  2   force =    -0.00014528   -0.00069947    0.00029756
     atom  105 type  3   force =     0.01036219   -0.00085675    0.00301547
     atom  106 type  3   force =    -0.01237059   -0.00600006   -0.01321254
     atom  107 type  3   force =     0.00964436   -0.00444439   -0.01250886
     atom  108 type  3   force =     0.00770913    0.00781850   -0.01526068
     atom  109 type  3   force =    -0.00580602    0.00640033   -0.01418578
     atom  110 type  3   force =     0.01285320   -0.00176997    0.00024062
     atom  111 type  3   force =     0.00348303   -0.00450025   -0.01453622
     atom  112 type  3   force =    -0.01298754    0.00062828   -0.00082163
     atom  113 type  4   force =     0.00956672    0.00132968    0.01194610
     atom  114 type  4   force =     0.00195895   -0.00067617   -0.00585221
     atom  115 type  4   force =     0.00928051   -0.00038320    0.00628375
     atom  116 type  4   force =     0.00010373   -0.00193218    0.00287292
     atom  117 type  5   force =    -0.00380830   -0.00189392    0.00143914
     atom  118 type  5   force =    -0.00129934    0.00389088    0.00169566
     atom  119 type  5   force =    -0.00215566   -0.00406342    0.00195694
     atom  120 type  5   force =     0.00246302   -0.00204775    0.00169275
     atom  121 type  5   force =    -0.00521056    0.00075977    0.00434355
     atom  122 type  5   force =    -0.00552789   -0.00146501    0.00281500
     atom  123 type  5   force =     0.00403179   -0.00202674    0.00155143
     atom  124 type  5   force =     0.00517952    0.00197785    0.00243531
     atom  125 type  5   force =    -0.00435938   -0.00457749    0.00503997
     atom  126 type  5   force =     0.00395375   -0.00318365    0.00222500
     atom  127 type  5   force =     0.00321373    0.00532044    0.00644442
     atom  128 type  5   force =    -0.00196039   -0.00033816    0.00802779
     atom  129 type  5   force =    -0.00379662    0.00044984    0.00340563
     atom  130 type  5   force =     0.00251971    0.00162706   -0.01863254
     atom  131 type  5   force =    -0.00328359    0.00183327   -0.02006709
     atom  132 type  5   force =    -0.00323857   -0.00238521   -0.01834109
     atom  133 type  5   force =    -0.00040423   -0.00002955    0.00009793
     atom  134 type  5   force =     0.00004949   -0.00006557    0.00006159
     atom  135 type  5   force =     0.00000080   -0.00009073    0.00004910
     atom  136 type  5   force =    -0.00000766    0.00004150    0.00003685
     atom  137 type  5   force =    -0.00014072    0.00023180    0.00013595
     atom  138 type  5   force =    -0.00039487    0.00027293   -0.00012236
     atom  139 type  5   force =    -0.00013840    0.00015549   -0.00018735
     atom  140 type  5   force =     0.00001555   -0.00056521   -0.00013117

     Total force =     0.305819     Total SCF correction =     0.001440

     BFGS Geometry Optimization

     number of scf cycles    =   1
     number of bfgs steps    =   0

     energy   new            =   -1987.5119649510 Ry

     new trust radius        =       0.0766830764 bohr
     new conv_thr            =       0.0000010000 Ry


ATOMIC_POSITIONS (crystal)
C             0.2885476203        0.9696150701        0.5228233544
C             0.0370287650        0.0329137634        0.0212491563
C             0.3903377082        0.0132947963        0.5447711177
C             0.1417646480        0.9860868334        0.0460064029
C             0.4524243084        0.9705837421        0.6520239087
C             0.2015455685        0.0286293406        0.1495635755
C             0.2095850112        0.5313814968        0.5255838129
C             0.4598678867        0.4695728599        0.0267585842
C             0.2445176861        0.6147902929        0.6096755647
C             0.4963901540        0.3871093569        0.1119583780
C             0.2493917032        0.8894784504        0.6028852373
C             0.0015769001        0.1138302633        0.1075600021
C             0.4069844458        0.8877875927        0.7278195893
C             0.1604165241        0.1095026508        0.2280708119
C             0.0883400300        0.6088993583        0.7275372644
C             0.3404845204        0.3904139673        0.2291835036
C             0.0479916591        0.5254435774        0.6511128215
C             0.2983062436        0.4743833223        0.1514392712
C             0.1067454416        0.4825182695        0.5497545841
C             0.3563609473        0.5172659444        0.0503979447
C             0.4330895832        0.0994913863        0.4664546597
C             0.1812942048        0.8996988595        0.9654165919
C             0.0676385058        0.3944076227        0.4704448148
C             0.3161617389        0.6041846892        0.9689116906
C             0.7862948379        0.9685458613        0.5216756737
C             0.5385940316        0.0314557052        0.0233863088
C             0.8920809704        0.0132802617        0.5459739344
C             0.6399704559        0.9861173373        0.0445420011
C             0.9512911514        0.9697511186        0.6490862295
C             0.7036399962        0.0284554668        0.1502131976
C             0.7100535049        0.5307585073        0.5264721937
C             0.9582371816        0.4710216862        0.0288562617
C             0.7443688413        0.6149747401        0.6092471677
C             0.9969695698        0.3889469837        0.1083361963
C             0.7501728529        0.8874792499        0.6064536305
C             0.5009141429        0.1119460061        0.1039736621
C             0.9083267164        0.8881443360        0.7274375132
C             0.6588814807        0.1122934876        0.2278072060
C             0.5884421044        0.6101293818        0.7271406406
C             0.8419948043        0.3889064501        0.2292800150
C             0.5476689302        0.5256257797        0.6500787469
C             0.7964431423        0.4747512456        0.1532565957
C             0.6067169615        0.4827117276        0.5494721710
C             0.8580858660        0.5172992904        0.0490140840
C             0.9330684413        0.0994346276        0.4663430065
C             0.6812562702        0.8996529432        0.9654054477
C             0.5677084205        0.3943953205        0.4704116272
C             0.8161952711        0.6042322449        0.9689262210
C             0.5755945209        0.1105005067        0.7237198350
C             0.8871823594        0.0784785913        0.8916331826
C             0.3595591198        0.5731816570        0.4036433312
C             0.6043859355        0.4216355037        0.8986492429
C             0.6331683939        0.9284303426        0.3960124880
C             0.8422167195        0.8979711674        0.2146513364
C             0.8639409540        0.5656902300        0.4090570497
C             0.6611763628        0.6076748800        0.2133116688
H             0.2372116691        0.9997183004        0.4430207316
H             0.4866603443        0.0024971862        0.9434725431
H             0.0319177293        0.9988947073        0.6734190063
H             0.2823233562        0.9985625196        0.1723927149
H             0.0085679832        0.5005548360        0.9504297576
H             0.3223067552        0.6504716916        0.5929690300
H             0.0749458059        0.3528358617        0.0950906477
H             0.1701659393        0.8551274465        0.5886079784
H             0.4223323865        0.1477076322        0.0899264435
H             0.4535637713        0.8553749491        0.8088084031
H             0.2061482717        0.1430799458        0.3087332650
H             0.0438185473        0.6429443733        0.8065757168
H             0.2965358680        0.3576503423        0.3087393851
H             0.4687671820        0.4930811940        0.6734708326
H             0.2190346177        0.5053137480        0.1751141353
H             0.8223512265        0.6504443486        0.5929834485
H             0.5745763980        0.3529685667        0.0953651448
H             0.6705536250        0.8552709634        0.5889171544
H             0.9227241622        0.1475813161        0.0901630586
H             0.9531979667        0.8552506883        0.8084164807
H             0.7062928862        0.1428869610        0.3083308414
H             0.5439232086        0.6428292019        0.8063238483
H             0.7962710079        0.3578100009        0.3087255974
H             0.9686845752        0.4930331908        0.6734046130
H             0.6427356193        0.1350456569        0.6642125249
H             0.5063535523        0.1627888665        0.7110827435
H             0.6026362057        0.1068627338        0.8264356615
H             0.8536129276        0.0527922943        0.7986643283
H             0.8285687502        0.0660690600        0.9673379147
H             0.9133457393        0.1617498544        0.8861390452
H             0.3958787887        0.5431961047        0.3161526966
H             0.3339623169        0.6561721327        0.3897928390
H             0.4166657668        0.5647050023        0.4852112074
H             0.6363605491        0.4472338686        0.8065502577
H             0.5755131692        0.3391926693        0.8913843984
H             0.6657226540        0.4311904726        0.9750280749
H             0.5958315008        0.9584161977        0.3070163734
H             0.5761497319        0.9356211667        0.4743389897
H             0.6601657673        0.8458845205        0.3837882559
H             0.9044348373        0.8768971929        0.1461624224
H             0.8787362181        0.9074646412        0.3123009897
H             0.7771428690        0.8399047986        0.2139587938
H             0.9041616731        0.5300515948        0.3273209123
H             0.8366261728        0.6468840134        0.3863510094
H             0.9194841756        0.5647759618        0.4927559761
H             0.5959570802        0.6255638542        0.1441259548
H             0.7256642161        0.6660439018        0.2080707501
H             0.6289661313        0.6027354439        0.3119023256
N             0.3088783042        0.8512167979        0.7049833118
N             0.0601931519        0.1486034671        0.2053714882
N             0.1869383775        0.6501222021        0.7051937311
N             0.4391219087        0.3512583712        0.2072549989
N             0.8081780206        0.8515234464        0.7040973613
N             0.5612731107        0.1487822097        0.2060643929
N             0.6866767595        0.6501198419        0.7050893123
N             0.9382596600        0.3509545481        0.2079986820
Ni            0.2474180147        0.7515421855        0.8369412837
Ni            0.5000494077        0.2479704285        0.3388765821
Ni            0.7474005965        0.7514698079        0.8366496446
Ni            0.9999790822        0.2479173556        0.3393259699
O             0.1226182003        0.3476089722        0.3829471230
O             0.3711546078        0.6511414091        0.8813793349
O             0.3775406171        0.1473352999        0.3772787922
O             0.1252038098        0.8522654724        0.8763481849
O             0.4728525855        0.3561921042        0.4832177144
O             0.2209057251        0.6413530957        0.9800219865
O             0.0290120599        0.1350723600        0.4811579062
O             0.2769074548        0.8628415742        0.9795244308
O             0.6225992562        0.3474955780        0.3831325834
O             0.8713773890        0.6508424747        0.8814065987
O             0.8777720301        0.1477318154        0.3775099199
O             0.6250225705        0.8523377109        0.8766744713
O             0.9729115375        0.3561790082        0.4831694071
O             0.7212261569        0.6414837514        0.9789173312
O             0.5286822446        0.1352354650        0.4800444447
O             0.7765317677        0.8626572128        0.9784543423
O             0.5493249867        0.0013447513        0.6907580437
O             0.9800081519        0.0103002294        0.9170561723
O             0.2660580800        0.5063801661        0.4246645288
O             0.5145017103        0.4924067535        0.9235858980
O             0.7252611728        0.9968667945        0.4228830019
O             0.8032521765        0.0029705325        0.1809076976
O             0.7720519682        0.4983445702        0.4336503504
O             0.6991015349        0.5014131170        0.1867982440



     Writing output data file /nfs/hpc/share/gantzlen/NiPyC2_relax_sc211_meta_functionalized_O-CH3_pbesol_relax_frozen_parent_atoms_Round2.save/
     NEW-OLD atomic charge density approx. for the potential

     Check: negative core charge=   -0.000145

     total cpu time spent up to now is     1843.1 secs

     Self-consistent Calculation

     iteration #  1     ecut=   100.00 Ry     beta= 0.70
     Davidson diagonalization with overlap
     ethr =  1.00E-06,  avg # of iterations = 14.0

     total cpu time spent up to now is     2106.8 secs

     total energy              =   -1987.53448593 Ry
     Harris-Foulkes estimate   =   -1987.54676979 Ry
     estimated scf accuracy    <       0.03575143 Ry

     total magnetization       =     8.00 Bohr mag/cell
     absolute magnetization    =     8.24 Bohr mag/cell

     iteration #  2     ecut=   100.00 Ry     beta= 0.70
     Davidson diagonalization with overlap
     ethr =  7.21E-06,  avg # of iterations =  2.0

     total cpu time spent up to now is     2174.3 secs

     total energy              =   -1987.53447093 Ry
     Harris-Foulkes estimate   =   -1987.53845097 Ry
     estimated scf accuracy    <       0.01409650 Ry

     total magnetization       =     8.00 Bohr mag/cell
     absolute magnetization    =     8.25 Bohr mag/cell

     iteration #  3     ecut=   100.00 Ry     beta= 0.70
     Davidson diagonalization with overlap
     ethr =  2.84E-06,  avg # of iterations =  2.0

     total cpu time spent up to now is     2239.5 secs

     total energy              =   -1987.53436354 Ry
     Harris-Foulkes estimate   =   -1987.53971333 Ry
     estimated scf accuracy    <       0.04531213 Ry

     total magnetization       =     8.00 Bohr mag/cell
     absolute magnetization    =     8.24 Bohr mag/cell

     iteration #  4     ecut=   100.00 Ry     beta= 0.70
     Davidson diagonalization with overlap
     ethr =  2.84E-06,  avg # of iterations =  2.0

     total cpu time spent up to now is     2304.1 secs

     total energy              =   -1987.53692327 Ry
     Harris-Foulkes estimate   =   -1987.53712284 Ry
     estimated scf accuracy    <       0.00129100 Ry

     total magnetization       =     8.00 Bohr mag/cell
     absolute magnetization    =     8.24 Bohr mag/cell

     iteration #  5     ecut=   100.00 Ry     beta= 0.70
     Davidson diagonalization with overlap
     ethr =  2.60E-07,  avg # of iterations =  4.0

     total cpu time spent up to now is     2373.7 secs

     total energy              =   -1987.53691895 Ry
     Harris-Foulkes estimate   =   -1987.53715705 Ry
     estimated scf accuracy    <       0.00261487 Ry

     total magnetization       =     8.00 Bohr mag/cell
     absolute magnetization    =     8.24 Bohr mag/cell

     iteration #  6     ecut=   100.00 Ry     beta= 0.70
     Davidson diagonalization with overlap
     ethr =  2.60E-07,  avg # of iterations =  1.0

     total cpu time spent up to now is     2437.5 secs

     total energy              =   -1987.53702837 Ry
     Harris-Foulkes estimate   =   -1987.53705586 Ry
     estimated scf accuracy    <       0.00024887 Ry

     total magnetization       =     8.00 Bohr mag/cell
     absolute magnetization    =     8.24 Bohr mag/cell

     iteration #  7     ecut=   100.00 Ry     beta= 0.70
     Davidson diagonalization with overlap
     ethr =  5.02E-08,  avg # of iterations =  1.0

     total cpu time spent up to now is     2501.0 secs

     total energy              =   -1987.53703113 Ry
     Harris-Foulkes estimate   =   -1987.53703965 Ry
     estimated scf accuracy    <       0.00008761 Ry

     total magnetization       =     8.00 Bohr mag/cell
     absolute magnetization    =     8.24 Bohr mag/cell

     iteration #  8     ecut=   100.00 Ry     beta= 0.70
     Davidson diagonalization with overlap
     ethr =  1.77E-08,  avg # of iterations =  1.0

     total cpu time spent up to now is     2564.4 secs

     total energy              =   -1987.53702853 Ry
     Harris-Foulkes estimate   =   -1987.53703477 Ry
     estimated scf accuracy    <       0.00004015 Ry

     total magnetization       =     8.00 Bohr mag/cell
     absolute magnetization    =     8.24 Bohr mag/cell

     iteration #  9     ecut=   100.00 Ry     beta= 0.70
     Davidson diagonalization with overlap
     ethr =  8.09E-09,  avg # of iterations =  3.5

     total cpu time spent up to now is     2633.9 secs

     total energy              =   -1987.53702822 Ry
     Harris-Foulkes estimate   =   -1987.53703178 Ry
     estimated scf accuracy    <       0.00003834 Ry

     total magnetization       =     8.00 Bohr mag/cell
     absolute magnetization    =     8.24 Bohr mag/cell

     iteration # 10     ecut=   100.00 Ry     beta= 0.70
     Davidson diagonalization with overlap
     ethr =  7.73E-09,  avg # of iterations =  1.0

     total cpu time spent up to now is     2696.8 secs

     total energy              =   -1987.53702974 Ry
     Harris-Foulkes estimate   =   -1987.53703128 Ry
     estimated scf accuracy    <       0.00002438 Ry

     total magnetization       =     8.00 Bohr mag/cell
     absolute magnetization    =     8.24 Bohr mag/cell

     iteration # 11     ecut=   100.00 Ry     beta= 0.70
     Davidson diagonalization with overlap
     ethr =  4.92E-09,  avg # of iterations =  1.5

     total cpu time spent up to now is     2760.2 secs

     total energy              =   -1987.53703097 Ry
     Harris-Foulkes estimate   =   -1987.53703068 Ry
     estimated scf accuracy    <       0.00000232 Ry

     total magnetization       =     8.00 Bohr mag/cell
     absolute magnetization    =     8.24 Bohr mag/cell

     iteration # 12     ecut=   100.00 Ry     beta= 0.70
     Davidson diagonalization with overlap
     ethr =  4.68E-10,  avg # of iterations =  3.5
 
     Magnetic moment per site:
     atom:    1    charge:    0.8410    magn:    0.0041    constr:    0.0000
     atom:    2    charge:    0.8251    magn:    0.0029    constr:    0.0000
     atom:    3    charge:    0.8421    magn:    0.0065    constr:    0.0000
     atom:    4    charge:    0.8401    magn:    0.0067    constr:    0.0000
     atom:    5    charge:    0.8224    magn:    0.0045    constr:    0.0000
     atom:    6    charge:    0.8427    magn:    0.0036    constr:    0.0000
     atom:    7    charge:    0.8267    magn:    0.0025    constr:    0.0000
     atom:    8    charge:    0.8248    magn:    0.0028    constr:    0.0000
     atom:    9    charge:    0.8477    magn:    0.0077    constr:    0.0000
     atom:   10    charge:    0.8467    magn:    0.0080    constr:    0.0000
     atom:   11    charge:    0.8338    magn:    0.0061    constr:    0.0000
     atom:   12    charge:    0.8469    magn:    0.0079    constr:    0.0000
     atom:   13    charge:    0.8422    magn:    0.0073    constr:    0.0000
     atom:   14    charge:    0.8342    magn:    0.0071    constr:    0.0000
     atom:   15    charge:    0.8354    magn:    0.0069    constr:    0.0000
     atom:   16    charge:    0.8350    magn:    0.0079    constr:    0.0000
     atom:   17    charge:    0.8419    magn:    0.0035    constr:    0.0000
     atom:   18    charge:    0.8402    magn:    0.0047    constr:    0.0000
     atom:   19    charge:    0.8425    magn:    0.0069    constr:    0.0000
     atom:   20    charge:    0.8418    magn:    0.0064    constr:    0.0000
     atom:   21    charge:    0.8233    magn:   -0.0016    constr:    0.0000
     atom:   22    charge:    0.8219    magn:   -0.0019    constr:    0.0000
     atom:   23    charge:    0.8225    magn:   -0.0018    constr:    0.0000
     atom:   24    charge:    0.8220    magn:   -0.0019    constr:    0.0000
     atom:   25    charge:    0.8254    magn:    0.0028    constr:    0.0000
     atom:   26    charge:    0.8414    magn:    0.0040    constr:    0.0000
     atom:   27    charge:    0.8413    magn:    0.0063    constr:    0.0000
     atom:   28    charge:    0.8430    magn:    0.0066    constr:    0.0000
     atom:   29    charge:    0.8395    magn:    0.0048    constr:    0.0000
     atom:   30    charge:    0.8236    magn:    0.0050    constr:    0.0000
     atom:   31    charge:    0.8277    magn:    0.0024    constr:    0.0000
     atom:   32    charge:    0.8408    magn:    0.0039    constr:    0.0000
     atom:   33    charge:    0.8481    magn:    0.0079    constr:    0.0000
     atom:   34    charge:    0.8337    magn:    0.0062    constr:    0.0000
     atom:   35    charge:    0.8484    magn:    0.0079    constr:    0.0000
     atom:   36    charge:    0.8345    magn:    0.0062    constr:    0.0000
     atom:   37    charge:    0.8360    magn:    0.0078    constr:    0.0000
     atom:   38    charge:    0.8408    magn:    0.0079    constr:    0.0000
     atom:   39    charge:    0.8366    magn:    0.0075    constr:    0.0000
     atom:   40    charge:    0.8410    magn:    0.0078    constr:    0.0000
     atom:   41    charge:    0.8405    magn:    0.0045    constr:    0.0000
     atom:   42    charge:    0.8223    magn:    0.0047    constr:    0.0000
     atom:   43    charge:    0.8443    magn:    0.0064    constr:    0.0000
     atom:   44    charge:    0.8424    magn:    0.0065    constr:    0.0000
     atom:   45    charge:    0.8220    magn:   -0.0019    constr:    0.0000
     atom:   46    charge:    0.8245    magn:   -0.0015    constr:    0.0000
     atom:   47    charge:    0.8227    magn:   -0.0017    constr:    0.0000
     atom:   48    charge:    0.8242    magn:   -0.0015    constr:    0.0000
     atom:   49    charge:    0.8221    magn:    0.0015    constr:    0.0000
     atom:   50    charge:    0.8286    magn:    0.0005    constr:    0.0000
     atom:   51    charge:    0.8286    magn:    0.0008    constr:    0.0000
     atom:   52    charge:    0.8295    magn:    0.0006    constr:    0.0000
     atom:   53    charge:    0.8285    magn:    0.0001    constr:    0.0000
     atom:   54    charge:    0.8222    magn:    0.0012    constr:    0.0000
     atom:   55    charge:    0.8299    magn:    0.0005    constr:    0.0000
     atom:   56    charge:    0.8221    magn:    0.0010    constr:    0.0000
     atom:   57    charge:    0.4776    magn:   -0.0011    constr:    0.0000
     atom:   58    charge:    0.4772    magn:   -0.0011    constr:    0.0000
     atom:   59    charge:    0.4763    magn:   -0.0013    constr:    0.0000
     atom:   60    charge:    0.4767    magn:   -0.0012    constr:    0.0000
     atom:   61    charge:    0.4770    magn:   -0.0011    constr:    0.0000
     atom:   62    charge:    0.4827    magn:   -0.0005    constr:    0.0000
     atom:   63    charge:    0.4890    magn:   -0.0013    constr:    0.0000
     atom:   64    charge:    0.4886    magn:   -0.0013    constr:    0.0000
     atom:   65    charge:    0.4892    magn:   -0.0013    constr:    0.0000
     atom:   66    charge:    0.4826    magn:   -0.0008    constr:    0.0000
     atom:   67    charge:    0.4879    magn:   -0.0012    constr:    0.0000
     atom:   68    charge:    0.4873    magn:   -0.0012    constr:    0.0000
     atom:   69    charge:    0.4879    magn:   -0.0011    constr:    0.0000
     atom:   70    charge:    0.4753    magn:   -0.0012    constr:    0.0000
     atom:   71    charge:    0.4766    magn:   -0.0012    constr:    0.0000
     atom:   72    charge:    0.4828    magn:   -0.0006    constr:    0.0000
     atom:   73    charge:    0.4840    magn:   -0.0004    constr:    0.0000
     atom:   74    charge:    0.4833    magn:   -0.0005    constr:    0.0000
     atom:   75    charge:    0.4845    magn:   -0.0004    constr:    0.0000
     atom:   76    charge:    0.4894    magn:   -0.0009    constr:    0.0000
     atom:   77    charge:    0.4828    magn:   -0.0006    constr:    0.0000
     atom:   78    charge:    0.4878    magn:   -0.0011    constr:    0.0000
     atom:   79    charge:    0.4816    magn:   -0.0007    constr:    0.0000
     atom:   80    charge:    0.4760    magn:   -0.0012    constr:    0.0000
[...]
     atom   38 type  1   force =    -0.00015940    0.00039810   -0.00048952
     atom   39 type  1   force =     0.00006440   -0.00017597    0.00002413
     atom   40 type  1   force =     0.00027578   -0.00001276   -0.00039383
     atom   41 type  1   force =     0.00024303    0.00008048    0.00031516
     atom   42 type  1   force =    -0.00012339   -0.00029633   -0.00013543
     atom   43 type  1   force =     0.00005888   -0.00014567    0.00035097
     atom   44 type  1   force =     0.00023156   -0.00024567    0.00017884
     atom   45 type  1   force =     0.00013667    0.00029831   -0.00073930
     atom   46 type  1   force =    -0.00011307   -0.00004188    0.00036928
     atom   47 type  1   force =    -0.00046366    0.00041914    0.00007518
     atom   48 type  1   force =     0.00038807    0.00005046    0.00010207
     atom   49 type  1   force =    -0.00072834    0.00035514    0.00021433
     atom   50 type  1   force =     0.00007436   -0.00043102   -0.00040855
     atom   51 type  1   force =     0.00028145    0.00012685   -0.00021754
     atom   52 type  1   force =     0.00041523   -0.00003697   -0.00001579
     atom   53 type  1   force =    -0.00022456    0.00010735   -0.00022526
     atom   54 type  1   force =     0.00021474    0.00015986    0.00019456
     atom   55 type  1   force =     0.00021005   -0.00000584    0.00007927
     atom   56 type  1   force =    -0.00016918   -0.00046810    0.00004545
     atom   57 type  2   force =    -0.00008224   -0.00027992    0.00003518
     atom   58 type  2   force =     0.00043105    0.00018531   -0.00017976
     atom   59 type  2   force =    -0.00033128    0.00006301    0.00022223
     atom   60 type  2   force =    -0.00015499   -0.00032352    0.00046925
     atom   61 type  2   force =    -0.00039964   -0.00012585   -0.00017943
     atom   62 type  2   force =     0.00006070   -0.00018057    0.00009301
     atom   63 type  2   force =     0.00037232    0.00064108   -0.00001944
     atom   64 type  2   force =    -0.00018686    0.00015516    0.00019322
     atom   65 type  2   force =    -0.00033190   -0.00056654    0.00029050
     atom   66 type  2   force =     0.00018026   -0.00032728   -0.00036557
     atom   67 type  2   force =    -0.00027101   -0.00014551    0.00027667
     atom   68 type  2   force =    -0.00029964   -0.00033448    0.00013951
     atom   69 type  2   force =    -0.00038116   -0.00010565    0.00028000
     atom   70 type  2   force =     0.00001462    0.00058012    0.00010709
     atom   71 type  2   force =    -0.00010063   -0.00001233    0.00007561
     atom   72 type  2   force =     0.00038587   -0.00065737   -0.00049643
     atom   73 type  2   force =     0.00027649    0.00018061   -0.00021924
     atom   74 type  2   force =    -0.00026454    0.00043534   -0.00049051
     atom   75 type  2   force =    -0.00006406   -0.00007896    0.00027253
     atom   76 type  2   force =     0.00036920   -0.00045538    0.00004966
     atom   77 type  2   force =    -0.00066611   -0.00008267    0.00004375
     atom   78 type  2   force =    -0.00025399    0.00024674    0.00031155
     atom   79 type  2   force =    -0.00021438    0.00034380    0.00021804
     atom   80 type  2   force =     0.00030081    0.00000090   -0.00015930
     atom   81 type  2   force =    -0.00042004   -0.00011532    0.00019489
     atom   82 type  2   force =    -0.00019669   -0.00031818   -0.00027880
     atom   83 type  2   force =    -0.00019957   -0.00005719    0.00004965
     atom   84 type  2   force =     0.00022350    0.00001502   -0.00024625
     atom   85 type  2   force =     0.00017740    0.00043669    0.00015642
     atom   86 type  2   force =    -0.00013362   -0.00018420    0.00018664
     atom   87 type  2   force =    -0.00005089    0.00039242   -0.00057902
     atom   88 type  2   force =    -0.00020133    0.00007422   -0.00017018
     atom   89 type  2   force =     0.00016562    0.00012556   -0.00001619
     atom   90 type  2   force =    -0.00032695    0.00027143   -0.00037055
     atom   91 type  2   force =     0.00015526   -0.00006937   -0.00043437
     atom   92 type  2   force =     0.00011338    0.00015990    0.00009974
     atom   93 type  2   force =     0.00033447    0.00013501   -0.00037001
     atom   94 type  2   force =     0.00051468    0.00000936    0.00058007
     atom   95 type  2   force =     0.00063138    0.00009271   -0.00001679
     atom   96 type  2   force =    -0.00026526    0.00003595   -0.00036249
     atom   97 type  2   force =     0.00036922   -0.00026635    0.00002229
     atom   98 type  2   force =     0.00064061    0.00008289   -0.00026540
     atom   99 type  2   force =    -0.00003738   -0.00024302   -0.00026309
     atom  100 type  2   force =    -0.00022401   -0.00020873    0.00004831
     atom  101 type  2   force =     0.00001887    0.00030831    0.00016113
     atom  102 type  2   force =     0.00033007    0.00010297   -0.00042572
     atom  103 type  2   force =    -0.00032586   -0.00057442   -0.00037905
     atom  104 type  2   force =    -0.00011033   -0.00018785   -0.00012813
     atom  105 type  3   force =    -0.00044449   -0.00004232   -0.00045962
     atom  106 type  3   force =     0.00003612   -0.00014217    0.00033031
     atom  107 type  3   force =    -0.00015507   -0.00010977    0.00007783
     atom  108 type  3   force =     0.00013672    0.00068860   -0.00030044
     atom  109 type  3   force =     0.00034232    0.00018460   -0.00011080
     atom  110 type  3   force =    -0.00028861    0.00001006   -0.00005215
     atom  111 type  3   force =    -0.00001348    0.00001384   -0.00001876
     atom  112 type  3   force =    -0.00028920    0.00040332   -0.00023315
     atom  113 type  4   force =     0.00011653   -0.00033366   -0.00027392
     atom  114 type  4   force =    -0.00005233    0.00052555   -0.00033717
     atom  115 type  4   force =    -0.00001771    0.00028848   -0.00025975
     atom  116 type  4   force =    -0.00043996    0.00008246   -0.00005049
     atom  117 type  5   force =     0.00040188   -0.00074990   -0.00006210
     atom  118 type  5   force =    -0.00022526    0.00037492   -0.00013780
     atom  119 type  5   force =     0.00030253    0.00022731    0.00005412
     atom  120 type  5   force =    -0.00002342    0.00017171   -0.00012864
     atom  121 type  5   force =    -0.00005797   -0.00079484    0.00031892
     atom  122 type  5   force =     0.00022239    0.00003034   -0.00032799
     atom  123 type  5   force =    -0.00029784    0.00007309   -0.00039086
     atom  124 type  5   force =    -0.00000792    0.00039817   -0.00018974
     atom  125 type  5   force =    -0.00019682    0.00003165   -0.00005530
     atom  126 type  5   force =     0.00007777    0.00005163    0.00051891
     atom  127 type  5   force =     0.00058002   -0.00017239    0.00009318
     atom  128 type  5   force =    -0.00011045    0.00061037    0.00055340
     atom  129 type  5   force =    -0.00004842   -0.00014920    0.00003319
     atom  130 type  5   force =     0.00053424    0.00047711   -0.00032230
     atom  131 type  5   force =    -0.00028002    0.00028674    0.00042182
     atom  132 type  5   force =    -0.00013154   -0.00079596    0.00031069
     atom  133 type  5   force =    -0.00011177    0.00023933   -0.00010785
     atom  134 type  5   force =     0.00048999    0.00035639    0.00016718
     atom  135 type  5   force =    -0.00005651    0.00060214    0.00017865
     atom  136 type  5   force =     0.00023684   -0.00039599   -0.00011210
     atom  137 type  5   force =    -0.00004529   -0.00005151    0.00003647
     atom  138 type  5   force =    -0.00068470   -0.00021666    0.00030644
     atom  139 type  5   force =     0.00045484   -0.00020990    0.00017921
     atom  140 type  5   force =    -0.00003989   -0.00013599   -0.00015144

     Total force =     0.006280     Total SCF correction =     0.000100

     bfgs converged in  65 scf cycles and  64 bfgs steps
     (criteria: energy <  1.0E-04 Ry, force <  1.0E-03 Ry/Bohr)

     End of BFGS Geometry Optimization

     Final energy   =   -1987.6759002154 Ry
Begin final coordinates

ATOMIC_POSITIONS (crystal)
C             0.2893491100        0.9910025673        0.5513703392
C             0.0383786750        0.0451636813        0.0110212738
C             0.3896863827        0.0362431421        0.5785740076
C             0.1343710938        0.9871373431        0.0403003187
C             0.4486875448        0.9908004994        0.6858824035
C             0.1934279358        0.0198932098        0.1500017464
C             0.2115989587        0.5415763383        0.5171907213
C             0.4593525652        0.4465745096        0.0087539545
C             0.2429128414        0.6256136064        0.6036709327
C             0.4946494608        0.3684880699        0.1014886194
C             0.2516260699        0.9032216535        0.6207885244
C             0.0044771337        0.1247227326        0.1007577229
C             0.4078553609        0.8967900746        0.7464550650
C             0.1570264753        0.1015102048        0.2310574579
C             0.0951030404        0.5975869818        0.7331050358
C             0.3337552030        0.3759512779        0.2096446671
C             0.0621711332        0.5109481268        0.6559355746
C             0.2964555923        0.4576631679        0.1264614888
C             0.1196797173        0.4795155276        0.5473161144
C             0.3596212874        0.4991599310        0.0283372861
C             0.4306326745        0.1163585578        0.4875892059
C             0.1751556658        0.8969489879        0.9632314461
C             0.0786943234        0.3892396014        0.4686961458
C             0.3210285131        0.5940857307        0.9556543459
C             0.7735419718        0.9613617672        0.5219119809
C             0.5292983535       -0.0002961500        0.0594430550
C             0.8795922907        0.0038185114        0.5324850306
C             0.6373981912        0.9709166224        0.0632436309
C             0.9485708261        0.9538666906        0.6222547119
C             0.7054254223        0.0312803828        0.1486441869
C             0.7231884900        0.5350717942        0.5249096735
C             0.9646366800        0.4900102287        0.0579515014
C             0.7537403346        0.6162325465        0.6151341863
C             1.0017463428        0.4031302765        0.1315208891
C             0.7415113825        0.8837957103        0.6144823346
C             0.4917406600        0.0849810015        0.1335795141
C             0.9127423330        0.8738760851        0.7064321279
C             0.6628439728        0.1215580074        0.2149016328
C             0.5854580971        0.6179587233        0.7073477549
C             0.8339585445        0.3763914554        0.2187669018
C             0.5511519526        0.5352062986        0.6243658459
C             0.7923901878        0.4690251104        0.1534793467
C             0.6191931846        0.4890370232        0.5341587727
C             0.8587566002        0.5250709867        0.0652268850
C             0.9212894512        0.0957280271        0.4591011759
C             0.6769755439        0.8882527815        0.9749367280
C             0.5783835322        0.3974435344        0.4578030680
C             0.8195582317        0.6089192314        0.9761798597
C             0.5750644874        0.1322051267        0.7425322088
C             0.8888815299        0.0912568926        0.8759244446
C             0.3537672586        0.5922325439        0.3815585105
C             0.6113649970        0.4051045351        0.8848610379
C             0.6111468371        0.9273184898        0.4068060700
C             0.8461134631        0.9067557803        0.2076761773
C             0.8820036738        0.5707073995        0.4125495576
C             0.6579899197        0.6001440073        0.2104083212
H             0.2390157837        1.0238357211        0.4737335263
H             0.4723165905       -0.0444844671        0.9990233793
H             0.0307352367        0.9808121634        0.6330897514
H             0.2687891721        0.9808579923        0.1745327954
H             0.0202215219        0.5308663007        0.9951016902
H             0.3155588042        0.6708801258        0.5877160597
H             0.0840832195        0.3760035974        0.1286208666
H             0.1733505378        0.8685331443        0.6008295576
H             0.4078138032        0.1074373765        0.1330594302
H             0.4559473388        0.8597288424        0.8237851656
H             0.2030544245        0.1290051238        0.3153646975
H             0.0500920062        0.6245439625        0.8160298500
H             0.2860935546        0.3466776094        0.2888709552
H             0.4713668273        0.5030995184        0.6366110048
H             0.2187941175        0.4924310318        0.1449506083
H             0.8342884017        0.6486539968        0.6163594590
H             0.5741347060        0.3344121539        0.0961149570
H             0.6592358319        0.8562780279        0.6163594734
H             0.9290841642        0.1659600372        0.0849500256
H             0.9648489460        0.8389869390        0.7805481982
H             0.7156446734        0.1658177107        0.2807006978
H             0.5343043228        0.6505928639        0.7812355530
H             0.7826920730        0.3350460129        0.2862953911
H             0.9902636672        0.4677466248        0.6816676324
H             0.6382888073        0.1405304046        0.6712072822
H             0.5088865095        0.1868250166        0.7214381673
H             0.6087721051        0.1433351137        0.8410148716
H             0.8593345502        0.0650556791        0.7811379014
H             0.8297801357        0.0754612883        0.9504534553
H             0.9120216181        0.1756314569        0.8739655406
H             0.3838100328        0.5635719234        0.2896326996
H             0.3248476641        0.6746160223        0.3732187110
H             0.4155238878        0.5847767653        0.4583779375
H             0.6402523813        0.4303594130        0.7908963201
H             0.5891400952        0.3205352943        0.8840302266
H             0.6709587584        0.4220954139        0.9615777333
H             0.5737891102        0.9577089608        0.3180418564
H             0.5573909592        0.9389354153        0.4882476162
H             0.6332187136        0.8430088261        0.3976456244
H             0.9072205862        0.8865605810        0.1374200496
H             0.8835568363        0.9144259146        0.3050621804
H             0.7803457748        0.8494464478        0.2074726499
H             0.9205304522        0.5372019107        0.3281707674
H             0.8563653227        0.6534192866        0.3959591269
H             0.9365771505        0.5656858437        0.4972727008
H             0.5959095070        0.6198928689        0.1378289597
H             0.7249738967        0.6559898779        0.2089145448
H             0.6224574794        0.5961623332        0.3071864235
N             0.3118058035        0.8562436485        0.7162018769
N             0.0616610896        0.1499777822        0.2070494011
N             0.1860838411        0.6516619801        0.7071189813
N             0.4340017303        0.3367620256        0.1992622877
N             0.8089760537        0.8436217537        0.7038078438
N             0.5585846813        0.1442334815        0.2103560710
N             0.6871647178        0.6541405328        0.7035554587
N             0.9363951296        0.3478750753        0.2109511555
Ni            0.2491755469        0.7502459645        0.8376288656
Ni            0.5000951832        0.2472460341        0.3388928313
Ni            0.7487471092        0.7499430705        0.8369970383
Ni            0.9993769379        0.2447068933        0.3401493003
O             0.1293279539        0.3414789363        0.3783986697
O             0.3758606173        0.6479808455        0.8743559876
O             0.3712004167        0.1597988922        0.3985515440
O             0.1219031619        0.8472554162        0.8737893520
O             0.4801651107        0.3677131489        0.4678822367
O             0.2264112756        0.6314609867        0.9728264300
O             0.0207845811        0.1222271450        0.4697259375
O             0.2704274687        0.8602079715        0.9830630701
O             0.6322882060        0.3398078236        0.3796934257
O             0.8798774525        0.6578366274        0.8959609047
O             0.8662336899        0.1570325982        0.3833431420
O             0.6156874805        0.8332765595        0.8988047476
O             0.9842395058        0.3517682765        0.4867171259
O             0.7208623276        0.6375235468        0.9691384871
O             0.5292791396        0.1447337037        0.4842898498
O             0.7770356928        0.8661174541        0.9651376727
O             0.5389377730        0.0225633980        0.7420706023
O             0.9832194264        0.0264121953        0.9035205654
O             0.2647893111        0.5224458338        0.4111257325
O             0.5166094800        0.4692683825        0.9070973196
O             0.7075074825        0.9906244240        0.4275303669
O             0.8071874864        0.0129139654        0.1783419298
O             0.7888381922        0.5047092106        0.4342007986
O             0.6936433827        0.4922420037        0.1865683977
End final coordinates



     Writing output data file /nfs/hpc/share/gantzlen/NiPyC2_relax_sc211_meta_functionalized_O-CH3_pbesol_relax_frozen_parent_atoms_Round2.save/
 
     init_run     :     43.79s CPU     44.88s WALL (       1 calls)
     electrons    :  66928.94s CPU  69165.06s WALL (      65 calls)
     update_pot   :    411.20s CPU    421.90s WALL (      64 calls)
     forces       :   1311.00s CPU   1333.06s WALL (      65 calls)

     Called by init_run:
     wfcinit      :     36.56s CPU     37.47s WALL (       1 calls)
     potinit      :      2.90s CPU      3.02s WALL (       1 calls)
     hinit0       :      2.55s CPU      2.59s WALL (       1 calls)

     Called by electrons:
     c_bands      :  63510.66s CPU  65311.57s WALL (     866 calls)
     sum_band     :   2145.65s CPU   2399.30s WALL (     866 calls)
     v_of_rho     :    635.09s CPU    701.82s WALL (     919 calls)
     mix_rho      :    635.35s CPU    721.12s WALL (     866 calls)

     Called by c_bands:
     init_us_2    :     43.39s CPU     44.46s WALL (    1733 calls)
     regterg      :  63415.95s CPU  65068.41s WALL (     866 calls)

     Called by sum_band:

     Called by *egterg:
     h_psi        :  21516.75s CPU  22594.66s WALL (    2969 calls)
     g_psi        :     14.49s CPU     14.57s WALL (    2102 calls)
     rdiaghg      :   1765.88s CPU   1785.27s WALL (    2892 calls)

     Called by h_psi:
     h_psi:calbec :   7216.97s CPU   7291.12s WALL (    2969 calls)
     vloc_psi     :   7673.44s CPU   8660.34s WALL (    2969 calls)
     add_vuspsi   :   6577.44s CPU   6594.00s WALL (    2969 calls)

     General routines
     calbec       :   8188.97s CPU   8272.49s WALL (    3229 calls)
     fft          :    416.26s CPU    485.69s WALL (   14523 calls)
     ffts         :    435.74s CPU    500.43s WALL (   15145 calls)
     fftw         :   7967.05s CPU   9168.25s WALL (  714930 calls)
 
     Parallel routines
     fft_scatt_xy :   1995.30s CPU   2013.45s WALL (  744598 calls)
     fft_scatt_yz :   1405.16s CPU   2675.91s WALL (  744598 calls)
 
     PWSCF        :     19h 5m CPU     19h43m WALL

 
   This run was terminated on:   6: 5:42   9Jul2020            

=------------------------------------------------------------------------------=
   JOB DONE.
=------------------------------------------------------------------------------=
QE finished Thu Jul 9 06:05:42 PDT 2020
