22
	Energy:      25.1112556
N         -3.22790       -1.15046        0.11696
C         -4.30150       -0.32799        0.06453
C         -1.95814       -0.67289        0.09534
C         -4.12534        1.04910       -0.01406
H         -5.29938       -0.74558        0.08396
C         -1.70819        0.71749        0.01632
H         -1.15138       -1.38753        0.14031
C         -2.83154        1.60162       -0.03990
H         -5.00243        1.68254       -0.05468
C         -2.71244        3.09408       -0.12541
O         -1.62602        3.64689       -0.15223
O         -3.82440        3.85482       -0.17445
C         -0.27843        1.25355       -0.00792
C          0.84796        0.20776        0.05767
H         -0.15092        1.93179        0.86370
H         -0.14245        1.82715       -0.95051
C          2.22109        0.87443        0.02564
H          0.77370       -0.48025       -0.81256
H          0.76521       -0.37567        1.00050
H          2.34827        1.45318       -0.91403
H          3.01326        0.09780        0.07415
H          2.33980        1.55746        0.89367
