15
	Energy:      14.1269315
N         -1.01635       -0.61219       -0.00043
C          0.22009       -0.04395        0.00135
C         -2.14779        0.14093       -0.00232
C         -2.06422        1.53478       -0.00247
H         -3.11537       -0.34293       -0.00371
C         -0.80422        2.15531       -0.00065
H         -2.97396        2.12212       -0.00398
C          0.34736        1.35191        0.00127
H          1.33278        1.80161        0.00270
C         -0.68854        3.63473       -0.00077
N          1.37059       -0.86675        0.00328
H          1.27306       -1.89237        0.00334
H          2.31402       -0.45196        0.00465
O         -1.69027        4.33339       -0.00245
O          0.52421        4.22253        0.00098
