13
	Energy:      17.7472923
N         -2.25732       -1.59923        0.00000
C         -3.44399       -0.94218        0.00000
C         -1.07539       -0.93114       -0.00000
C         -3.47470        0.45198        0.00000
H         -4.36880       -1.50358        0.00001
C         -1.04729        0.46886       -0.00000
H         -0.14948       -1.49107       -0.00000
C         -2.27400        1.18553       -0.00000
H         -4.43400        0.95398        0.00000
Br         0.68233        1.30814       -0.00000
C         -2.34896        2.67720       -0.00000
O         -1.33990        3.36146       -0.00000
O         -3.54907        3.29116        0.00000
