units           real
atom_style      full
boundary        p p p

pair_style      lj/cut 5.000
bond_style      harmonic
angle_style     hybrid cosine/periodic fourier
dihedral_style  harmonic
improper_style  fourier

pair_modify     tail yes mix arithmetic
dielectric      1.0
special_bonds   lj/coul 0.0 0.0 1.0
box tilt        large
read_data       data.NiPyC2_relax_sc211_ortho_functionalized_SH
  triclinic box = (0 0 0) to (12.5056 12.5234 10.2743) with tilt (0 -0.227594 0)
  1 by 1 by 1 MPI processor grid
  reading atoms ...
  116 atoms
  scanning bonds ...
  6 = max bonds/atom
  scanning angles ...
  15 = max angles/atom
  scanning dihedrals ...
  8 = max dihedrals/atom
  scanning impropers ...
  3 = max impropers/atom
  reading bonds ...
  136 bonds
  reading angles ...
  252 angles
  reading dihedrals ...
  272 dihedrals
  reading impropers ...
  168 impropers
  6 = max # of 1-2 neighbors
  9 = max # of 1-3 neighbors
  12 = max # of special neighbors
  special bonds CPU = 0.00016421 secs
  read_data CPU = 0.00544792 secs

#### Atom Groupings ####
group           fram     id   1:116
116 atoms in group fram
#### END Atom Groupings ####

dump            NiPyC2_relax_sc211_ortho_functionalized_SH_xyzmov all xyz 20000 NiPyC2_relax_sc211_ortho_functionalized_SH_mov.xyz
dump_modify     NiPyC2_relax_sc211_ortho_functionalized_SH_xyzmov element Ni O N C H S
min_style       cg
print           "MinStep,CellMinStep,AtomMinStep,FinalStep,Energy,EDiff" file NiPyC2_relax_sc211_ortho_functionalized_SH.min.csv screen no
variable        min_eval   equal 1.00e-06
variable        prev_E     equal 50000.00
variable        iter       loop 100000
label           loop_min
min_style       cg
fix             1 all box/relax aniso 0.0 vmax 0.01
minimize        1.0e-15 1.0e-15 10000 100000
WARNING: Using 'neigh_modify every 1 delay 0 check yes' setting during minimization (src/min.cpp:190)
Neighbor list info ...
  update every 1 steps, delay 0 steps, check yes
  max neighbors/atom: 2000, page size: 100000
  master list distance cutoff = 7
  ghost atom cutoff = 7
  binsize = 3.5, bins = 4 4 3
  1 neighbor lists, perpetual/occasional/extra = 1 0 0
  (1) pair lj/cut, perpetual
      attributes: half, newton on
      pair build: half/bin/newton/tri
      stencil: half/bin/3d/newton/tri
      bin: standard
WARNING: Inconsistent image flags (src/domain.cpp:785)
WARNING: Bond/angle/dihedral extent > half of periodic box length (src/domain.cpp:906)
Per MPI rank memory allocation (min/avg/max) = 16.88 | 16.88 | 16.88 Mbytes
Step Temp E_pair E_mol TotEng Press Volume 
       0            0     7962.589    2452.8672    10415.456    1301150.7    1609.0819 
     137            0    121.41044    1581.4462    1702.8566    34.278169    1618.1676 
WARNING: Bond/angle/dihedral extent > half of periodic box length (src/domain.cpp:906)
Loop time of 0.0559894 on 1 procs for 137 steps with 116 atoms

100.0% CPU use with 1 MPI tasks x 1 OpenMP threads

Minimization stats:
  Stopping criterion = linesearch alpha is zero
  Energy initial, next-to-last, final = 
         10415.4562674      1702.85664337      1702.85664337
  Force two-norm initial, final = 75407.6 1137.84
  Force max component initial, final = 66604.4 747.014
  Final line search alpha, max atom move = 6.32782e-15 4.72697e-12
  Iterations, force evaluations = 137 386

MPI task timing breakdown:
Section |  min time  |  avg time  |  max time  |%varavg| %total
---------------------------------------------------------------
Pair    | 0.023736   | 0.023736   | 0.023736   |   0.0 | 42.39
Bond    | 0.021087   | 0.021087   | 0.021087   |   0.0 | 37.66
Neigh   | 0.0026459  | 0.0026459  | 0.0026459  |   0.0 |  4.73
Comm    | 0.0018304  | 0.0018304  | 0.0018304  |   0.0 |  3.27
Output  | 0          | 0          | 0          |   0.0 |  0.00
Modify  | 0          | 0          | 0          |   0.0 |  0.00
Other   |            | 0.00669    |            |       | 11.95

Nlocal:    116 ave 116 max 116 min
Histogram: 1 0 0 0 0 0 0 0 0 0
Nghost:    1202 ave 1202 max 1202 min
Histogram: 1 0 0 0 0 0 0 0 0 0
Neighs:    5379 ave 5379 max 5379 min
Histogram: 1 0 0 0 0 0 0 0 0 0

Total # of neighbors = 5379
Ave neighs/atom = 46.3707
Ave special neighs/atom = 6.41379
Neighbor list builds = 5
Dangerous builds = 0
unfix           1
min_style       fire
variable        tempstp    equal $(step)
variable        tempstp    equal 137
variable        CellMinStep equal ${tempstp}
variable        CellMinStep equal 137
minimize        1.0e-15 1.0e-15 10000 100000
WARNING: Using 'neigh_modify every 1 delay 0 check yes' setting during minimization (src/min.cpp:190)
  Parameters for fire: 
    dmax delaystep dtgrow dtshrink alpha0 alphashrink tmax tmin    integrator halfstepback 
     0.1        20    1.1      0.5   0.25        0.99   10 0.02 eulerimplicit          yes 
WARNING: Inconsistent image flags (src/domain.cpp:785)
WARNING: Bond/angle/dihedral extent > half of periodic box length (src/domain.cpp:906)
Per MPI rank memory allocation (min/avg/max) = 15.76 | 15.76 | 15.76 Mbytes
Step Temp E_pair E_mol TotEng Press 
     137            0    121.41044    1581.4462    1702.8566    34.278169 
   10137   0.23717365    119.80076    1571.1783    1691.0603   -378.65465 
WARNING: Bond/angle/dihedral extent > half of periodic box length (src/domain.cpp:906)
Loop time of 1.14563 on 1 procs for 10000 steps with 116 atoms

99.9% CPU use with 1 MPI tasks x 1 OpenMP threads

Minimization stats:
  Stopping criterion = max iterations
  Energy initial, next-to-last, final = 
         1702.85664337      1690.92752659      1690.97904808
  Force two-norm initial, final = 1137.53 1473.71
  Force max component initial, final = 747.014 1013.05
  Final line search alpha, max atom move = 0 0
  Iterations, force evaluations = 10000 10000

MPI task timing breakdown:
Section |  min time  |  avg time  |  max time  |%varavg| %total
---------------------------------------------------------------
Pair    | 0.56556    | 0.56556    | 0.56556    |   0.0 | 49.37
Bond    | 0.50113    | 0.50113    | 0.50113    |   0.0 | 43.74
Neigh   | 0          | 0          | 0          |   0.0 |  0.00
Comm    | 0.045175   | 0.045175   | 0.045175   |   0.0 |  3.94
Output  | 2.6742e-05 | 2.6742e-05 | 2.6742e-05 |   0.0 |  0.00
Modify  | 0          | 0          | 0          |   0.0 |  0.00
Other   |            | 0.03374    |            |       |  2.95

Nlocal:    116 ave 116 max 116 min
Histogram: 1 0 0 0 0 0 0 0 0 0
Nghost:    1194 ave 1194 max 1194 min
Histogram: 1 0 0 0 0 0 0 0 0 0
Neighs:    5343 ave 5343 max 5343 min
Histogram: 1 0 0 0 0 0 0 0 0 0

Total # of neighbors = 5343
Ave neighs/atom = 46.0603
Ave special neighs/atom = 6.41379
Neighbor list builds = 0
Dangerous builds = 0
variable        AtomMinStep equal ${tempstp}
variable        AtomMinStep equal 137
variable        temppe     equal $(pe)
variable        temppe     equal 1690.979048075965693
variable        min_E      equal abs(${prev_E}-${temppe})
variable        min_E      equal abs(50000-${temppe})
variable        min_E      equal abs(50000-1690.97904807597)
print           "${iter},${CellMinStep},${AtomMinStep},${AtomMinStep},$(pe),${min_E}" append NiPyC2_relax_sc211_ortho_functionalized_SH.min.csv screen no
if              "${min_E} < ${min_eval}" then "jump SELF break_min"
variable        prev_E     equal ${temppe}
variable        prev_E     equal 1690.97904807597
next            iter
jump            SELF loop_min
min_style       cg
fix             1 all box/relax aniso 0.0 vmax 0.01
minimize        1.0e-15 1.0e-15 10000 100000
WARNING: Using 'neigh_modify every 1 delay 0 check yes' setting during minimization (src/min.cpp:190)
WARNING: Inconsistent image flags (src/domain.cpp:785)
WARNING: Bond/angle/dihedral extent > half of periodic box length (src/domain.cpp:906)
Per MPI rank memory allocation (min/avg/max) = 16.88 | 16.88 | 16.88 Mbytes
Step Temp E_pair E_mol TotEng Press Volume 
   10137   0.23717365    119.80076    1571.1783    1691.0603   -378.65465    1618.1676 
   10147   0.23717365    120.48964    1570.2677    1690.8387    210.95671    1616.9016 
WARNING: Bond/angle/dihedral extent > half of periodic box length (src/domain.cpp:906)
Loop time of 0.0215458 on 1 procs for 10 steps with 116 atoms

98.0% CPU use with 1 MPI tasks x 1 OpenMP threads

Minimization stats:
  Stopping criterion = linesearch alpha is zero
  Energy initial, next-to-last, final = 
         1690.97904808       1690.7573828       1690.7573828
  Force two-norm initial, final = 1476.17 678.559
  Force max component initial, final = 1013.05 420.755
  Final line search alpha, max atom move = 4.67723e-14 1.96797e-11
  Iterations, force evaluations = 10 156

MPI task timing breakdown:
Section |  min time  |  avg time  |  max time  |%varavg| %total
---------------------------------------------------------------
Pair    | 0.0094043  | 0.0094043  | 0.0094043  |   0.0 | 43.65
Bond    | 0.0083973  | 0.0083973  | 0.0083973  |   0.0 | 38.97
Neigh   | 0          | 0          | 0          |   0.0 |  0.00
Comm    | 0.00069358 | 0.00069358 | 0.00069358 |   0.0 |  3.22
Output  | 0          | 0          | 0          |   0.0 |  0.00
Modify  | 0          | 0          | 0          |   0.0 |  0.00
Other   |            | 0.003051   |            |       | 14.16

Nlocal:    116 ave 116 max 116 min
Histogram: 1 0 0 0 0 0 0 0 0 0
Nghost:    1188 ave 1188 max 1188 min
Histogram: 1 0 0 0 0 0 0 0 0 0
Neighs:    5325 ave 5325 max 5325 min
Histogram: 1 0 0 0 0 0 0 0 0 0

Total # of neighbors = 5325
Ave neighs/atom = 45.9052
Ave special neighs/atom = 6.41379
Neighbor list builds = 0
Dangerous builds = 0
unfix           1
min_style       fire
variable        tempstp    equal $(step)
variable        tempstp    equal 10147
variable        CellMinStep equal ${tempstp}
variable        CellMinStep equal 10147
minimize        1.0e-15 1.0e-15 10000 100000
WARNING: Using 'neigh_modify every 1 delay 0 check yes' setting during minimization (src/min.cpp:190)
  Parameters for fire: 
    dmax delaystep dtgrow dtshrink alpha0 alphashrink tmax tmin    integrator halfstepback 
     0.1        20    1.1      0.5   0.25        0.99   10 0.02 eulerimplicit          yes 
WARNING: Inconsistent image flags (src/domain.cpp:785)
WARNING: Bond/angle/dihedral extent > half of periodic box length (src/domain.cpp:906)
Per MPI rank memory allocation (min/avg/max) = 15.76 | 15.76 | 15.76 Mbytes
Step Temp E_pair E_mol TotEng Press 
   10147            0    120.48964    1570.2677    1690.7574    208.65819 
   13451 1.2093776e-10    98.420884    1523.1797    1621.6006   -6451.2414 
WARNING: Bond/angle/dihedral extent > half of periodic box length (src/domain.cpp:906)
Loop time of 0.372312 on 1 procs for 3304 steps with 116 atoms

99.9% CPU use with 1 MPI tasks x 1 OpenMP threads

Minimization stats:
  Stopping criterion = energy tolerance
  Energy initial, next-to-last, final = 
          1690.7573828      1621.60057107      1621.60057107
  Force two-norm initial, final = 678.369 5.17146e-05
  Force max component initial, final = 420.755 9.09824e-06
  Final line search alpha, max atom move = 0 0
  Iterations, force evaluations = 3304 3304

MPI task timing breakdown:
Section |  min time  |  avg time  |  max time  |%varavg| %total
---------------------------------------------------------------
Pair    | 0.18223    | 0.18223    | 0.18223    |   0.0 | 48.95
Bond    | 0.16241    | 0.16241    | 0.16241    |   0.0 | 43.62
Neigh   | 0.0014083  | 0.0014083  | 0.0014083  |   0.0 |  0.38
Comm    | 0.014782   | 0.014782   | 0.014782   |   0.0 |  3.97
Output  | 0          | 0          | 0          |   0.0 |  0.00
Modify  | 0          | 0          | 0          |   0.0 |  0.00
Other   |            | 0.01148    |            |       |  3.08

Nlocal:    116 ave 116 max 116 min
Histogram: 1 0 0 0 0 0 0 0 0 0
Nghost:    1200 ave 1200 max 1200 min
Histogram: 1 0 0 0 0 0 0 0 0 0
Neighs:    5367 ave 5367 max 5367 min
Histogram: 1 0 0 0 0 0 0 0 0 0

Total # of neighbors = 5367
Ave neighs/atom = 46.2672
Ave special neighs/atom = 6.41379
Neighbor list builds = 3
Dangerous builds = 0
variable        AtomMinStep equal ${tempstp}
variable        AtomMinStep equal 10147
variable        temppe     equal $(pe)
variable        temppe     equal 1621.600571069237958
variable        min_E      equal abs(${prev_E}-${temppe})
variable        min_E      equal abs(1690.97904807597-${temppe})
variable        min_E      equal abs(1690.97904807597-1621.60057106924)
print           "${iter},${CellMinStep},${AtomMinStep},${AtomMinStep},$(pe),${min_E}" append NiPyC2_relax_sc211_ortho_functionalized_SH.min.csv screen no
if              "${min_E} < ${min_eval}" then "jump SELF break_min"
variable        prev_E     equal ${temppe}
variable        prev_E     equal 1621.60057106924
next            iter
jump            SELF loop_min
min_style       cg
fix             1 all box/relax aniso 0.0 vmax 0.01
minimize        1.0e-15 1.0e-15 10000 100000
WARNING: Using 'neigh_modify every 1 delay 0 check yes' setting during minimization (src/min.cpp:190)
WARNING: Inconsistent image flags (src/domain.cpp:785)
WARNING: Bond/angle/dihedral extent > half of periodic box length (src/domain.cpp:906)
Per MPI rank memory allocation (min/avg/max) = 16.88 | 16.88 | 16.88 Mbytes
Step Temp E_pair E_mol TotEng Press Volume 
   13451 1.2093776e-10    98.420884    1523.1797    1621.6006   -6451.2414    1616.9016 
   13460 1.2093776e-10    106.63208    1513.4893    1620.1214   -145.32126    1602.2324 
WARNING: Bond/angle/dihedral extent > half of periodic box length (src/domain.cpp:906)
Loop time of 0.0104088 on 1 procs for 9 steps with 116 atoms

100.0% CPU use with 1 MPI tasks x 1 OpenMP threads

Minimization stats:
  Stopping criterion = linesearch alpha is zero
  Energy initial, next-to-last, final = 
         1621.60057107       1620.1214211       1620.1214211
  Force two-norm initial, final = 303.242 22.5754
  Force max component initial, final = 274.185 6.87851
  Final line search alpha, max atom move = 1.60722e-11 1.10552e-10
  Iterations, force evaluations = 9 69

MPI task timing breakdown:
Section |  min time  |  avg time  |  max time  |%varavg| %total
---------------------------------------------------------------
Pair    | 0.0046177  | 0.0046177  | 0.0046177  |   0.0 | 44.36
Bond    | 0.0040447  | 0.0040447  | 0.0040447  |   0.0 | 38.86
Neigh   | 0          | 0          | 0          |   0.0 |  0.00
Comm    | 0.00034347 | 0.00034347 | 0.00034347 |   0.0 |  3.30
Output  | 0          | 0          | 0          |   0.0 |  0.00
Modify  | 0          | 0          | 0          |   0.0 |  0.00
Other   |            | 0.001403   |            |       | 13.48

Nlocal:    116 ave 116 max 116 min
Histogram: 1 0 0 0 0 0 0 0 0 0
Nghost:    1204 ave 1204 max 1204 min
Histogram: 1 0 0 0 0 0 0 0 0 0
Neighs:    5376 ave 5376 max 5376 min
Histogram: 1 0 0 0 0 0 0 0 0 0

Total # of neighbors = 5376
Ave neighs/atom = 46.3448
Ave special neighs/atom = 6.41379
Neighbor list builds = 0
Dangerous builds = 0
unfix           1
min_style       fire
variable        tempstp    equal $(step)
variable        tempstp    equal 13460
variable        CellMinStep equal ${tempstp}
variable        CellMinStep equal 13460
minimize        1.0e-15 1.0e-15 10000 100000
WARNING: Using 'neigh_modify every 1 delay 0 check yes' setting during minimization (src/min.cpp:190)
  Parameters for fire: 
    dmax delaystep dtgrow dtshrink alpha0 alphashrink tmax tmin    integrator halfstepback 
     0.1        20    1.1      0.5   0.25        0.99   10 0.02 eulerimplicit          yes 
WARNING: Inconsistent image flags (src/domain.cpp:785)
WARNING: Bond/angle/dihedral extent > half of periodic box length (src/domain.cpp:906)
Per MPI rank memory allocation (min/avg/max) = 15.76 | 15.76 | 15.76 Mbytes
Step Temp E_pair E_mol TotEng Press 
   13460            0    106.63208    1513.4893    1620.1214   -145.32126 
   15732 1.0168526e-10    102.89242    1516.6731    1619.5655   -1043.5799 
WARNING: Bond/angle/dihedral extent > half of periodic box length (src/domain.cpp:906)
Loop time of 0.257922 on 1 procs for 2272 steps with 116 atoms

99.9% CPU use with 1 MPI tasks x 1 OpenMP threads

Minimization stats:
  Stopping criterion = energy tolerance
  Energy initial, next-to-last, final = 
          1620.1214211      1619.56554404      1619.56554404
  Force two-norm initial, final = 20.8545 4.38194e-05
  Force max component initial, final = 2.85022 7.80995e-06
  Final line search alpha, max atom move = 0 0
  Iterations, force evaluations = 2272 2272

MPI task timing breakdown:
Section |  min time  |  avg time  |  max time  |%varavg| %total
---------------------------------------------------------------
Pair    | 0.12725    | 0.12725    | 0.12725    |   0.0 | 49.34
Bond    | 0.11231    | 0.11231    | 0.11231    |   0.0 | 43.54
Neigh   | 0          | 0          | 0          |   0.0 |  0.00
Comm    | 0.010364   | 0.010364   | 0.010364   |   0.0 |  4.02
Output  | 0          | 0          | 0          |   0.0 |  0.00
Modify  | 0          | 0          | 0          |   0.0 |  0.00
Other   |            | 0.007996   |            |       |  3.10

Nlocal:    116 ave 116 max 116 min
Histogram: 1 0 0 0 0 0 0 0 0 0
Nghost:    1224 ave 1224 max 1224 min
Histogram: 1 0 0 0 0 0 0 0 0 0
Neighs:    5440 ave 5440 max 5440 min
Histogram: 1 0 0 0 0 0 0 0 0 0

Total # of neighbors = 5440
Ave neighs/atom = 46.8966
Ave special neighs/atom = 6.41379
Neighbor list builds = 0
Dangerous builds = 0
variable        AtomMinStep equal ${tempstp}
variable        AtomMinStep equal 13460
variable        temppe     equal $(pe)
variable        temppe     equal 1619.5655440438342794
variable        min_E      equal abs(${prev_E}-${temppe})
variable        min_E      equal abs(1621.60057106924-${temppe})
variable        min_E      equal abs(1621.60057106924-1619.56554404383)
print           "${iter},${CellMinStep},${AtomMinStep},${AtomMinStep},$(pe),${min_E}" append NiPyC2_relax_sc211_ortho_functionalized_SH.min.csv screen no
if              "${min_E} < ${min_eval}" then "jump SELF break_min"
variable        prev_E     equal ${temppe}
variable        prev_E     equal 1619.56554404383
next            iter
jump            SELF loop_min
min_style       cg
fix             1 all box/relax aniso 0.0 vmax 0.01
minimize        1.0e-15 1.0e-15 10000 100000
WARNING: Using 'neigh_modify every 1 delay 0 check yes' setting during minimization (src/min.cpp:190)
WARNING: Inconsistent image flags (src/domain.cpp:785)
WARNING: Bond/angle/dihedral extent > half of periodic box length (src/domain.cpp:906)
Per MPI rank memory allocation (min/avg/max) = 16.88 | 16.88 | 16.88 Mbytes
Step Temp E_pair E_mol TotEng Press Volume 
   15732 1.0168526e-10    102.89242    1516.6731    1619.5655   -1043.5799    1602.2324 
   15738 1.0168526e-10    104.96084    1514.3549    1619.3157    104.12603    1598.9149 
WARNING: Bond/angle/dihedral extent > half of periodic box length (src/domain.cpp:906)
Loop time of 0.00886249 on 1 procs for 6 steps with 116 atoms

100.0% CPU use with 1 MPI tasks x 1 OpenMP threads

Minimization stats:
  Stopping criterion = linesearch alpha is zero
  Energy initial, next-to-last, final = 
         1619.56554404      1619.31570515      1619.31570515
  Force two-norm initial, final = 122.252 31.0923
  Force max component initial, final = 111.91 18.6719
  Final line search alpha, max atom move = 1.15003e-11 2.14732e-10
  Iterations, force evaluations = 6 63

MPI task timing breakdown:
Section |  min time  |  avg time  |  max time  |%varavg| %total
---------------------------------------------------------------
Pair    | 0.0039308  | 0.0039308  | 0.0039308  |   0.0 | 44.35
Bond    | 0.0034708  | 0.0034708  | 0.0034708  |   0.0 | 39.16
Neigh   | 0          | 0          | 0          |   0.0 |  0.00
Comm    | 0.00029548 | 0.00029548 | 0.00029548 |   0.0 |  3.33
Output  | 0          | 0          | 0          |   0.0 |  0.00
Modify  | 0          | 0          | 0          |   0.0 |  0.00
Other   |            | 0.001165   |            |       | 13.15

Nlocal:    116 ave 116 max 116 min
Histogram: 1 0 0 0 0 0 0 0 0 0
Nghost:    1218 ave 1218 max 1218 min
Histogram: 1 0 0 0 0 0 0 0 0 0
Neighs:    5438 ave 5438 max 5438 min
Histogram: 1 0 0 0 0 0 0 0 0 0

Total # of neighbors = 5438
Ave neighs/atom = 46.8793
Ave special neighs/atom = 6.41379
Neighbor list builds = 0
Dangerous builds = 0
unfix           1
min_style       fire
variable        tempstp    equal $(step)
variable        tempstp    equal 15738
variable        CellMinStep equal ${tempstp}
variable        CellMinStep equal 15738
minimize        1.0e-15 1.0e-15 10000 100000
WARNING: Using 'neigh_modify every 1 delay 0 check yes' setting during minimization (src/min.cpp:190)
  Parameters for fire: 
    dmax delaystep dtgrow dtshrink alpha0 alphashrink tmax tmin    integrator halfstepback 
     0.1        20    1.1      0.5   0.25        0.99   10 0.02 eulerimplicit          yes 
WARNING: Inconsistent image flags (src/domain.cpp:785)
WARNING: Bond/angle/dihedral extent > half of periodic box length (src/domain.cpp:906)
Per MPI rank memory allocation (min/avg/max) = 15.76 | 15.76 | 15.76 Mbytes
Step Temp E_pair E_mol TotEng Press 
   15738            0    104.96084    1514.3549    1619.3157    104.12603 
   17954 1.2359909e-10    103.97011    1515.2016    1619.1717    214.91338 
WARNING: Bond/angle/dihedral extent > half of periodic box length (src/domain.cpp:906)
Loop time of 0.250918 on 1 procs for 2216 steps with 116 atoms

100.0% CPU use with 1 MPI tasks x 1 OpenMP threads

Minimization stats:
  Stopping criterion = energy tolerance
  Energy initial, next-to-last, final = 
         1619.31570515      1619.17170973      1619.17170973
  Force two-norm initial, final = 21.2398 4.65459e-05
  Force max component initial, final = 4.53514 7.27548e-06
  Final line search alpha, max atom move = 0 0
  Iterations, force evaluations = 2216 2216

MPI task timing breakdown:
Section |  min time  |  avg time  |  max time  |%varavg| %total
---------------------------------------------------------------
Pair    | 0.12366    | 0.12366    | 0.12366    |   0.0 | 49.28
Bond    | 0.10915    | 0.10915    | 0.10915    |   0.0 | 43.50
Neigh   | 0          | 0          | 0          |   0.0 |  0.00
Comm    | 0.010228   | 0.010228   | 0.010228   |   0.0 |  4.08
Output  | 0          | 0          | 0          |   0.0 |  0.00
Modify  | 0          | 0          | 0          |   0.0 |  0.00
Other   |            | 0.007871   |            |       |  3.14

Nlocal:    116 ave 116 max 116 min
Histogram: 1 0 0 0 0 0 0 0 0 0
Nghost:    1224 ave 1224 max 1224 min
Histogram: 1 0 0 0 0 0 0 0 0 0
Neighs:    5455 ave 5455 max 5455 min
Histogram: 1 0 0 0 0 0 0 0 0 0

Total # of neighbors = 5455
Ave neighs/atom = 47.0259
Ave special neighs/atom = 6.41379
Neighbor list builds = 0
Dangerous builds = 0
variable        AtomMinStep equal ${tempstp}
variable        AtomMinStep equal 15738
variable        temppe     equal $(pe)
variable        temppe     equal 1619.1717097265734537
variable        min_E      equal abs(${prev_E}-${temppe})
variable        min_E      equal abs(1619.56554404383-${temppe})
variable        min_E      equal abs(1619.56554404383-1619.17170972657)
print           "${iter},${CellMinStep},${AtomMinStep},${AtomMinStep},$(pe),${min_E}" append NiPyC2_relax_sc211_ortho_functionalized_SH.min.csv screen no
if              "${min_E} < ${min_eval}" then "jump SELF break_min"
variable        prev_E     equal ${temppe}
variable        prev_E     equal 1619.17170972657
next            iter
jump            SELF loop_min
min_style       cg
fix             1 all box/relax aniso 0.0 vmax 0.01
minimize        1.0e-15 1.0e-15 10000 100000
WARNING: Using 'neigh_modify every 1 delay 0 check yes' setting during minimization (src/min.cpp:190)
WARNING: Inconsistent image flags (src/domain.cpp:785)
WARNING: Bond/angle/dihedral extent > half of periodic box length (src/domain.cpp:906)
Per MPI rank memory allocation (min/avg/max) = 16.88 | 16.88 | 16.88 Mbytes
Step Temp E_pair E_mol TotEng Press Volume 
   17954 1.2359909e-10    103.97011    1515.2016    1619.1717    214.91338    1598.9149 
   17955 1.2359909e-10    103.97011    1515.2016    1619.1717    214.91338    1598.9149 
WARNING: Bond/angle/dihedral extent > half of periodic box length (src/domain.cpp:906)
Loop time of 0.00788199 on 1 procs for 1 steps with 116 atoms

100.0% CPU use with 1 MPI tasks x 1 OpenMP threads

Minimization stats:
  Stopping criterion = linesearch alpha is zero
  Energy initial, next-to-last, final = 
         1619.17170973      1619.17170973      1619.17170973
  Force two-norm initial, final = 108.029 108.029
  Force max component initial, final = 80.2571 80.2571
  Final line search alpha, max atom move = 9.28339e-13 7.45058e-11
  Iterations, force evaluations = 1 55

MPI task timing breakdown:
Section |  min time  |  avg time  |  max time  |%varavg| %total
---------------------------------------------------------------
Pair    | 0.0034798  | 0.0034798  | 0.0034798  |   0.0 | 44.15
Bond    | 0.0030622  | 0.0030622  | 0.0030622  |   0.0 | 38.85
Neigh   | 0          | 0          | 0          |   0.0 |  0.00
Comm    | 0.00027661 | 0.00027661 | 0.00027661 |   0.0 |  3.51
Output  | 0          | 0          | 0          |   0.0 |  0.00
Modify  | 0          | 0          | 0          |   0.0 |  0.00
Other   |            | 0.001063   |            |       | 13.49

Nlocal:    116 ave 116 max 116 min
Histogram: 1 0 0 0 0 0 0 0 0 0
Nghost:    1224 ave 1224 max 1224 min
Histogram: 1 0 0 0 0 0 0 0 0 0
Neighs:    5442 ave 5442 max 5442 min
Histogram: 1 0 0 0 0 0 0 0 0 0

Total # of neighbors = 5442
Ave neighs/atom = 46.9138
Ave special neighs/atom = 6.41379
Neighbor list builds = 0
Dangerous builds = 0
unfix           1
min_style       fire
variable        tempstp    equal $(step)
variable        tempstp    equal 17955
variable        CellMinStep equal ${tempstp}
variable        CellMinStep equal 17955
minimize        1.0e-15 1.0e-15 10000 100000
WARNING: Using 'neigh_modify every 1 delay 0 check yes' setting during minimization (src/min.cpp:190)
  Parameters for fire: 
    dmax delaystep dtgrow dtshrink alpha0 alphashrink tmax tmin    integrator halfstepback 
     0.1        20    1.1      0.5   0.25        0.99   10 0.02 eulerimplicit          yes 
WARNING: Inconsistent image flags (src/domain.cpp:785)
WARNING: Bond/angle/dihedral extent > half of periodic box length (src/domain.cpp:906)
Per MPI rank memory allocation (min/avg/max) = 15.76 | 15.76 | 15.76 Mbytes
Step Temp E_pair E_mol TotEng Press 
   17955            0    103.97011    1515.2016    1619.1717    214.91338 
   18010 7.7139643e-11    103.97011    1515.2016    1619.1717    214.91292 
WARNING: Bond/angle/dihedral extent > half of periodic box length (src/domain.cpp:906)
Loop time of 0.00686683 on 1 procs for 55 steps with 116 atoms

100.0% CPU use with 1 MPI tasks x 1 OpenMP threads

Minimization stats:
  Stopping criterion = energy tolerance
  Energy initial, next-to-last, final = 
         1619.17170973      1619.17170973      1619.17170973
  Force two-norm initial, final = 4.65459e-05 4.01698e-05
  Force max component initial, final = 7.27548e-06 6.20725e-06
  Final line search alpha, max atom move = 0 0
  Iterations, force evaluations = 55 55

MPI task timing breakdown:
Section |  min time  |  avg time  |  max time  |%varavg| %total
---------------------------------------------------------------
Pair    | 0.0033156  | 0.0033156  | 0.0033156  |   0.0 | 48.28
Bond    | 0.0029255  | 0.0029255  | 0.0029255  |   0.0 | 42.60
Neigh   | 0          | 0          | 0          |   0.0 |  0.00
Comm    | 0.00027227 | 0.00027227 | 0.00027227 |   0.0 |  3.96
Output  | 0          | 0          | 0          |   0.0 |  0.00
Modify  | 0          | 0          | 0          |   0.0 |  0.00
Other   |            | 0.0003535  |            |       |  5.15

Nlocal:    116 ave 116 max 116 min
Histogram: 1 0 0 0 0 0 0 0 0 0
Nghost:    1224 ave 1224 max 1224 min
Histogram: 1 0 0 0 0 0 0 0 0 0
Neighs:    5442 ave 5442 max 5442 min
Histogram: 1 0 0 0 0 0 0 0 0 0

Total # of neighbors = 5442
Ave neighs/atom = 46.9138
Ave special neighs/atom = 6.41379
Neighbor list builds = 0
Dangerous builds = 0
variable        AtomMinStep equal ${tempstp}
variable        AtomMinStep equal 17955
variable        temppe     equal $(pe)
variable        temppe     equal 1619.1717097264693166
variable        min_E      equal abs(${prev_E}-${temppe})
variable        min_E      equal abs(1619.17170972657-${temppe})
variable        min_E      equal abs(1619.17170972657-1619.17170972647)
print           "${iter},${CellMinStep},${AtomMinStep},${AtomMinStep},$(pe),${min_E}" append NiPyC2_relax_sc211_ortho_functionalized_SH.min.csv screen no
if              "${min_E} < ${min_eval}" then "jump SELF break_min"
jump SELF break_min
undump          NiPyC2_relax_sc211_ortho_functionalized_SH_xyzmov

# Dump last snapshot for restart
variable curr_lx equal lx
variable curr_ly equal ly
variable curr_lz equal lz
change_box all x final 0 ${curr_lx} y final 0 ${curr_ly} z final 0 ${curr_lz}
change_box all x final 0 14.514381903286 y final 0 ${curr_ly} z final 0 ${curr_lz}
change_box all x final 0 14.514381903286 y final 0 10.5105340149341 z final 0 ${curr_lz}
change_box all x final 0 14.514381903286 y final 0 10.5105340149341 z final 0 10.4809833734569
  triclinic box = (0 1.00643 -0.103352) to (14.5144 11.517 10.3776) with tilt (0 -0.232173 0)
  triclinic box = (0 0 -0.103352) to (14.5144 10.5105 10.3776) with tilt (0 -0.232173 0)
  triclinic box = (0 0 0) to (14.5144 10.5105 10.481) with tilt (0 -0.232173 0)

reset_timestep 0
dump            NiPyC2_relax_sc211_ortho_functionalized_SH_restart all atom 1 NiPyC2_relax_sc211_ortho_functionalized_SH_restart.lammpstrj
dump_modify     NiPyC2_relax_sc211_ortho_functionalized_SH_restart scale no sort id
run 0
WARNING: No fixes defined, atoms won't move (src/verlet.cpp:52)
WARNING: Inconsistent image flags (src/domain.cpp:785)
WARNING: Bond/angle/dihedral extent > half of periodic box length (src/domain.cpp:906)
Per MPI rank memory allocation (min/avg/max) = 15.76 | 15.76 | 15.76 Mbytes
Step Temp E_pair E_mol TotEng Press 
       0 7.7139643e-11    103.97011    1515.2016    1619.1717    214.91292 
WARNING: Bond/angle/dihedral extent > half of periodic box length (src/domain.cpp:906)
Loop time of 7.88976e-07 on 1 procs for 0 steps with 116 atoms

253.5% CPU use with 1 MPI tasks x 1 OpenMP threads

MPI task timing breakdown:
Section |  min time  |  avg time  |  max time  |%varavg| %total
---------------------------------------------------------------
Pair    | 0          | 0          | 0          |   0.0 |  0.00
Bond    | 0          | 0          | 0          |   0.0 |  0.00
Neigh   | 0          | 0          | 0          |   0.0 |  0.00
Comm    | 0          | 0          | 0          |   0.0 |  0.00
Output  | 0          | 0          | 0          |   0.0 |  0.00
Modify  | 0          | 0          | 0          |   0.0 |  0.00
Other   |            | 7.89e-07   |            |       |100.00

Nlocal:    116 ave 116 max 116 min
Histogram: 1 0 0 0 0 0 0 0 0 0
Nghost:    1153 ave 1153 max 1153 min
Histogram: 1 0 0 0 0 0 0 0 0 0
Neighs:    5442 ave 5442 max 5442 min
Histogram: 1 0 0 0 0 0 0 0 0 0

Total # of neighbors = 5442
Ave neighs/atom = 46.9138
Ave special neighs/atom = 6.41379
Neighbor list builds = 0
Dangerous builds = 0
undump          NiPyC2_relax_sc211_ortho_functionalized_SH_restart
Total wall time: 0:00:02
