116
Atoms. Timestep: 0
Ni 2.89857 9.41116 8.59265
Ni 6.17525 3.10579 3.48481
O 1.44827 4.35425 3.93374
O 4.4416 8.15245 9.05464
O 4.63665 1.84729 3.87523
O 1.36499 10.6744 9.00295
O 5.80609 4.46033 4.96242
O 2.54244 8.0327 10.0675
O 0.25117 1.69264 4.94273
O 3.23722 10.8047 10.0626
N 3.69677 10.6606 7.2416
N 0.71256 1.8642 2.11704
N 2.17217 8.14409 7.25198
N 5.44023 4.39481 2.13747
C 3.48546 12.1483 5.36301
C 0.47488 0.38955 0.2292
H 2.86453 12.5181 4.55267
H 5.86971 0.03371 9.69377
C 4.76073 0.1474 5.61481
C 1.74333 12.3699 0.47412
C 5.50345 12.1502 6.68209
C 2.49852 0.35508 1.54004
H 3.49155 12.5067 1.77336
C 2.48363 6.6337 5.40822
C 5.72803 5.90364 0.28669
H 3.13294 6.27291 4.61605
C 2.92756 7.68099 6.23068
C 6.1883 4.86756 1.11596
H 3.89994 8.14655 6.0889
H 0.91589 4.41889 0.97634
C 2.98256 11.1359 6.19748
C -0.01036 1.40553 1.07106
H 1.99392 10.709 6.04703
H 5.26093 1.85011 0.92351
C 4.93641 11.1381 7.47507
C 1.94823 1.3719 2.3406
H 5.48559 10.7097 8.30944
H 2.50886 1.79214 3.17267
C 0.94573 7.62654 7.47302
C 4.21083 4.90458 2.35686
H 0.36328 8.05184 8.28732
H 3.63605 4.47744 3.17528
C 0.43859 6.57577 6.69176
C 3.68763 5.945 1.56944
C 1.22745 6.06471 5.65205
C 4.46338 6.45777 0.52027
C 5.3126 1.24381 4.79419
C 2.0502 11.2675 9.92158
C 0.73548 4.94016 4.83586
C 3.73174 7.56629 9.95688
Ni 9.15137 9.41116 8.59265
Ni 12.4281 3.10579 3.48481
O 7.70109 4.35425 3.93374
O 10.6944 8.15245 9.05464
O 10.8895 1.84729 3.87523
O 7.61779 10.6744 9.00295
O 12.0589 4.46033 4.96242
O 8.79524 8.0327 10.0675
O 6.50397 1.69264 4.94273
O 9.49002 10.8047 10.0626
N 9.94957 10.6606 7.2416
N 6.96536 1.8642 2.11704
N 8.42499 8.14409 7.25198
N 11.693 4.39481 2.13747
C 9.73826 12.1483 5.36301
C 6.72768 0.38955 0.2292
H 9.11733 12.5181 4.55267
C 11.0135 0.1474 5.61481
C 7.99613 12.3699 0.47412
C 11.7562 12.1502 6.68209
C 8.75132 0.35508 1.54004
C 8.73644 6.6337 5.40822
C 11.9808 5.90364 0.28669
H 9.38574 6.27291 4.61605
H 6.14452 6.26667 9.7662
C 9.18036 7.68099 6.23068
C 12.4411 4.86756 1.11596
H 10.1527 8.14655 6.0889
H 7.16869 4.41889 0.97634
C 9.23536 11.1359 6.19748
C 6.24244 1.40553 1.07106
H 8.24672 10.709 6.04703
H 11.5137 1.85011 0.92351
C 11.1892 11.1381 7.47507
C 8.20102 1.3719 2.3406
H 11.7384 10.7097 8.30944
H 8.76167 1.79214 3.17267
C 7.19853 7.62654 7.47302
C 10.4636 4.90458 2.35686
H 6.61608 8.05184 8.28732
H 9.88885 4.47744 3.17528
C 6.69139 6.57577 6.69176
C 9.94043 5.945 1.56944
H 8.95104 6.32683 1.80071
C 7.48025 6.06471 5.65205
C 10.7162 6.45777 0.52027
C 11.5654 1.24381 4.79419
C 8.303 11.2675 9.92158
C 6.98827 4.94016 4.83586
C 9.98454 7.56629 9.95688
S 7.1628 0.17858 7.11093
H 8.23068 0.61178 7.33527
S 11.6832 12.3832 9.15334
H 11.0602 11.9954 8.23695
S 11.3004 5.96381 7.09548
H 10.2283 5.5212 7.2771
S 2.03959 6.54189 1.98011
H 0.98206 7.00473 2.19405
S 0.91 0.17858 7.11093
H 1.97788 0.61178 7.33527
S 10.4062 12.3052 1.95749
H 11.47 11.8584 2.17426
S 5.04765 5.96381 7.09548
H 3.97551 5.5212 7.2771
S 0.3458 6.44566 9.23739
H 1.00675 6.87346 8.36646
116
Atoms. Timestep: 261
Ni 2.71113 9.10429 8.88871
Ni 6.15196 3.65325 3.191
O 0.779474 4.70713 3.68778
O 4.13151 8.06979 9.05843
O 4.76097 2.58545 3.29799
O 1.29839 10.1452 9.01907
O 5.59565 4.74682 4.44231
O 2.19909 7.99899 10.1353
O -0.20084 2.5149 4.76886
O 3.19615 10.2584 10.1546
N 3.45865 10.2088 7.55811
N 0.134912 2.59253 2.21209
N 1.98014 7.94308 7.52672
N 5.39376 4.79538 1.8641
C 3.44895 11.023 5.29953
C 0.0627769 1.4143 0.156325
H 2.95937 11.0344 4.33588
H 6.14504 1.38439 9.85358
C 4.76326 1.35203 5.44235
C 1.46771 1.28919 0.116922
C 5.40386 11.2945 6.69516
C 2.16698 1.6956 1.25632
H 3.22425 1.48824 1.36381
C 2.15659 6.51266 5.58389
C 5.59797 6.12341 -0.122213
H 2.77219 6.07644 4.80847
C 2.74553 7.39053 6.53171
C 6.14156 5.24753 0.817734
H 3.77972 7.69147 6.41591
H 0.390412 5.06846 1.11772
C 2.77858 10.4966 6.40852
C -0.536919 2.2416 1.10173
H 1.73909 10.2397 6.3145
H 5.21755 2.48002 0.636743
C 4.78155 10.5142 7.65554
C 1.4659 2.28336 2.32773
H 5.36761 10.0876 8.45251
H 1.98438 2.52013 3.24029
C 0.633138 7.7373 7.50338
C 4.10081 5.23659 2.02202
H 0.0138723 8.31184 8.14113
H 3.57411 4.98547 2.93366
C 0.0797866 6.66673 6.78395
C 3.58213 6.25418 1.19609
C 0.786116 6.17498 5.69166
C 4.29115 6.60755 0.0242979
C 5.45689 1.97796 4.28561
C 1.95592 10.7819 10.0174
C 0.0963914 5.35227 4.63798
C 3.41876 7.44446 10.0174
Ni 9.36947 8.59884 8.8455
Ni -0.65086 3.69123 3.52431
O 7.53691 4.70994 3.36017
O 10.7823 7.57926 9.07191
O 11.6065 2.66769 3.60408
O 7.92746 9.62971 8.9146
O 12.542 4.82105 4.78619
O 8.84322 7.47889 10.1406
O 6.67112 2.53172 4.4221
O 9.80755 9.75407 10.0704
N 10.1569 9.71652 7.47924
N 6.94414 2.55047 1.85747
N 8.69806 7.43216 7.53112
N 12.2961 4.84203 2.21231
C 10.1443 10.9425 5.39687
C 6.87495 1.46671 -0.278811
H 9.63605 11.1892 4.47955
C 11.4888 1.20204 5.59718
C 8.11478 10.99 -0.0560801
C 12.0842 10.979 6.80273
C 8.71304 11.1742 1.20685
C 8.73922 6.54212 5.29973
C 12.4412 6.10525 0.195087
H 9.23488 6.46602 4.34632
H 5.92795 6.35586 10.0862
C 9.38376 7.16554 6.37775
C 13.0247 5.29249 1.16969
H 10.414 7.47861 6.27291
H 7.12736 4.84535 0.646222
C 9.4724 10.1743 6.38355
C 6.24666 2.18287 0.745472
H 8.44218 9.88406 6.22876
H 12.0997 2.45278 1.03109
C 11.4906 9.96885 7.56271
C 8.20966 2.05205 2.04902
H 12.0541 9.47831 8.29608
H 8.81446 2.41916 2.86334
C 7.417 7.00855 7.67027
C 10.9501 5.11515 2.27416
H 6.84926 7.35831 8.51009
H 10.3774 4.77563 3.12587
C 6.82859 6.17392 6.71558
C 10.2927 5.76195 1.20777
H 9.21649 5.8455 1.214
C 7.46436 6.00149 5.47064
C 11.0379 6.28563 0.150252
C 12.2457 1.9907 4.56075
C 8.58523 10.2821 9.90229
C 6.81279 5.30047 4.33703
C 10.0947 6.95866 10.0525
S 6.87962 2.0221 7.14523
H 6.6227 2.8431 8.20914
S 12.5262 10.2996 10.6445
H 11.6886 11.0784 9.89575
S 12.6103 5.61377 7.59304
H 11.4915 5.40234 6.84973
S 2.39785 7.36088 1.87924
H 3.0852 8.50546 2.22653
S -0.558148 1.99183 7.62283
H 0.646607 2.08992 7.01104
S 9.78131 9.9579 1.88471
H 9.00204 8.9674 2.42307
S 5.42798 5.22333 7.18625
H 4.71568 5.99272 8.03602
S -0.438163 7.1339 10.4177
H 0.486009 6.30712 9.82896
116
Atoms. Timestep: 10264
Ni 2.62788 8.84756 8.77321
Ni 6.14885 3.84112 3.35554
O 0.795038 4.62429 3.47755
O 4.01069 7.75854 8.88703
O 4.76355 2.77044 3.49081
O 1.24459 9.92296 8.95333
O 5.57451 5.00009 4.54221
O 2.06318 7.66253 9.93418
O -0.106396 2.47885 4.6988
O 3.13798 9.8805 10.1075
N 3.42425 10.0284 7.52635
N 0.186174 2.38486 2.11413
N 1.88281 7.82674 7.35269
N 5.40891 4.90542 1.96994
C 3.41167 11.1558 5.4059
C 0.103992 10.8729 0.369333
H 2.89599 1.24012 4.48374
H 6.11355 11.2854 10.2052
C 4.72573 1.4703 5.60684
C 1.4757 11.0683 0.113116
C 5.34866 11.2937 6.83472
C 2.21032 1.67151 1.03431
H 3.28472 1.69059 0.982774
C 2.09657 6.42671 5.40873
C 5.54077 6.00914 -0.155822
H 2.7292 5.97687 4.66535
C 2.66569 7.26635 6.38488
C 6.15149 5.32506 0.905993
H 3.71957 7.49931 6.34206
H 0.395228 4.68416 0.857763
C 2.75646 10.4233 6.40219
C -0.543927 1.66617 1.21153
H 1.72455 10.1413 6.25717
H 5.27625 2.60797 0.806716
C 4.72359 10.3972 7.71065
C 1.55368 2.31269 2.08255
H 5.26377 10.0228 8.56355
H 2.13858 2.78085 2.85428
C 0.525852 7.74065 7.24709
C 4.09084 5.2508 2.05813
H -0.102582 8.30076 7.91545
H 3.50813 4.90031 2.89063
C -0.0652789 6.824 6.37768
C 3.50606 6.11824 1.12873
C 0.713425 6.17473 5.41869
C 4.19604 6.40601 -0.066422
C 5.43759 2.19303 4.50393
C 1.92139 10.4533 9.98813
C 0.0799091 5.28628 4.39201
C 3.2876 7.10529 9.82247
Ni 9.45572 8.83516 8.99185
Ni -0.607589 3.55017 3.38209
O 7.52996 4.92139 3.49287
O 10.8845 7.79215 9.07147
O 11.6744 2.50564 3.55621
O 8.03127 9.8329 9.18342
O 12.5458 4.7109 4.55725
O 8.95912 7.58238 10.1504
O 6.64846 2.77065 4.66209
O 9.92591 9.86918 10.3446
N 10.2181 10.1052 7.76792
N 6.957 2.67956 2.09122
N 8.70867 7.80268 7.55676
N 12.3064 4.60997 2.00354
C 10.1953 11.232 5.65225
C 6.89926 1.44041 0.041106
H 9.66229 1.33271 4.75221
C 11.5607 1.40808 5.77391
C 8.20672 11.1147 0.253371
C 12.1553 1.22314 7.03127
C 8.80579 1.25302 1.49029
C 8.60971 7.05961 5.26744
C 12.4615 5.727 -0.111541
H 9.04739 7.05581 4.27899
H 5.86825 6.22724 10.0158
C 9.24952 7.75749 6.30354
C 13.0419 4.99551 0.933986
H 10.156 8.28713 6.08367
H 7.19815 5.06654 0.842017
C 9.51746 10.6005 6.70607
C 6.27492 2.25418 0.990394
H 8.48971 10.3106 6.56435
H 12.0599 1.73371 1.20904
C 11.5053 10.5296 7.96997
C 8.22901 2.23052 2.31872
H 11.9899 10.3198 8.90157
H 8.77203 2.59156 3.17452
C 7.46888 7.26988 7.75815
C 10.998 5.00546 2.11175
H 6.94149 7.49861 8.66396
H 10.4225 4.71972 2.97886
C 6.88099 6.41943 6.81359
C 10.3951 5.80594 1.12507
H 9.37448 6.13686 1.26012
C 7.42979 6.35404 5.51814
C 11.1139 6.17946 -0.0163276
C 12.3267 1.94555 4.58923
C 8.68716 10.3998 10.2058
C 6.79237 5.56658 4.41951
C 10.1982 7.05845 9.97539
S 6.73764 2.06538 7.41427
H 6.39785 2.78617 8.52247
S -0.536732 9.24402 0.320866
H -0.662697 8.71471 10.1264
S 11.9444 6.39 6.6095
H 11.3575 6.58477 5.39389
S 2.09592 7.04515 1.62565
H 2.49868 8.20393 2.23495
S -0.327823 2.36766 7.61595
H 0.945655 2.03106 7.2768
S 9.95588 10.2481 2.18229
H 9.27801 9.23307 2.80229
S 5.69711 5.24744 7.37219
H 4.45498 5.37124 6.83551
S -0.515559 5.93372 9.51019
H -0.0419412 4.72895 9.08482
116
Atoms. Timestep: 20000
Ni 2.58892 8.89512 8.86123
Ni 6.16389 3.76069 3.34373
O 0.72515 4.71968 3.5273
O 3.97667 7.81323 8.98184
O 4.7502 2.71889 3.47638
O 1.20707 9.97169 9.04298
O 5.64301 4.89582 4.5734
O 2.03508 7.7208 10.0454
O -0.171731 2.60793 4.79012
O 3.10819 9.94436 10.1848
N 3.38448 10.0629 7.58819
N 0.141961 2.45176 2.20105
N 1.82869 7.85146 7.44171
N 5.42137 4.88473 2.00097
C 3.36904 11.1652 5.44405
C 0.07608 10.8991 0.476512
H 2.83296 11.4077 4.53742
H 6.12645 11.408 10.0485
C 4.7142 1.40552 5.59509
C 1.44301 11.1203 0.20475
C 5.3612 11.2033 6.80714
C 2.17014 1.76019 1.10571
H 3.24364 1.81576 1.0328
C 2.02427 6.16354 5.7372
C 5.539 6.07779 -0.0849435
H 2.63313 5.42692 5.22969
C 2.61153 7.03142 6.67437
C 6.15487 5.33687 0.94003
H 3.68452 7.10742 6.72451
H 0.283848 4.56845 0.751531
C 2.70659 10.4738 6.4715
C -0.585144 1.67399 1.33793
H 1.65683 10.2562 6.36262
H 5.27465 2.65708 0.711493
C 4.70474 10.379 7.73533
C 1.51143 2.40417 2.1549
H 5.25143 9.98601 8.57796
H 2.09681 2.89849 2.91269
C 0.504178 8.01497 7.10269
C 4.11691 5.2728 2.14469
H -0.120287 8.69627 7.65205
H 3.56727 4.96986 3.02395
C -0.018873 7.39779 5.95605
C 3.50563 6.12847 1.21733
C 0.669954 6.31826 5.4089
C 4.18499 6.44905 0.0210975
C 5.42719 2.1016 4.46823
C 1.88837 10.5129 10.0709
C 0.0164447 5.42088 4.42113
C 3.26252 7.16465 9.92539
Ni 9.43644 8.74625 8.97639
Ni -0.664069 3.65458 3.44565
O 7.57667 4.79812 3.48717
O 10.859 7.7276 9.10501
O 11.6136 2.61638 3.62201
O 8.0062 9.75407 9.10835
O 12.4719 4.8702 4.61996
O 8.91342 7.55914 10.1754
O 6.65553 2.64565 4.61046
O 9.88933 9.83987 10.2824
N 10.2091 9.94353 7.69759
N 6.93077 2.61615 2.03741
N 8.73028 7.64999 7.60089
N 12.2703 4.6801 2.03267
C 10.2538 10.9688 5.52442
C 6.88631 1.47967 -0.0774635
H 9.75134 1.03688 4.5988
C 11.5273 1.37534 5.76915
C 8.16502 11.0804 0.157636
C 12.048 1.26263 7.07042
C 8.73778 1.14409 1.42241
C 8.91023 6.47337 5.51714
C 12.3148 5.58491 -0.200908
H 9.49449 6.24075 4.63962
H 5.87589 6.37732 10.1074
C 9.50473 7.15956 6.58945
C 12.9487 4.92312 0.869806
H 10.5664 7.31836 6.60377
H 7.20139 5.07782 0.85626
C 9.60187 10.2059 6.50294
C 6.26054 2.26671 0.899655
H 8.62004 9.80842 6.29305
H 12.0163 1.69833 1.36443
C 11.4144 10.5342 7.9877
C 8.17991 2.10761 2.27516
H 11.8558 10.395 8.95772
H 8.71703 2.41045 3.16016
C 7.41292 7.29247 7.68094
C 10.9818 5.11682 2.17612
H 6.81553 7.64656 8.5058
H 10.4209 4.84732 3.05742
C 6.8808 6.33761 6.81085
C 10.3748 5.90686 1.19783
H 9.38194 6.30216 1.37312
C 7.56541 6.07551 5.61154
C 11.0367 6.15795 -0.00549531
C 12.2713 2.0581 4.65188
C 8.65392 10.3655 10.1145
C 6.87948 5.42648 4.45603
C 10.1477 7.02801 10.0103
S 6.91391 1.76997 7.24966
H 6.78524 2.66632 8.27176
S 13.1124 9.26736 0.351358
H -0.697047 8.74329 10.1427
S 12.4921 8.26537 4.97029
H -0.528323 9.14046 4.14594
S 2.03643 6.97034 1.70138
H 2.36266 8.13603 2.34378
S -0.469676 2.43353 7.68262
H 0.82143 2.0587 7.45642
S 9.86802 10.097 2.0837
H 9.1748 9.06251 2.65584
S 5.76039 5.15243 7.47606
H 4.56928 5.03105 6.82308
S 12.7761 5.47595 9.24165
H 0.245139 6.20587 9.19873
116
Atoms. Timestep: 20270
Ni 2.60199 8.8906 8.84739
Ni 6.16424 3.76503 3.35065
O 0.748086 4.72175 3.53106
O 3.98844 7.81133 8.96517
O 4.75205 2.7257 3.4799
O 1.22178 9.96509 9.0257
O 5.64169 4.89825 4.57783
O 2.04649 7.71834 10.029
O -0.145343 2.61435 4.79399
O 3.12289 9.93783 10.1687
N 3.39403 10.0553 7.5798
N 0.162877 2.45944 2.21266
N 1.84502 7.84964 7.43397
N 5.42483 4.88596 2.01328
C 3.37824 11.1572 5.4411
C 0.0970018 10.8904 0.4926
H 2.84414 1.28625 4.53797
H 6.12605 1.28568 10.0285
C 4.72008 1.41434 5.59304
C 1.46059 11.1116 0.222828
C 5.36517 11.1948 6.80106
C 2.18593 1.76822 1.12072
H 3.25578 1.82357 1.04817
C 2.04024 6.16243 5.73423
C 5.54266 6.0787 -0.0670232
H 2.64687 5.42717 5.22854
C 2.62633 7.02924 6.66794
C 6.15713 5.33893 0.954708
H 3.69511 7.10611 6.71834
H 0.306459 4.57099 0.76774
C 2.71742 10.4668 6.46519
C -0.562973 1.68126 1.35121
H 1.67164 10.2491 6.35768
H 5.27675 2.66382 0.72764
C 4.71218 10.3714 7.72724
C 1.53012 2.41161 2.16734
H 5.25587 9.97866 8.56651
H 2.11247 2.90511 2.92239
C 0.522638 8.01269 7.09607
C 4.12242 5.27415 2.15751
H -0.0987231 8.69293 7.64341
H 3.57585 4.97147 3.03353
C 0.00207762 7.39561 5.95305
C 3.51451 6.12862 1.23214
C 0.689089 6.31774 5.40756
C 4.19189 6.44902 0.0399374
C 5.42971 2.10682 4.47077
C 1.90367 10.5076 10.0527
C 0.0388274 5.42403 4.424
C 3.27351 7.16099 9.9073
Ni 9.42522 8.74195 8.96219
Ni -0.639674 3.65914 3.45218
O 7.57561 4.79996 3.49076
O 10.8463 7.72608 9.08779
O 11.5912 2.62333 3.62505
O 7.99668 9.74726 9.09076
O 12.4464 4.87282 4.62489
O 8.90043 7.55674 10.1592
O 6.6575 2.65211 4.61482
O 9.87987 9.8336 10.2657
N 10.1947 9.93598 7.68856
N 6.92793 2.62375 2.04958
N 8.72206 7.6488 7.59216
N 12.2497 4.68182 2.04512
C 10.2387 10.9609 5.52099
C 6.88304 1.48754 -0.0597452
H 9.73813 11.1594 4.59934
C 11.5091 1.38411 5.76644
C 8.15863 11.0717 0.176032
C 12.0285 1.27131 7.06332
C 8.72996 11.266 1.43655
C 8.90199 6.47245 5.51393
C 12.2942 5.58661 -0.182037
H 9.48404 6.24037 4.63985
H 5.87826 6.37768 10.0873
C 9.49519 7.15748 6.58301
C 12.9267 4.92557 0.884599
H 10.5525 7.31661 6.59832
H 7.19958 5.07956 0.872119
C 9.58843 10.199 6.49626
C 6.25869 2.27341 0.914257
H 8.61027 9.8018 6.28818
H 11.9944 1.70634 1.37849
C 11.3981 10.5268 7.97905
C 8.17514 2.11504 2.28768
H 11.8368 10.3875 8.9451
H 8.70929 2.41787 3.16915
C 7.40668 7.29116 7.67268
C 10.9632 5.11871 2.18894
H 6.81259 7.64491 8.49457
H 10.4052 4.84916 3.06684
C 6.87744 6.3377 6.80451
C 10.3589 5.90794 1.21308
H 9.36939 6.30259 1.38775
C 7.56043 6.07549 5.60935
C 11.0193 6.15843 0.0134198
C 12.2496 2.06342 4.65389
C 8.64501 10.3604 10.0958
C 6.87771 5.43009 4.45858
C 10.1344 7.02488 9.99208
S 6.91384 1.77763 7.24181
H 6.78333 2.67361 8.26115
S -0.543268 9.2606 0.371129
H -0.67227 8.73822 10.1224
S 12.4678 8.26217 4.96996
H -0.503605 9.13643 4.14872
S 2.04899 6.96894 1.71514
H 2.37675 8.13401 2.35496
S -0.445543 2.44206 7.67474
H 0.841872 2.06577 7.44754
S 9.85741 10.0896 2.09609
H 9.16378 9.05655 2.66577
S 5.76184 5.15295 7.46946
H 4.57404 5.03294 6.8162
S 12.7533 5.4764 9.22331
H 0.267425 6.20657 9.18345
116
Atoms. Timestep: 23394
Ni 2.60067 8.8876 8.84193
Ni 6.16631 3.77068 3.34941
O 0.74321 4.72425 3.52151
O 3.9832 7.80335 8.95748
O 4.75867 2.72552 3.47958
O 1.22352 9.96666 9.02448
O 5.63911 4.90326 4.57554
O 2.04191 7.71419 10.0213
O -0.142654 2.62114 4.79934
O 3.12486 9.93027 10.1659
N 3.39733 10.0527 7.5752
N 0.164312 2.45123 2.21575
N 1.84016 7.85194 7.42376
N 5.4226 4.88694 2.00907
C 3.38425 11.1528 5.43414
C 0.097594 10.8808 0.495909
H 2.85222 1.27588 4.52399
H 6.1174 1.25914 10.0416
C 4.72676 1.41484 5.59131
C 1.46446 11.1004 0.228898
C 5.37151 11.1976 6.80406
C 2.19304 1.74873 1.13514
H 3.26731 1.79324 1.07052
C 2.04148 6.18128 5.7079
C 5.54316 6.08455 -0.0696687
H 2.65192 5.44929 5.19625
C 2.62635 7.04779 6.64414
C 6.15753 5.34263 0.951757
H 3.69911 7.13495 6.6867
H 0.308886 4.56494 0.760165
C 2.72048 10.4642 6.4591
C -0.562808 1.67647 1.35083
H 1.67083 10.2465 6.34856
H 5.27492 2.66153 0.729224
C 4.71743 10.3661 7.7244
C 1.53306 2.39803 2.17771
H 5.26458 9.96523 8.56256
H 2.11607 2.89415 2.9359
C 0.512895 8.00776 7.09461
C 4.1171 5.26955 2.15191
H -0.114873 8.67545 7.65624
H 3.56692 4.96204 3.02869
C -0.0087364 7.39987 5.94416
C 3.50784 6.12806 1.22943
C 0.684879 6.32853 5.38957
C 4.18798 6.44847 0.0349332
C 5.43785 2.11092 4.46998
C 1.90769 10.5027 10.0526
C 0.0326563 5.42948 4.4095
C 3.26726 7.15563 9.89878
Ni 9.42574 8.74192 8.9665
Ni -0.640985 3.65638 3.45023
O 7.57307 4.81152 3.48947
O 10.8434 7.72095 9.08989
O 11.5943 2.61731 3.63137
O 8.00092 9.7514 9.09809
O 12.4428 4.87629 4.61598
O 8.89635 7.55376 10.1585
O 6.66308 2.65984 4.61598
O 9.8827 9.82752 10.2752
N 10.2 9.93752 7.69658
N 6.93535 2.63214 2.049
N 8.71912 7.65641 7.59027
N 12.2425 4.66731 2.03601
C 10.2333 10.9828 5.53749
C 6.88071 1.4741 -0.0488571
H 9.72476 11.1957 4.61871
C 11.5122 1.39319 5.77888
C 8.16215 11.0668 0.18588
C 12.0408 1.26887 7.0746
C 8.74051 11.2724 1.44464
C 8.90239 6.47405 5.514
C 12.2901 5.57634 -0.192293
H 9.48828 6.23534 4.63912
H 5.88272 6.39156 10.0855
C 9.49535 7.16068 6.58369
C 12.9233 4.91486 0.876228
H 10.5578 7.31241 6.60269
H 7.20391 5.08385 0.868156
C 9.58599 10.2133 6.50961
C 6.26009 2.2707 0.919204
H 8.60193 9.82048 6.3015
H 11.9903 1.7086 1.36971
C 11.4089 10.5194 7.98667
C 8.18742 2.13221 2.28605
H 11.8543 10.3692 8.95291
H 8.72872 2.4487 3.16339
C 7.40001 7.3068 7.66728
C 10.9513 5.09441 2.17745
H 6.80137 7.66725 8.48813
H 10.3905 4.82161 3.05785
C 6.86862 6.3505 6.80234
C 10.3447 5.88434 1.20267
H 9.35198 6.27932 1.37886
C 7.55606 6.08366 5.60719
C 11.0099 6.14238 0.003883
C 12.2543 2.06706 4.66216
C 8.65014 10.3572 10.1048
C 6.87283 5.43829 4.45534
C 10.1279 7.01937 9.98847
S 6.90994 1.80391 7.26175
H 6.75959 2.6871 8.29228
S -0.541658 9.24702 0.384647
H -0.656931 8.70811 10.1421
S 12.4615 8.27786 4.95869
H -0.503275 9.15553 4.14295
S 2.0497 6.9836 1.72287
H 2.3908 8.14353 2.36798
S -0.427792 2.4363 7.6914
H 0.863396 2.08098 7.43725
S 9.85873 10.0905 2.11904
H 9.15512 9.0692 2.70207
S 5.7496 5.16649 7.47213
H 4.55672 5.04262 6.823
S 12.7524 5.47097 9.20816
H 0.311495 6.13262 9.18101
116
Atoms. Timestep: 23396
Ni 2.60607 8.88697 8.83832
Ni 6.1664 3.77128 3.35115
O 0.75147 4.72462 3.52309
O 3.98651 7.80298 8.95375
O 4.76088 2.72637 3.4812
O 1.23099 9.96577 9.02069
O 5.63998 4.90359 4.57608
O 2.04814 7.71384 10.0165
O -0.133073 2.62201 4.79967
O 3.12945 9.92939 10.161
N 3.40154 10.0518 7.57282
N 0.173461 2.45214 2.2186
N 1.84672 7.85156 7.42153
N 5.42382 4.88727 2.01212
C 3.3885 11.1516 5.43385
C 0.106863 10.8797 0.500433
H 2.85729 1.27708 4.52459
H 6.11748 1.26035 10.0368
C 4.72899 1.416 5.59087
C 1.47167 11.0993 0.233683
C 5.37276 11.1965 6.80243
C 2.19915 1.74982 1.13904
H 3.27179 1.79431 1.07448
C 2.04776 6.1813 5.70734
C 5.54423 6.08459 -0.0645931
H 2.65728 5.44949 5.19619
C 2.63173 7.0476 6.64267
C 6.15765 5.34286 0.955837
H 3.70288 7.13474 6.68519
H 0.317834 4.56535 0.764432
C 2.72573 10.4632 6.45781
C -0.552553 1.67757 1.35452
H 1.67766 10.2456 6.34737
H 5.27638 2.66239 0.733521
C 4.71965 10.3651 7.72187
C 1.54014 2.39896 2.1806
H 5.26596 9.96434 8.55922
H 2.12227 2.89496 2.93805
C 0.52146 8.00734 7.0927
C 4.12029 5.26978 2.15482
H -0.105368 8.67487 7.65379
H 3.57093 4.96235 3.03075
C 0.000629136 7.3996 5.94338
C 3.51196 6.12809 1.23324
C 0.693205 6.32852 5.38933
C 4.19109 6.44843 0.0399069
C 5.43902 2.11191 4.47063
C 1.91412 10.5017 10.0478
C 0.0419775 5.42968 4.4102
C 3.27164 7.15541 9.89414
Ni 9.42085 8.74132 8.96277
Ni -0.630636 3.657 3.45188
O 7.57104 4.81186 3.49108
O 10.8364 7.7206 9.08604
O 11.5862 2.61819 3.63284
O 7.99818 9.75056 9.09423
O 12.4334 4.87662 4.61649
O 8.89224 7.55345 10.1536
O 6.66241 2.66071 4.61649
O 9.8771 9.82666 10.2702
N 10.194 9.93664 7.69408
N 6.93429 2.63301 2.05201
N 8.71531 7.65607 7.58788
N 12.2334 4.6677 2.03903
C 10.2272 10.9816 5.5371
C 6.87976 1.47526 -0.0438017
H 9.71947 11.1945 4.61921
C 11.5042 1.39436 5.77826
C 8.15926 11.0657 0.190706
C 12.032 1.27007 7.07271
C 8.73674 11.2712 1.44824
C 8.89833 6.474 5.51364
C 12.281 5.5765 -0.187097
H 9.48334 6.23534 4.6396
H 5.88316 6.39153 10.0807
C 9.49038 7.16046 6.58228
C 12.9133 4.91519 0.880382
H 10.5513 7.31216 6.60126
H 7.20247 5.08414 0.872318
C 9.58088 10.2123 6.50827
C 6.26007 2.27166 0.923316
H 8.59831 9.81963 6.30037
H 11.9817 1.70969 1.37338
C 11.4011 10.5183 7.98389
C 8.18447 2.1332 2.28883
H 11.8457 10.3682 8.94919
H 8.72495 2.44961 3.16531
C 7.39818 7.30655 7.66481
C 10.9442 5.09469 2.18034
H 6.80044 7.66691 8.48486
H 10.3842 4.82195 3.05988
C 6.86761 6.35047 6.80072
C 10.3385 5.88443 1.20651
H 9.34729 6.27932 1.38253
C 7.55403 6.0837 5.60673
C 11.0027 6.1424 0.00888694
C 12.2452 2.06807 4.66262
C 8.6464 10.3563 10.1
C 6.87184 5.43848 4.45601
C 10.1219 7.01919 9.98374
S 6.90886 1.80498 7.25968
H 6.75873 2.68796 8.2892
S -0.531424 9.2463 0.38928
H -0.646638 8.70752 10.1372
S 12.4521 8.27738 4.95887
H -0.493142 9.15483 4.14392
S 2.05601 6.98343 1.72619
H 2.39659 8.14308 2.37068
S -0.417816 2.43722 7.68891
H 0.871429 2.08199 7.435
S 9.85326 10.0896 2.12198
H 9.1507 9.06853 2.70445
S 5.75027 5.16676 7.46985
H 4.5592 5.04291 6.82136
S 12.7425 5.47116 9.2042
H 0.320339 6.13265 9.17706
116
Atoms. Timestep: 26007
Ni 2.60565 8.88583 8.83687
Ni 6.16708 3.77271 3.35093
O 0.752273 4.72485 3.51962
O 3.9871 7.80129 8.9513
O 4.76094 2.7267 3.48043
O 1.22937 9.96524 9.01962
O 5.63816 4.90446 4.57614
O 2.04574 7.71263 10.0149
O -0.131073 2.62442 4.8016
O 3.13089 9.92686 10.1608
N 3.40225 10.0504 7.57175
N 0.173509 2.45034 2.21945
N 1.84563 7.85202 7.41905
N 5.42344 4.88715 2.01124
C 3.38892 11.1503 5.4317
C 0.105537 10.8766 0.501596
H 2.85771 1.27405 4.52076
H 6.11369 1.25434 10.0398
C 4.73056 1.41641 5.59033
C 1.47216 11.0959 0.234922
C 5.37506 11.1975 6.80313
C 2.20166 1.74421 1.14206
H 3.27608 1.785 1.07951
C 2.04981 6.18679 5.69956
C 5.54603 6.08681 -0.0650808
H 2.66105 5.45629 5.18699
C 2.63328 7.05274 6.63615
C 6.15937 5.34419 0.955424
H 3.70591 7.14321 6.67718
H 0.319781 4.56284 0.762095
C 2.72528 10.4621 6.45603
C -0.554134 1.67591 1.35483
H 1.67563 10.2443 6.3454
H 5.27509 2.66394 0.733411
C 4.72221 10.3634 7.72123
C 1.54196 2.3956 2.18283
H 5.26978 9.96058 8.55803
H 2.12475 2.89232 2.94069
C 0.517725 8.00531 7.09217
C 4.11762 5.26824 2.15325
H -0.111389 8.66866 7.6573
H 3.56687 4.95926 3.02897
C -0.00275596 7.40038 5.9401
C 3.50964 6.12826 1.23232
C 0.692778 6.33173 5.38336
C 4.19056 6.44888 0.0386775
C 5.44082 2.1127 4.47039
C 1.9144 10.5001 10.0477
C 0.0412184 5.43146 4.40588
C 3.2706 7.15367 9.89191
Ni 9.42087 8.74145 8.96394
Ni -0.63093 3.65656 3.45126
O 7.57235 4.81435 3.49035
O 10.8372 7.71988 9.0861
O 11.585 2.61766 3.63405
O 7.99745 9.75138 9.09542
O 12.4316 4.87782 4.61458
O 8.88966 7.55309 10.154
O 6.66518 2.66287 4.61731
O 9.87888 9.82488 10.2733
N 10.1954 9.93657 7.6963
N 6.93639 2.63581 2.05186
N 8.71443 7.65874 7.58749
N 12.2317 4.66371 2.0366
C 10.225 10.9872 5.54104
C 6.87804 1.4721 -0.0414277
H 9.71481 11.2032 4.62397
C 11.5048 1.39738 5.78152
C 8.15962 11.0637 0.193308
C 12.0358 1.27002 7.07566
C 8.73952 11.2716 1.45054
C 8.89981 6.47378 5.51396
C 12.2807 5.57394 -0.190268
H 9.48666 6.23285 4.64034
H 5.88665 6.39575 10.0808
C 9.49169 7.16114 6.58285
C 12.9133 4.91206 0.877603
H 10.5544 7.31088 6.60368
H 7.20564 5.08512 0.872116
C 9.57939 10.2157 6.51145
C 6.25959 2.27192 0.924068
H 8.59483 9.82378 6.30396
H 11.9785 1.71011 1.37228
C 11.405 10.5166 7.9863
C 8.18874 2.13708 2.28874
H 11.8517 10.3635 8.95141
H 8.73152 2.45695 3.16382
C 7.39487 7.31121 7.66316
C 10.9404 5.08956 2.17779
H 6.79546 7.67369 8.48245
H 10.3795 4.8162 3.05791
C 6.86435 6.35382 6.79997
C 10.3345 5.88008 1.20412
H 9.34234 6.27619 1.38091
C 7.55314 6.08527 5.60636
C 11.0003 6.13896 0.00623683
C 12.2459 2.06946 4.66497
C 8.64715 10.3557 10.1023
C 6.87108 5.44065 4.45539
C 10.1204 7.01778 9.98278
S 6.90896 1.81327 7.26516
H 6.75209 2.69233 8.29822
S -0.532753 9.24212 0.395224
H -0.643281 8.69867 10.1444
S 12.4496 8.28155 4.95432
H -0.492198 9.16018 4.1416
S 2.05512 6.98837 1.72844
H 2.40104 8.14573 2.37561
S -0.412536 2.43699 7.69368
H 0.87879 2.08718 7.43296
S 9.85278 10.0872 2.12874
H 9.14493 9.07052 2.7147
S 5.74635 5.16982 7.47143
H 4.55321 5.04422 6.82317
S 12.7432 5.46946 9.19927
H 0.335442 6.10851 9.17672
116
Atoms. Timestep: 26010
Ni 2.61059 8.88782 8.83381
Ni 6.16716 3.77082 3.35239
O 0.759907 4.72368 3.52094
O 3.99019 7.80247 8.94814
O 4.76289 2.72402 3.48178
O 1.23614 9.96805 9.0164
O 5.63888 4.9034 4.57663
O 2.05137 7.71376 10.0109
O -0.122236 2.62168 4.8019
O 3.13514 9.92963 10.1567
N 3.40609 10.0532 7.56974
N 0.181889 2.44746 2.22186
N 1.85163 7.85324 7.41718
N 5.42455 4.88608 2.01381
C 3.3928 11.154 5.43145
C 0.114021 10.8801 0.505419
H 2.86233 1.27026 4.52126
H 6.11374 1.25053 10.0358
C 4.73258 1.41272 5.58995
C 1.47876 11.0995 0.238959
C 5.37622 11.2013 6.80176
C 2.20729 1.74077 1.14535
H 3.28021 1.78159 1.08286
C 2.05556 6.18673 5.6991
C 5.54702 6.08668 -0.0607964
H 2.66597 5.45567 5.18695
C 2.63826 7.05333 6.63492
C 6.15953 5.34348 0.958865
H 3.70938 7.14388 6.67591
H 0.328004 4.56154 0.7657
C 2.73003 10.4653 6.45493
C -0.544788 1.67241 1.35795
H 1.68185 10.2474 6.34439
H 5.27641 2.66121 0.737036
C 4.72426 10.3665 7.71911
C 1.54848 2.39266 2.18528
H 5.27105 9.96339 8.55521
H 2.13044 2.88976 2.9425
C 0.525537 8.00664 7.09056
C 4.1205 5.26749 2.15572
H -0.102696 8.6705 7.65522
H 3.57053 4.95826 3.03072
C 0.00578335 7.40125 5.93943
C 3.51339 6.12817 1.23555
C 0.700401 6.33178 5.38316
C 4.19342 6.44902 0.0428813
C 5.44188 2.10953 4.47094
C 1.92028 10.5033 10.0437
C 0.0497479 5.43085 4.40648
C 3.27459 7.15433 9.88798
Ni 9.41637 8.74334 8.96077
Ni -0.621454 3.65457 3.45264
O 7.57054 4.81324 3.4917
O 10.8309 7.721 9.08283
O 11.5775 2.6149 3.63528
O 7.99485 9.75402 9.09214
O 12.4229 4.87675 4.61504
O 8.88581 7.55409 10.1499
O 6.66461 2.66015 4.61777
O 9.87379 9.82757 10.2691
N 10.1899 9.93935 7.69419
N 6.93542 2.63307 2.0544
N 8.71092 7.65982 7.58546
N 12.2234 4.66247 2.03916
C 10.2194 10.9908 5.54069
C 6.87716 1.46845 -0.0371638
H 9.70994 11.2069 4.62438
C 11.4974 1.39367 5.78099
C 8.15696 11.0673 0.197384
C 12.0278 1.26623 7.07406
C 8.73608 11.2754 1.45359
C 8.89608 6.47395 5.51364
C 12.2724 5.57342 -0.185878
H 9.48214 6.23283 4.64074
H 5.88704 6.39586 10.0767
C 9.48717 7.16183 6.58165
C 12.9042 4.91102 0.881105
H 10.5484 7.31168 6.60247
H 7.20434 5.08422 0.87563
C 9.57467 10.2186 6.5103
C 6.25953 2.26889 0.92753
H 8.59148 9.82649 6.30299
H 11.9705 1.70664 1.37539
C 11.3978 10.5199 7.98397
C 8.18606 2.13394 2.2911
H 11.8438 10.3666 8.94828
H 8.72807 2.45406 3.16545
C 7.39315 7.31201 7.66108
C 10.9338 5.08868 2.18024
H 6.79458 7.67476 8.47969
H 10.3737 4.8151 3.05964
C 6.86338 6.35388 6.79861
C 10.3288 5.8798 1.20737
H 9.33802 6.27621 1.38401
C 7.55127 6.08514 5.60597
C 10.9937 6.13887 0.0104663
C 12.2376 2.06625 4.66536
C 8.6437 10.3588 10.0982
C 6.87016 5.44004 4.45595
C 10.1149 7.01835 9.97878
S 6.90799 1.80989 7.26341
H 6.75129 2.68962 8.29562
S -0.523382 9.24439 0.399154
H -0.633867 8.70052 10.1403
S 12.441 8.28309 4.95446
H -0.482914 9.16239 4.14242
S 2.06087 6.98893 1.73127
H 2.40633 8.14717 2.37789
S -0.403419 2.4341 7.69159
H 0.886154 2.084 7.43106
S 9.84779 10.0901 2.13124
H 9.14088 9.07265 2.7167
S 5.74696 5.16898 7.46953
H 4.55546 5.04329 6.82177
S 12.7341 5.46884 9.1959
H 0.34353 6.1084 9.17339
116
Atoms. Timestep: 28159
Ni 2.61084 8.88722 8.83287
Ni 6.16773 3.77169 3.35212
O 0.760518 4.72309 3.51938
O 3.99167 7.80248 8.94722
O 4.76232 2.72524 3.48131
O 1.23501 9.96704 9.01539
O 5.63803 4.90286 4.57709
O 2.05008 7.7145 10.0105
O -0.121143 2.62374 4.80347
O 3.13661 9.92782 10.1565
N 3.40748 10.0511 7.56824
N 0.181982 2.44742 2.22183
N 1.85123 7.85378 7.41525
N 5.42412 4.88547 2.01297
C 3.39255 11.1537 5.4301
C 0.112793 10.8797 0.506075
H 2.8612 1.2699 4.51936
H 6.1095 1.24632 10.0374
C 4.7336 1.41345 5.58942
C 1.47919 11.0982 0.239111
C 5.37867 11.2014 6.80152
C 2.20956 1.73792 1.14623
H 3.28409 1.77521 1.08537
C 2.05689 6.18871 5.69631
C 5.54881 6.08841 -0.0607383
H 2.66849 5.45796 5.18463
C 2.63962 7.05557 6.63205
C 6.16087 5.34358 0.958332
H 3.7122 7.14718 6.67269
H 0.329311 4.55976 0.764183
C 2.72976 10.464 6.45355
C -0.54617 1.67283 1.35783
H 1.68003 10.2464 6.34331
H 5.2754 2.66432 0.735323
C 4.72747 10.3639 7.71737
C 1.55028 2.39186 2.1855
H 5.27579 9.95935 8.55276
H 2.13315 2.88946 2.94261
C 0.523274 8.00601 7.08856
C 4.11836 5.26648 2.15482
H -0.106387 8.66841 7.65412
H 3.56714 4.95645 3.02977
C 0.003672 7.40125 5.93608
C 3.51164 6.12851 1.23537
C 0.699887 6.33253 5.38027
C 4.19344 6.45023 0.042706
C 5.44283 2.11128 4.47071
C 1.92066 10.5017 10.0432
C 0.0489798 5.43051 4.40465
C 3.27454 7.15508 9.88736
Ni 9.41622 8.74323 8.96161
Ni -0.622047 3.65423 3.45252
O 7.57231 4.81373 3.49125
O 10.8321 7.72143 9.08352
O 11.5758 2.61516 3.6363
O 7.99327 9.75333 9.09276
O 12.4212 4.87626 4.61464
O 8.88391 7.55472 10.1505
O 6.66667 2.66216 4.61817
O 9.87437 9.8256 10.2713
N 10.1909 9.93824 7.69528
N 6.93692 2.63571 2.05339
N 8.71045 7.66181 7.5848
N 12.2215 4.65929 2.03759
C 10.2173 10.9938 5.54303
C 6.87495 1.46651 -0.0361875
H 9.70544 11.213 4.62776
C 11.4975 1.39526 5.7831
C 8.15615 11.0655 0.198872
C 12.0301 1.26556 7.07619
C 8.73741 11.2758 1.45483
C 8.89796 6.4744 5.51332
C 12.2723 5.5724 -0.187654
H 9.48545 6.23246 4.64041
H 5.89049 6.39922 10.0774
C 9.48868 7.16345 6.58135
C 12.904 4.90887 0.879406
H 10.5514 7.31308 6.60311
H 7.20683 5.08352 0.874851
C 9.57344 10.2197 6.51192
C 6.25885 2.27027 0.926952
H 8.58864 9.82817 6.30481
H 11.9677 1.70837 1.37459
C 11.4006 10.5178 7.98543
C 8.18912 2.13693 2.2902
H 11.8482 10.3627 8.94972
H 8.73323 2.45913 3.16353
C 7.39091 7.31449 7.65973
C 10.9298 5.08402 2.17824
H 6.79063 7.67842 8.47764
H 10.3686 4.80969 3.05778
C 6.86191 6.35509 6.7984
C 10.3253 5.87693 1.20614
H 9.33384 6.27432 1.38356