<?xml version="1.0" encoding="UTF-8"?>
<UPF version="2.0.1">
  <PP_INFO><![CDATA[
Generated using "atomic" code by A. Dal Corso  v.6.5
Author: TM
Generation date: 11May2020
Pseudopotential type: NC
Element: Cl
Functional: PBESOL
    Suggested minimum cutoff for wavefunctions:   0. Ry
    Suggested minimum cutoff for charge density:   0. Ry
    The Pseudo was generated with a Scalar-Relativistic Calculation
    L component and cutoff radius for Local Potential:  2   1.7500
    Valence configuration:
    nl pn  l   occ       Rcut    Rcut US       E pseu
    3S  1  0  2.00      1.750      1.750    -1.515393
    3P  2  1  5.00      1.750      1.750    -0.629237
    Generation configuration:
    3S  1  0  2.00      1.750      1.750    -1.515386
    3P  2  1  5.00      1.750      1.750    -0.629232
    3D  3  2  0.00      1.750      1.750     0.100000
    Pseudization used: troullier-martins
]]>
    <PP_INPUTFILE><![CDATA[
 &input
   title='Cl',
   zed=17,
   rel=1,
   config='[Ne] 3s2 3p5 3d-2',
   iswitch=3,
   dft='PBESOL'
 /
 &inputp
   pseudotype=2,
   file_pseudopw='Cl.pbesol-n-nc.UPF',
   author='TM',
   lloc=2,
   nlcc=.true.,
   tm=.true.
 /
3
3S  1  0  2.00  0.00  1.75  1.75  0.0
3P  2  1  5.00  0.00  1.75  1.75  0.0
3D  3  2  0.00  0.10  1.75  1.75  0.0
]]></PP_INPUTFILE>
  </PP_INFO>
  <!--
 END OF HUMAN READABLE SECTION 
-->
  <PP_HEADER generated="Generated using &quot;atomic&quot; code by A. Dal Corso  v.6.5" author="TM" date="11May2020" comment="" element="Cl" pseudo_type="NC" relativistic="scalar" is_ultrasoft="false" is_paw="false" is_coulomb="false" has_so="false" has_wfc="false" has_gipaw="false" paw_as_gipaw="false" core_correction="true" functional="PBESOL" z_valence="7.000000000000e0" total_psenergy="-3.347111972680e1" wfc_cutoff="0.000000000000e0" rho_cutoff="0.000000000000e0" l_max="2" l_max_rho="4" l_local="2" mesh_size="1157" number_of_wfc="2" number_of_proj="2"/>
  <PP_MESH dx="1.250000000000e-2" mesh="1157" xmin="-7.000000000000e0" rmax="1.000000000000e2" zmesh="1.700000000000e1">
    <PP_R>
      5.364011562085390e-5 5.431482521582485e-5 5.499802161274014e-5 5.568981156242670e-5
      5.639030315847176e-5 5.709960585411228e-5 5.781783047933757e-5 5.854508925820655e-5
      5.928149582638298e-5 6.002716524889145e-5 6.078221403809629e-5 6.154676017190697e-5
      6.232092311221235e-5 6.310482382354686e-5 6.389858479199164e-5 6.470233004431282e-5
      6.551618516734137e-5 6.634027732759602e-5 6.717473529115338e-5 6.801968944376812e-5
      6.887527181124556e-5 6.974161608007133e-5 7.061885761830005e-5 7.150713349670674e-5
      7.240658251020477e-5 7.331734519953232e-5 7.423956387321261e-5 7.517338262978966e-5
      7.611894738034400e-5 7.707640587129177e-5 7.804590770747009e-5 7.902760437551334e-5
      8.002164926752316e-5 8.102819770503631e-5 8.204740696329404e-5 8.307943629581656e-5
      8.412444695928674e-5 8.518260223874679e-5 8.625406747311194e-5 8.733901008100510e-5
      8.843759958691603e-5 8.955000764769011e-5 9.067640807935003e-5 9.181697688425484e-5
      9.297189227860102e-5 9.414133472026849e-5 9.532548693701804e-5 9.652453395504271e-5
      9.773866312787847e-5 9.896806416567889e-5 1.002129291648573e-4 1.014734526381025e-4
      1.027498315447717e-4 1.040422653216659e-4 1.053509559141923e-4 1.066761078079185e-4
      1.080179280605239e-4 1.093766263341530e-4 1.107524149281751e-4 1.121455088123575e-4
      1.135561256604535e-4 1.149844858842157e-4 1.164308126678351e-4 1.178953320028141e-4
      1.193782727232785e-4 1.208798665417329e-4 1.224003480852665e-4 1.239399549322138e-4
      1.254989276492769e-4 1.270775098291150e-4 1.286759481284050e-4 1.302944923063834e-4
      1.319333952638708e-4 1.335929130827886e-4 1.352733050661727e-4 1.369748337786891e-4
      1.386977650876607e-4 1.404423682046102e-4 1.422089157273237e-4 1.439976836824461e-4
      1.458089515686093e-4 1.476430024001058e-4 1.495001227511093e-4 1.513806028004530e-4
      1.532847363769705e-4 1.552128210054072e-4 1.571651579529089e-4 1.591420522760957e-4
      1.611438128687275e-4 1.631707525099699e-4 1.652231879132654e-4 1.673014397758216e-4
      1.694058328287202e-4 1.715366958876569e-4 1.736943619043204e-4 1.758791680184153e-4
      1.780914556103421e-4 1.803315703545378e-4 1.825998622734888e-4 1.848966857924224e-4
      1.872223997946863e-4 1.895773676778251e-4 1.919619574103617e-4 1.943765415892931e-4
      1.968214974983101e-4 1.992972071667477e-4 2.018040574292785e-4 2.043424399863561e-4
      2.069127514654193e-4 2.095153934828665e-4 2.121507727068077e-4 2.148193009206084e-4
      2.175213950872313e-4 2.202574774143871e-4 2.230279754205063e-4 2.258333220015390e-4
      2.286739554985959e-4 2.315503197664402e-4 2.344628642428406e-4 2.374120440187975e-4
      2.403983199096510e-4 2.434221585270845e-4 2.464840323520341e-4 2.495844198085141e-4
      2.527238053383729e-4 2.559026794769864e-4 2.591215389299063e-4 2.623808866504707e-4
      2.656812319183922e-4 2.690230904193337e-4 2.724069843254850e-4 2.758334423771536e-4
      2.793029999653811e-4 2.828161992155992e-4 2.863735890723390e-4 2.899757253850030e-4
      2.936231709947186e-4 2.973164958222831e-4 3.010562769572148e-4 3.048430987479250e-4
      3.086775528930226e-4 3.125602385337691e-4 3.164917623476953e-4 3.204727386433956e-4
      3.245037894565160e-4 3.285855446469470e-4 3.327186419972417e-4 3.369037273122697e-4
      3.411414545201260e-4 3.454324857743089e-4 3.497774915571820e-4 3.541771507847387e-4
      3.586321509126845e-4 3.631431880438531e-4 3.677109670369742e-4 3.723362016168087e-4
      3.770196144856695e-4 3.817619374363464e-4 3.865639114664478e-4 3.914262868941867e-4
      3.963498234756158e-4 4.013352905233428e-4 4.063834670267371e-4 4.114951417736477e-4
      4.166711134736544e-4 4.219121908828646e-4 4.272191929302878e-4 4.325929488457904e-4
      4.380342982896670e-4 4.435440914838398e-4 4.491231893447036e-4 4.547724636176512e-4
      4.604927970132809e-4 4.662850833453232e-4 4.721502276703037e-4 4.780891464289536e-4
      4.841027675894136e-4 4.901920307922241e-4 4.963578874971489e-4 5.026013011318439e-4
      5.089232472423904e-4 5.153247136457311e-4 5.218067005840151e-4 5.283702208808892e-4
      5.350163000997544e-4 5.417459767040082e-4 5.485603022193134e-4 5.554603413978948e-4
      5.624471723849120e-4 5.695218868869231e-4 5.766855903424604e-4 5.839394020947654e-4
      5.912844555666815e-4 5.987218984377569e-4 6.062528928235735e-4 6.138786154573237e-4
      6.216002578736855e-4 6.294190265949958e-4 6.373361433197737e-4 6.453528451136171e-4
      6.534703846024886e-4 6.616900301684509e-4 6.700130661478457e-4 6.784407930319778e-4
      6.869745276703207e-4 6.956156034762717e-4 7.043653706355071e-4 7.132251963169470e-4
      7.221964648863785e-4 7.312805781227700e-4 7.404789554372940e-4 7.497930340951217e-4
      7.592242694399926e-4 7.687741351216164e-4 7.784441233259376e-4 7.882357450082840e-4
      7.981505301294667e-4 8.081900278948320e-4 8.183558069963306e-4 8.286494558576315e-4
      8.390725828823092e-4 8.496268167051694e-4 8.603138064467190e-4 8.711352219708472e-4
      8.820927541457481e-4 8.931881151081145e-4 9.044230385306724e-4 9.157992798930641e-4
      9.273186167561462e-4 9.389828490397425e-4 9.507937993038750e-4 9.627533130335545e-4
      9.748632589271326e-4 9.871255291882916e-4 9.995420398217108e-4 1.012114730932434e-3
      1.024845567029030e-3 1.037736537330539e-3 1.050789656077296e-3 1.064006962845665e-3
      1.077390522866716e-3 1.090942427348934e-3 1.104664793804965e-3 1.118559766382486e-3
      1.132629516199231e-3 1.146876241682235e-3 1.161302168911340e-3 1.175909551967025e-3
      1.190700673282612e-3 1.205677844000898e-3 1.220843404335279e-3 1.236199723935414e-3
      1.251749202257481e-3 1.267494268939104e-3 1.283437384178987e-3 1.299581039121320e-3
      1.315927756245035e-3 1.332480089757939e-3 1.349240625995820e-3 1.366211983826563e-3
      1.383396815059359e-3 1.400797804859052e-3 1.418417672165698e-3 1.436259170119414e-3
      1.454325086490553e-3 1.472618244115303e-3 1.491141501336761e-3 1.509897752451555e-3
      1.528889928162079e-3 1.548120996034430e-3 1.567593960962088e-3 1.587311865635440e-3
      1.607277791017210e-3 1.627494856823858e-3 1.647966222013048e-3 1.668695085277241e-3
      1.689684685543496e-3 1.710938302479557e-3 1.732459257006311e-3 1.754250911816689e-3
      1.776316671901088e-3 1.798659985079417e-3 1.821284342539817e-3 1.844193279384170e-3
      1.867390375180468e-3 1.890879254522122e-3 1.914663587594320e-3 1.938747090747492e-3
      1.963133527078005e-3 1.987826707016150e-3 2.012830488921531e-3 2.038148779685943e-3
      2.063785535343826e-3 2.089744761690410e-3 2.116030514907628e-3 2.142646902197896e-3
      2.169598082425884e-3 2.196888266768330e-3 2.224521719372064e-3 2.252502758020274e-3
      2.280835754807177e-3 2.309525136821166e-3 2.338575386836548e-3 2.367991044013991e-3
      2.397776704609778e-3 2.427937022693973e-3 2.458476710877642e-3 2.489400541049195e-3
      2.520713345120011e-3 2.552420015779433e-3 2.584525507259260e-3 2.617034836107854e-3
      2.649953081973990e-3 2.683285388400553e-3 2.717036963628242e-3 2.751213081409352e-3
      2.785819081831819e-3 2.820860372153616e-3 2.856342427647646e-3 2.892270792457269e-3
      2.928651080462585e-3 2.965488976157610e-3 3.002790235538495e-3 3.040560687002907e-3
      3.078806232260729e-3 3.117532847256224e-3 3.156746583101773e-3 3.196453567023382e-3
      3.236660003318073e-3 3.277372174323317e-3 3.318596441398668e-3 3.360339245919723e-3
      3.402607110284617e-3 3.445406638933151e-3 3.488744519378748e-3 3.532627523253409e-3
      3.577062507365763e-3 3.622056414772485e-3 3.667616275863145e-3 3.713749209458728e-3
      3.760462423923975e-3 3.807763218293680e-3 3.855658983413197e-3 3.904157203093273e-3
      3.953265455279398e-3 4.002991413235895e-3 4.053342846744857e-3 4.104327623320216e-3
      4.155953709437037e-3 4.208229171776306e-3 4.261162178485379e-3 4.314761000454243e-3
      4.369034012607877e-3 4.423989695214848e-3 4.479636635212372e-3 4.535983527548042e-3
      4.593039176538422e-3 4.650812497244746e-3 4.709312516865917e-3 4.768548376149013e-3
      4.828529330817577e-3 4.889264753017798e-3 4.950764132782965e-3 5.013037079516288e-3
      5.076093323492382e-3 5.139942717377670e-3 5.204595237769842e-3 5.270060986756747e-3
      5.336350193494855e-3 5.403473215807582e-3 5.471440541803735e-3 5.540262791516276e-3
      5.609950718561745e-3 5.680515211820523e-3 5.751967297138237e-3 5.824318139048606e-3
      5.897579042517868e-3 5.971761454711240e-3 6.046876966781555e-3 6.122937315680391e-3
      6.199954385992019e-3 6.277940211790366e-3 6.356906978519371e-3 6.436867024896999e-3
      6.517832844843174e-3 6.599817089431985e-3 6.682832568868458e-3 6.766892254490142e-3
      6.852009280793943e-3 6.938196947488386e-3 7.025468721571743e-3 7.113838239436276e-3
      7.203319308998939e-3 7.293925911858899e-3 7.385672205482195e-3 7.478572525413858e-3
      7.572641387517897e-3 7.667893490245393e-3 7.764343716931194e-3 7.862007138119442e-3
      7.960899013918395e-3 8.061034796384853e-3 8.162430131938548e-3 8.265100863806952e-3
      8.369063034500803e-3 8.474332888320781e-3 8.580926873895731e-3 8.688861646752756e-3
      8.798154071919715e-3 8.908821226560393e-3 9.020880402642851e-3 9.134349109641352e-3
      9.249245077272217e-3 9.365586258264138e-3 9.483390831163346e-3 9.602677203174023e-3
      9.723464013034505e-3 9.845770133929562e-3 9.969614676439422e-3 1.009501699152582e-2
      1.022199667355560e-2 1.035057356336244e-2 1.048076775134697e-2 1.061259958061593e-2
      1.074608965016087e-2 1.088125881807672e-2 1.101812820482100e-2 1.115671919651384e-2
      1.129705344827966e-2 1.143915288763080e-2 1.158303971789377e-2 1.172873642167854e-2
      1.187626576439150e-2 1.202565079779260e-2 1.217691486359722e-2 1.233008159712340e-2
      1.248517493098489e-2 1.264221909883063e-2 1.280123863913135e-2 1.296225839901377e-2
      1.312530353814293e-2 1.329039953265358e-2 1.345757217913074e-2 1.362684759864052e-2
      1.379825224081164e-2 1.397181288796813e-2 1.414755665931424e-2 1.432551101517181e-2
      1.450570376127098e-2 1.468816305309493e-2 1.487291740027920e-2 1.505999567106648e-2
      1.524942709681715e-2 1.544124127657691e-2 1.563546818170157e-2 1.583213816054023e-2
      1.603128194317721e-2 1.623293064623372e-2 1.643711577772985e-2 1.664386924200782e-2
      1.685322334471706e-2 1.706521079786208e-2 1.727986472491370e-2 1.749721866598475e-2
      1.771730658307072e-2 1.794016286535643e-2 1.816582233458941e-2 1.839432025052082e-2
      1.862569231641491e-2 1.885997468462770e-2 1.909720396225587e-2 1.933741721685672e-2
      1.958065198223998e-2 1.982694626433262e-2 2.007633854711729e-2 2.032886779864556e-2
      2.058457347712679e-2 2.084349553709346e-2 2.110567443564422e-2 2.137115113876538e-2
      2.163996712773190e-2 2.191216440558900e-2 2.218778550371512e-2 2.246687348846760e-2
      2.274947196791186e-2 2.303562509863524e-2 2.332537759264665e-2 2.361877472436275e-2
      2.391586233768231e-2 2.421668685314934e-2 2.452129527520638e-2 2.482973519953915e-2
      2.514205482051334e-2 2.545830293870515e-2 2.577852896852644e-2 2.610278294594587e-2
      2.643111553630716e-2 2.676357804224551e-2 2.710022241170389e-2 2.744110124604992e-2
      2.778626780829498e-2 2.813577603141671e-2 2.848968052678604e-2 2.884803659270037e-2
      2.921090022302411e-2 2.957832811593770e-2 2.995037768279702e-2 3.032710705710378e-2
      3.070857510358920e-2 3.109484142741163e-2 3.148596638347001e-2 3.188201108583455e-2
      3.228303741729568e-2 3.268910803903363e-2 3.310028640040918e-2 3.351663674887782e-2
      3.393822414002863e-2 3.436511444774918e-2 3.479737437451855e-2 3.523507146182975e-2
      3.567827410074314e-2 3.612705154257282e-2 3.658147390970707e-2 3.704161220656532e-2
      3.750753833069258e-2 3.797932508399366e-2 3.845704618410867e-2 3.894077627593143e-2
      3.943059094327292e-2 3.992656672067146e-2 4.042878110535131e-2 4.093731256933189e-2
      4.145224057168903e-2 4.197364557097076e-2 4.250160903776898e-2 4.303621346744952e-2
      4.357754239304223e-2 4.412568039829306e-2 4.468071313088052e-2 4.524272731579830e-2
      4.581181076890617e-2 4.638805241065158e-2 4.697154227996337e-2 4.756237154832076e-2
      4.816063253399897e-2 4.876641871649414e-2 4.937982475112984e-2 5.000094648384696e-2
      5.062988096617990e-2 5.126672647042109e-2 5.191158250497621e-2 5.256454982991270e-2
      5.322573047270352e-2 5.389522774416930e-2 5.457314625462080e-2 5.525959193020445e-2
      5.595467202945377e-2 5.665849516004836e-2 5.737117129578431e-2 5.809281179375777e-2
      5.882352941176471e-2 5.956343832591968e-2 6.031265414849583e-2 6.107129394598974e-2
      6.183947625741322e-2 6.261732111281527e-2 6.340495005203717e-2 6.420248614370305e-2
      6.501005400444990e-2 6.582777981839891e-2 6.665579135687214e-2 6.749421799835719e-2
      6.834319074872255e-2 6.920284226168771e-2 7.007330685955053e-2 7.095472055417533e-2
      7.184722106824530e-2 7.275094785678149e-2 7.366604212893324e-2 7.459264687004237e-2
      7.553090686398479e-2 7.648096871579360e-2 7.744298087456601e-2 7.841709365665903e-2
      7.940345926917670e-2 8.040223183375272e-2 8.141356741063245e-2 8.243762402305727e-2
      8.347456168195635e-2 8.452454241094854e-2 8.558773027165890e-2 8.666429138935388e-2
      8.775439397889828e-2 8.885820837103962e-2 8.997590703902235e-2 9.110766462553723e-2
      9.225365797000995e-2 9.341406613623199e-2 9.458907044034021e-2 9.577885447914770e-2
      9.698360415883107e-2 9.820350772397902e-2 9.943875578700540e-2 1.006895413579333e-1
      1.019560598745527e-1 1.032385092329587e-1 1.045370898184729e-1 1.058520045369535e-1
      1.071834588465006e-1 1.085316607895589e-1 1.098968210254248e-1 1.112791528631629e-1
      1.126788722949351e-1 1.140961980297503e-1 1.155313515276381e-1 1.169845570342525e-1
      1.184560416159104e-1 1.199460351950715e-1 1.214547705862640e-1 1.229824835324622e-1
      1.245294127419220e-1 1.260957999254800e-1 1.276818898343202e-1 1.292879302982178e-1
      1.309141722642629e-1 1.325608698360711e-1 1.342282803134885e-1 1.359166642327944e-1
      1.376262854074113e-1 1.393574109691260e-1 1.411103114098293e-1 1.428852606237817e-1
      1.446825359504089e-1 1.465024182176372e-1 1.483451917857735e-1 1.502111445919369e-1
      1.521005681950498e-1 1.540137578213942e-1 1.559510124107416e-1 1.579126346630631e-1
      1.598989310858262e-1 1.619102120418887e-1 1.639467917979913e-1 1.660089885738647e-1
      1.680971245919509e-1 1.702115261277506e-1 1.723525235608061e-1 1.745204514263217e-1
      1.767156484674372e-1 1.789384576881568e-1 1.811892264069430e-1 1.834683063109880e-1
      1.857760535111629e-1 1.881128285976632e-1 1.904789966963508e-1 1.928749275258043e-1
      1.953009954550913e-1 1.977575795622606e-1 2.002450636935775e-1 2.027638365234987e-1
      2.053142916154024e-1 2.078968274830867e-1 2.105118476530341e-1 2.131597607274671e-1
      2.158409804481910e-1 2.185559257612414e-1 2.213050208823479e-1 2.240886953632154e-1
      2.269073841586455e-1 2.297615276944974e-1 2.326515719365045e-1 2.355779684599606e-1
      2.385411745202751e-1 2.415416531244242e-1 2.445798731032947e-1 2.476563091849388e-1
      2.507714420687543e-1 2.539257585005909e-1 2.571197513488092e-1 2.603539196812905e-1
      2.636287688434156e-1 2.669448105370298e-1 2.703025629003935e-1 2.737025505891452e-1
      2.771453048582791e-1 2.806313636451531e-1 2.841612716535461e-1 2.877355804387651e-1
      2.913548484938302e-1 2.950196413367390e-1 2.987305315988284e-1 3.024880991142525e-1
      3.062929310105794e-1 3.101456218005347e-1 3.140467734748929e-1 3.179969955965392e-1
      3.219969053957179e-1 3.260471278664720e-1 3.301482958643032e-1 3.343010502050557e-1
      3.385060397650430e-1 3.427639215824399e-1 3.470753609599422e-1 3.514410315687248e-1
      3.558616155537029e-1 3.603378036401168e-1 3.648702952414630e-1 3.694597985687745e-1
      3.741070307412841e-1 3.788127178984744e-1 3.835775953135360e-1 3.884024075082608e-1
      3.932879083693690e-1 3.982348612663102e-1 4.032440391705402e-1 4.083162247762962e-1
      4.134522106229000e-1 4.186527992185881e-1 4.239188031659097e-1 4.292510452886963e-1
      4.346503587606265e-1 4.401175872354168e-1 4.456535849786381e-1 4.512592170012017e-1
      4.569353591945164e-1 4.626828984673466e-1 4.685027328843988e-1 4.743957718066397e-1
      4.803629360333909e-1 4.864051579462044e-1 4.925233816545450e-1 4.987185631433166e-1
      5.049916704222293e-1 5.113436836770590e-1 5.177755954228007e-1 5.242884106587492e-1
      5.308831470255370e-1 5.375608349641370e-1 5.443225178768758e-1 5.511692522904667e-1
      5.581021080210897e-1 5.651221683415595e-1 5.722305301505815e-1 5.794283041441518e-1
      5.867166149891015e-1 5.940966014988267e-1 6.015694168112359e-1 6.091362285689232e-1
      6.167982191016218e-1 6.245565856109419e-1 6.324125403574326e-1 6.403673108500088e-1
      6.484221400377415e-1 6.565782865040802e-1 6.648370246635053e-1 6.731996449606542e-1
      6.816674540719649e-1 6.902417751098361e-1 6.989239478293761e-1 7.077153288377376e-1
      7.166172918060867e-1 7.256312276842509e-1 7.347585449180478e-1 7.440006696693660e-1
      7.533590460390025e-1 7.628351362923019e-1 7.724304210876488e-1 7.821463997078110e-1
      7.919845902942182e-1 8.019465300841626e-1 8.120337756510056e-1 8.222479031473910e-1
      8.325905085515181e-1 8.430632079165264e-1 8.536676376229956e-1 8.644054546346435e-1
      8.752783367572265e-1 8.862879829006937e-1 8.974361133446576e-1 9.087244700071780e-1
      9.201548167169513e-1 9.317289394889078e-1 9.434486468032750e-1 9.553157698881682e-1
      9.673321630057096e-1 9.794997037417732e-1 9.918202932993559e-1 1.004295856795639e0
      1.016928343562804e0 1.029719727452605e0 1.042672007144803e0 1.055787206459450e0
      1.069067374673122e0 1.082514586839122e0 1.096130944111707e0 1.109918574074405e0
      1.123879631072451e0 1.138016296549401e0 1.152330779388001e0 1.166825316255314e0
      1.181502171952216e0 1.196363639767272e0 1.211412041835061e0 1.226649729499026e0
      1.242079083678860e0 1.257702515242550e0 1.273522465383063e0 1.289541405999793e0
      1.305761840084804e0 1.322186302113919e0 1.338817358442749e0 1.355657607707682e0
      1.372709681231925e0 1.389976243436662e0 1.407459992257362e0 1.425163659565352e0
      1.443090011594669e0 1.461241849374285e0 1.479622009165788e0 1.498233362906535e0
      1.517078818658415e0 1.536161321062235e0 1.555483851797812e0 1.575049430049892e0
      1.594861112979877e0 1.614921996203535e0 1.635235214274688e0 1.655803941174980e0
      1.676631390809842e0 1.697720817510649e0 1.719075516543232e0 1.740698824622763e0
      1.762594120435119e0 1.784764825164821e0 1.807214403029585e0 1.829946361821627e0
      1.852964253455763e0 1.876271674524382e0 1.899872266859454e0 1.923769718101540e0
      1.947967762276018e0 1.972470180376527e0 1.997280800955738e0 2.022403500723602e0
      2.047842205153062e0 2.073600889093444e0 2.099683577391524e0 2.126094345520408e0
      2.152837320216355e0 2.179916680123565e0 2.207336656447118e0 2.235101533614106e0
      2.263215649943067e0 2.291683398321883e0 2.320509226894150e0 2.349697639754231e0
      2.379253197651026e0 2.409180518700577e0 2.439484279107695e0 2.470169213896589e0
      2.501240117650752e0 2.532701845262115e0 2.564559312689618e0 2.596817497727370e0
      2.629481440782403e0 2.662556245662280e0 2.696047080372559e0 2.729959177924293e0
      2.764297837151727e0 2.799068423540218e0 2.834276370064636e0 2.869927178038262e0
      2.906026417972364e0 2.942579730446636e0 2.979592826990510e0 3.017071490975630e0
      3.055021578519499e0 3.093449019400497e0 3.132359817984453e0 3.171760054162798e0
      3.211655884302602e0 3.252053542208499e0 3.292959340096715e0 3.334379669581404e0
      3.376321002673308e0 3.418789892791058e0 3.461792975785145e0 3.505336970974764e0
      3.549428682197768e0 3.594074998873728e0 3.639282897080464e0 3.685059440644054e0
      3.731411782242549e0 3.778347164523644e0 3.825872921236295e0 3.873996478376688e0
      3.922725355348542e0 3.972067166138009e0 4.022029620503424e0 4.072620525179921e0
      4.123847785099286e0 4.175719404625114e0 4.228243488803475e0 4.281428244629397e0
      4.335281982329168e0 4.389813116658877e0 4.445030168219216e0 4.500941764786817e0
      4.557556642662410e0 4.614883648035833e0 4.672931738368313e0 4.731709983792078e0
      4.791227568527538e0 4.851493792318418e0 4.912518071884781e0 4.974309942394471e0
      5.036879058952980e0 5.100235198112053e0 5.164388259397349e0 5.229348266855196e0
      5.295125370618930e0 5.361729848494850e0 5.429172107568111e0 5.497462685828927e0
      5.566612253819067e0 5.636631616299228e0 5.707531713937262e0 5.779323625017651e0
      5.852018567172586e0 5.925627899134654e0 6.000163122511746e0 6.075635883584168e0
      6.152057975124366e0 6.229441338239648e0 6.307798064237915e0 6.387140396517035e0
      6.467480732477860e0 6.548831625461315e0 6.631205786709961e0 6.714616087354061e0
      6.799075560422803e0 6.884597402880701e0 6.971194977689608e0 7.058881815896798e0
      7.147671618749116e0 7.237578259833914e0 7.328615787246791e0 7.420798425786598e0
      7.514140579178179e0 7.608656832322881e0 7.704361953577565e0 7.801270897062157e0
      7.899398804996207e0 7.998761010065007e0 8.099373037815219e0 8.201250609080892e0
      8.304409642439824e0 8.408866256700824e0 8.514636773422421e0 8.621737719463011e0
      8.730185829563329e0 8.839998048961235e0 8.951191536039389e0 9.063783665006406e0
      9.177792028611478e0 9.293234440893380e0 9.410128939963922e0 9.528493790826374e0
      9.648347488229529e0 9.769708759557417e0 9.892596567755614e0 1.001703011429419e1
      1.014302884216790e1 1.027061243893438e1 1.039980083979015e1 1.053061423068569e1
      1.066307305147949e1 1.079719799913176e1 1.093301003093849e1 1.107053036780591e1
      1.120978049756647e1 1.135078217833627e1 1.149355744191476e1 1.163812859722740e1
      1.178451823381128e1 1.193274922534499e1 1.208284473322255e1 1.223482821017239e1
      1.238872340392204e1 1.254455436090859e1 1.270234543003612e1 1.286212126648025e1
      1.302390683554042e1 1.318772741654102e1 1.335360860678107e1 1.352157632553405e1
      1.369165681809778e1 1.386387665989521e1 1.403826276062705e1 1.421484236847628e1
      1.439364307436590e1 1.457469281627002e1 1.475801988357909e1 1.494365292152043e1
      1.513162093563382e1 1.532195329630393e1 1.551467974334937e1 1.570983039066954e1
      1.590743573095018e1 1.610752664042768e1 1.631013438371376e1 1.651529061868056e1
      1.672302740140711e1 1.693337719118843e1 1.714637285560707e1 1.736204767566896e1
      1.758043535100356e1 1.780157000512940e1 1.802548619078616e1 1.825221889533332e1
      1.848180354621731e1 1.871427601650694e1 1.894967263049862e1 1.918803016939225e1
      1.942938587703817e1 1.967377746575677e1 1.992124312223103e1 2.017182151347320e1
      2.042555179286677e1 2.068247360628405e1 2.094262709828112e1 2.120605291837045e1
      2.147279222737229e1 2.174288670384643e1 2.201637855060425e1 2.229331050130327e1
      2.257372582712425e1 2.285766834353228e1 2.314518241712332e1 2.343631297255623e1
      2.373110549957266e1 2.402960606010474e1 2.433186129547229e1 2.463791843367084e1
      2.494782529675086e1 2.526163030829023e1 2.557938250096051e1 2.590113152418818e1
      2.622692765191280e1 2.655682179044209e1 2.689086548640641e1 2.722911093481292e1
      2.757161098720101e1 2.791841915990076e1 2.826958964239467e1 2.862517730578513e1
      2.898523771136805e1 2.934982711931424e1 2.971900249746056e1 3.009282153021084e1
      3.047134262754953e1 3.085462493416826e1 3.124272833870712e1 3.163571348311279e1
      3.203364177211350e1 3.243657538281405e1 3.284457727441094e1 3.325771119802972e1
      3.367604170668658e1 3.409963416537450e1 3.452855476127699e1 3.496287051410990e1
      3.540264928659308e1 3.584795979505460e1 3.629887162016728e1 3.675545521782123e1
      3.721778193013260e1 3.768592399659064e1 3.815995456534582e1 3.863994770463881e1
      3.912597841437423e1 3.961812263783938e1 4.011645727357033e1 4.062106018736791e1
      4.113201022446387e1 4.164938722184114e1 4.217327202070822e1 4.270374647913067e1
      4.324089348482199e1 4.378479696809453e1 4.433554191497420e1 4.489321438047951e1
      4.545790150206765e1 4.602969151325039e1 4.660867375738013e1 4.719493870161052e1
      4.778857795103200e1 4.838968426298486e1 4.899835156155346e1 4.961467495224139e1
      5.023875073683245e1 5.087067642843776e1 5.151055076673212e1 5.215847373338289e1
      5.281454656767167e1 5.347887178231367e1 5.415155317947535e1 5.483269586699343e1
      5.552240627479882e1 5.622079217154575e1 5.692796268145156e1 5.764402830134731e1
      5.836910091794272e1 5.910329382530953e1 5.984672174258302e1 6.059950083188788e1
      6.136174871648848e1 6.213358449916736e1 6.291512878083613e1 6.370650367937860e1
      6.450783284873285e1 6.531924149821207e1 6.614085641206827e1 6.697280596930359e1
      6.781522016372874e1 6.866823062427561e1 6.953197063556424e1 7.040657515872844e1
      7.129218085250462e1 7.218892609458393e1 7.309695100323506e1 7.401639745919745e1
      7.494740912785024e1 7.589013148166109e1 7.684471182291546e1 7.781129930673398e1
      7.879004496437760e1 7.978110172684637e1 8.078462444877603e1 8.180076993263324e1
      8.282969695321739e1 8.387156628246897e1 8.492654071459004e1 8.599478509148232e1
      8.707646632850274e1 8.817175344054542e1 8.928081756845017e1 9.040383200574309e1
      9.154097222571506e1 9.269241590883871e1 9.385834297053231e1 9.503893558927150e1
      9.623437823505455e1 9.744485769822736e1 9.867056311866845e1 9.991168601534367e1
      1.011684203162309e2
      </PP_R>
    <PP_RAB>
      6.705014452606736e-7 6.789353151978106e-7 6.874752701592516e-7 6.961226445303338e-7
      7.048787894808969e-7 7.137450731764035e-7 7.227228809917197e-7 7.318136157275818e-7
      7.410186978297872e-7 7.503395656111432e-7 7.597776754762037e-7 7.693345021488371e-7
      7.790115389026545e-7 7.888102977943357e-7 7.987323098998955e-7 8.087791255539104e-7
      8.189523145917670e-7 8.292534665949503e-7 8.396841911394173e-7 8.502461180471014e-7
      8.609408976405694e-7 8.717702010008917e-7 8.827357202287505e-7 8.938391687088345e-7
      9.050822813775596e-7 9.164668149941539e-7 9.279945484151575e-7 9.396672828723709e-7
      9.514868422543000e-7 9.634550733911471e-7 9.755738463433760e-7 9.878450546939167e-7
      1.000270615844040e-6 1.012852471312954e-6 1.025592587041176e-6 1.038492953697707e-6
      1.051555586991084e-6 1.064782527984335e-6 1.078175843413899e-6 1.091737626012564e-6
      1.105469994836450e-6 1.119375095596126e-6 1.133455100991875e-6 1.147712211053185e-6
      1.162148653482513e-6 1.176766684003356e-6 1.191568586712725e-6 1.206556674438034e-6
      1.221733289098481e-6 1.237100802070986e-6 1.252661614560716e-6 1.268418157976281e-6
      1.284372894309647e-6 1.300528316520824e-6 1.316886948927404e-6 1.333451347598982e-6
      1.350224100756549e-6 1.367207829176913e-6 1.384405186602189e-6 1.401818860154468e-6
      1.419451570755669e-6 1.437306073552697e-6 1.455385158347939e-6 1.473691650035176e-6
      1.492228409040981e-6 1.510998331771661e-6 1.530004351065831e-6 1.549249436652673e-6
      1.568736595615962e-6 1.588468872863937e-6 1.608449351605062e-6 1.628681153829792e-6
      1.649167440798385e-6 1.669911413534858e-6 1.690916313327159e-6 1.712185422233613e-6
      1.733722063595759e-6 1.755529602557627e-6 1.777611446591547e-6 1.799971046030576e-6
      1.822611894607617e-6 1.845537530001322e-6 1.868751534388866e-6 1.892257535005662e-6
      1.916059204712132e-6 1.940160262567589e-6 1.964564474411361e-6 1.989275653451196e-6
      2.014297660859095e-6 2.039634406374624e-6 2.065289848915818e-6 2.091267997197770e-6
      2.117572910359002e-6 2.144208698595711e-6 2.171179523804005e-6 2.198489600230192e-6
      2.226143195129276e-6 2.254144629431723e-6 2.282498278418610e-6 2.311208572405280e-6