/apps/openmpi/3.1_intel-19/bin/mpiexec
starting QE Sun Jul 5 11:05:30 PDT 2020

     Program PWSCF v.6.5 starts on  5Jul2020 at 11: 5:32 

     This program is part of the open-source Quantum ESPRESSO suite
     for quantum simulation of materials; please cite
         "P. Giannozzi et al., J. Phys.:Condens. Matter 21 395502 (2009);
         "P. Giannozzi et al., J. Phys.:Condens. Matter 29 465901 (2017);
          URL http://www.quantum-espresso.org", 
     in publications or presentations arising from this work. More details at
     http://www.quantum-espresso.org/quote

     Parallel version (MPI), running on    16 processors

     MPI processes distributed on     1 nodes
     K-points division:     npool     =       2
     R & G space division:  proc/nbgrp/npool/nimage =       8
     Reading input from ./QE_input_scripts/pw.NiPyC2_relax_sc211_meta_functionalized_SH_pbesol_relax_frozen_parent_atoms.in
Warning: card &CELL ignored
Warning: card    CELL_DYNAMICS = 'BFGS' ignored
Warning: card    CELL_DOFREE = 'XYZ' ignored
Warning: card / ignored

     Current dimensions of program PWSCF are:
     Max number of different atomic species (ntypx) = 10
     Max number of k-points (npk) =  40000
     Max angular momentum in pseudopotentials (lmaxx) =  3

     -------------------------------------------------
     Parameters for Dispersion (Grimme-D2) Correction:
     -------------------------------------------------
       atom      VdW radius       C_6     

        C          2.744         60.710
        H          1.892          4.857
        N          2.640         42.670
        Ni         2.952        374.666
        O          2.536         24.284
        S          3.180        193.230

     gamma-point specific algorithms are used

     Subspace diagonalization in iterative solution of the eigenvalue problem:
     a serial algorithm will be used

 
     Parallelization info
     --------------------
     sticks:   dense  smooth     PW     G-vecs:    dense   smooth      PW
     Min        2228    2228    556               183376   183376   22914
     Max        2230    2230    558               183380   183380   22917
     Sum       17829   17829   4453              1467017  1467017  183325
 


     bravais-lattice index     =            0
     lattice parameter (alat)  =      23.6322  a.u.
     unit-cell volume          =   10858.6228 (a.u.)^3
     number of atoms/cell      =          116
     number of atomic types    =            6
     number of electrons       =       448.00 (up: 228.00, down: 220.00)
     number of Kohn-Sham states=          274
     kinetic-energy cutoff     =     100.0000  Ry
     charge density cutoff     =     400.0000  Ry
     convergence threshold     =      5.0E-06
     mixing beta               =       0.7000
     number of iterations used =            8  local-TF  mixing
     Exchange-correlation= PBESOL
                           (   1   4  10   8   0   0   0)
     nstep                     =          200


     celldm(1)=  23.632159  celldm(2)=   0.000000  celldm(3)=   0.000000
     celldm(4)=   0.000000  celldm(5)=   0.000000  celldm(6)=   0.000000

     crystal axes: (cart. coord. in units of alat)
               a(1) = (   1.000000   0.000000   0.000000 )  
               a(2) = (   0.000000   1.001423   0.000000 )  
               a(3) = (  -0.018199   0.000000   0.821574 )  

     reciprocal axes: (cart. coord. in units 2 pi/alat)
               b(1) = (  1.000000  0.000000  0.022152 )  
               b(2) = (  0.000000  0.998579  0.000000 )  
               b(3) = (  0.000000  0.000000  1.217175 )  


     PseudoPot. # 1 for C  read from file:
     ./pseudo/C.pbesol-nc.UPF
     MD5 check sum: ce26087537ded160c8d400e183a8bf42
     Pseudo is Norm-conserving, Zval =  4.0
     Generated using "atomic" code by A. Dal Corso v.6.5
     Using radial grid of 1073 points,  1 beta functions with: 
                l(1) =   1

     PseudoPot. # 2 for H  read from file:
     ./pseudo/H.pbesol-n-nc.UPF
     MD5 check sum: 7995ef24074557c85b430109caaacc09
     Pseudo is Norm-conserving, Zval =  1.0
     Generated using "atomic" code by A. Dal Corso v.6.5
     Using radial grid of  929 points,  0 beta functions with: 

     PseudoPot. # 3 for N  read from file:
     ./pseudo/N.pbesol-nc.UPF
     MD5 check sum: e18cc5e4b8a5600c1a19b30c2cab1ca0
     Pseudo is Norm-conserving, Zval =  5.0
     Generated using "atomic" code by A. Dal Corso v.6.5
     Using radial grid of 1085 points,  1 beta functions with: 
                l(1) =   1

     PseudoPot. # 4 for Ni read from file:
     ./pseudo/Ni.pbesol-n-nc.UPF
     MD5 check sum: 623411631e0c2eb7c0b2b9815547d2d9
     Pseudo is Norm-conserving + core correction, Zval = 10.0
     Generated using "atomic" code by A. Dal Corso v.6.5
     Using radial grid of 1195 points,  2 beta functions with: 
                l(1) =   1
                l(2) =   2

     PseudoPot. # 5 for O  read from file:
     ./pseudo/O.pbesol-nc.UPF
     MD5 check sum: 73d10e7e91dbfcbe8a7e362101007f84
     Pseudo is Norm-conserving, Zval =  6.0
     Generated using "atomic" code by A. Dal Corso v.6.5
     Using radial grid of 1095 points,  1 beta functions with: 
                l(1) =   1

     PseudoPot. # 6 for S  read from file:
     ./pseudo/S.pbesol-n-nc.UPF
     MD5 check sum: d8715477aa2619fbc4411ed981bb1c26
     Pseudo is Norm-conserving + core correction, Zval =  6.0
     Generated using "atomic" code by A. Dal Corso v.6.5
     Using radial grid of 1151 points,  2 beta functions with: 
                l(1) =   0
                l(2) =   1

     atomic species   valence    mass     pseudopotential
        C              4.00    12.01070     C ( 1.00)
        H              1.00     1.00794     H ( 1.00)
        N              5.00    14.00670     N ( 1.00)
        Ni            10.00    58.69340     Ni( 1.00)
        O              6.00    15.99940     O ( 1.00)
        S              6.00    32.06500     S ( 1.00)

     Starting magnetic structure 
     atomic species   magnetization
        C            0.000
        H            0.000
        N            0.000
        Ni           0.250
        O            0.000
        S            0.000

     No symmetry found



   Cartesian axes

     site n.     atom                  positions (alat units)
         1           C   tau(   1) = (   0.2787122   0.9714307   0.4288486  )
         2           C   tau(   2) = (   0.0379730   0.0311503   0.0183277  )
         3           C   tau(   3) = (   0.3806882   0.0117868   0.4489838  )
         4           C   tau(   4) = (   0.1394042   0.9891499   0.0379124  )
         5           C   tau(   5) = (   0.4400787   0.9715829   0.5343281  )
         6           C   tau(   6) = (   0.1997920   0.0283934   0.1231482  )
         7           C   tau(   7) = (   0.1986011   0.5304580   0.4324635  )
         8           C   tau(   8) = (   0.4580372   0.4720800   0.0229252  )
         9           C   tau(   9) = (   0.2341003   0.6142040   0.4982314  )
        10           C   tau(  10) = (   0.4948422   0.3892302   0.0892369  )
        11           C   tau(  11) = (   0.2384981   0.8904717   0.4955761  )
        12           C   tau(  12) = (  -0.0008282   0.1123917   0.0856467  )
        13           C   tau(  13) = (   0.3947360   0.8906489   0.5977380  )
        14           C   tau(  14) = (   0.1557890   0.1097029   0.1871645  )
        15           C   tau(  15) = (   0.0756247   0.6098498   0.5975737  )
        16           C   tau(  16) = (   0.3367152   0.3921904   0.1884642  )
        17           C   tau(  17) = (   0.0350715   0.5258264   0.5351012  )
        18           C   tau(  18) = (   0.2948780   0.4753867   0.1254988  )
        19           C   tau(  19) = (   0.0981522   0.4849593   0.4519611  )
        20           C   tau(  20) = (   0.3569104   0.5163900   0.0416029  )
        21           C   tau(  21) = (   0.4248178   0.0994604   0.3833638  )
        22           C   tau(  22) = (   0.1639424   0.9010006   0.7933713  )
        23           C   tau(  23) = (   0.0588120   0.3950355   0.3866953  )
        24           C   tau(  24) = (   0.2984059   0.6050320   0.7961934  )
        25           C   tau(  25) = (   0.7787122   0.9714307   0.4288486  )
        26           C   tau(  26) = (   0.5379730   0.0311503   0.0183277  )
        27           C   tau(  27) = (   0.8806882   0.0117868   0.4489838  )
        28           C   tau(  28) = (   0.6394042   0.9891499   0.0379124  )
        29           C   tau(  29) = (   0.9400787   0.9715829   0.5343281  )
        30           C   tau(  30) = (   0.6997920   0.0283934   0.1231482  )
        31           C   tau(  31) = (   0.6986021   0.5304580   0.4324635  )
        32           C   tau(  32) = (   0.9580382   0.4720800   0.0229252  )
        33           C   tau(  33) = (   0.7341003   0.6142040   0.4982314  )
        34           C   tau(  34) = (   0.9948422   0.3892302   0.0892369  )
        35           C   tau(  35) = (   0.7384981   0.8904717   0.4955761  )
        36           C   tau(  36) = (   0.4991718   0.1123917   0.0856467  )
        37           C   tau(  37) = (   0.8947360   0.8906489   0.5977380  )
        38           C   tau(  38) = (   0.6557880   0.1097029   0.1871645  )
        39           C   tau(  39) = (   0.5756247   0.6098498   0.5975737  )
        40           C   tau(  40) = (   0.8367152   0.3921904   0.1884642  )
        41           C   tau(  41) = (   0.5350715   0.5258264   0.5351012  )
        42           C   tau(  42) = (   0.7948780   0.4753867   0.1254988  )
        43           C   tau(  43) = (   0.5981522   0.4849593   0.4519611  )
        44           C   tau(  44) = (   0.8569104   0.5163900   0.0416029  )
        45           C   tau(  45) = (   0.9248178   0.0994604   0.3833638  )
        46           C   tau(  46) = (   0.6639424   0.9010006   0.7933713  )
        47           C   tau(  47) = (   0.5588110   0.3950355   0.3866953  )
        48           C   tau(  48) = (   0.7984059   0.6050320   0.7961934  )
        49           H   tau(  49) = (   0.4693669   0.0026958   0.7751545  )
        50           H   tau(  50) = (   0.2791988   1.0000865   0.1418054  )
        51           H   tau(  51) = (   0.3118554   0.6514319   0.4868937  )
        52           H   tau(  52) = (   0.0732386   0.3533532   0.0780726  )
        53           H   tau(  53) = (   0.1594426   0.8563401   0.4835457  )
        54           H   tau(  54) = (   0.4206861   0.1479423   0.0738480  )
        55           H   tau(  55) = (   0.4386511   0.8563902   0.6644572  )
        56           H   tau(  56) = (   0.2006191   0.1433067   0.2536997  )
        57           H   tau(  57) = (   0.0290492   0.6438591   0.6626884  )
        58           H   tau(  58) = (   0.2907535   0.3580349   0.2539083  )
        59           H   tau(  59) = (   0.2157623   0.5059201   0.1439924  )
        60           H   tau(  60) = (   0.7290596   1.0009978   0.3640502  )
        61           H   tau(  61) = (   0.5198044   1.0002267   0.5533467  )
        62           H   tau(  62) = (   0.7505234   0.5016080   0.3691185  )
        63           H   tau(  63) = (   0.8118554   0.6514319   0.4868937  )
        64           H   tau(  64) = (   0.5732386   0.3533532   0.0780726  )
        65           H   tau(  65) = (   0.6594426   0.8563401   0.4835457  )
        66           H   tau(  66) = (   0.9206861   0.1479423   0.0738480  )
        67           H   tau(  67) = (   0.9386511   0.8563902   0.6644572  )
        68           H   tau(  68) = (   0.7006201   0.1433067   0.2536997  )
        69           H   tau(  69) = (   0.5290492   0.6438591   0.6626884  )
        70           H   tau(  70) = (   0.7907535   0.3580349   0.2539083  )
        71           H   tau(  71) = (   0.9564147   0.4939330   0.5533319  )
        72           H   tau(  72) = (   0.7157623   0.5059201   0.1439924  )
        73           H   tau(  73) = (   0.1474445   0.0943161   0.3845953  )
        74           H   tau(  74) = (   0.8865105   0.9104991   0.7954441  )
        75           H   tau(  75) = (   0.3355759   0.4109541   0.3927930  )
        76           H   tau(  76) = (   0.5752732   0.5933604   0.8043508  )
        77           H   tau(  77) = (   0.0330499   0.0943701   0.6369287  )
        78           H   tau(  78) = (   0.7918237   0.9041291   0.2247819  )
        79           H   tau(  79) = (   0.4451033   0.3999805   0.6383073  )
        80           H   tau(  80) = (   0.0752741   0.5933604   0.8043524  )
        81           N   tau(  81) = (   0.2956096   0.8524646   0.5790685  )
        82           N   tau(  82) = (   0.0569790   0.1490689   0.1692870  )
        83           N   tau(  83) = (   0.1736962   0.6512356   0.5798983  )
        84           N   tau(  84) = (   0.4350238   0.3514275   0.1709211  )
        85           N   tau(  85) = (   0.7956096   0.8524646   0.5790685  )
        86           N   tau(  86) = (   0.5569790   0.1490689   0.1692870  )
        87           N   tau(  87) = (   0.6736972   0.6512356   0.5798983  )
        88           N   tau(  88) = (   0.9350238   0.3514275   0.1709211  )
        89           Ni  tau(  89) = (   0.2317814   0.7525556   0.6871039  )
        90           Ni  tau(  90) = (   0.4937992   0.2483520   0.2786599  )
        91           Ni  tau(  91) = (   0.7317814   0.7525556   0.6871039  )
        92           Ni  tau(  92) = (   0.9937992   0.2483520   0.2786599  )
        93           O   tau(  93) = (   0.1158100   0.3481839   0.3145586  )
        94           O   tau(  94) = (   0.3551690   0.6519036   0.7240468  )
        95           O   tau(  95) = (   0.3707656   0.1477170   0.3098797  )
        96           O   tau(  96) = (   0.1091506   0.8535652   0.7199135  )
        97           O   tau(  97) = (   0.4642788   0.3566669   0.3968154  )
        98           O   tau(  98) = (   0.2033039   0.6423280   0.8050417  )
        99           O   tau(  99) = (   0.0200847   0.1353504   0.3952413  )
       100           O   tau( 100) = (   0.2588616   0.8639860   0.8046490  )
       101           O   tau( 101) = (   0.6158110   0.3481839   0.3145586  )
       102           O   tau( 102) = (   0.8551690   0.6519036   0.7240468  )
       103           O   tau( 103) = (   0.8707656   0.1477170   0.3098797  )
       104           O   tau( 104) = (   0.6091506   0.8535652   0.7199135  )
       105           O   tau( 105) = (   0.9642788   0.3566669   0.3968154  )
       106           O   tau( 106) = (   0.7033039   0.6423280   0.8050417  )
       107           O   tau( 107) = (   0.5200847   0.1353504   0.3952413  )
       108           O   tau( 108) = (   0.7588616   0.8639860   0.8046490  )
       109           S   tau( 109) = (   0.1940224   0.0140269   0.3209488  )
       110           S   tau( 110) = (   0.9340844   0.9904167   0.7320670  )
       111           S   tau( 111) = (   0.2867447   0.4879826   0.3268477  )
       112           S   tau( 112) = (   0.5277880   0.5151903   0.7387661  )
       113           S   tau( 113) = (   0.0727271   0.0140550   0.5687964  )
       114           S   tau( 114) = (   0.8320847   0.9842009   0.1567063  )
       115           S   tau( 115) = (   0.4036711   0.4771001   0.5675772  )
       116           S   tau( 116) = (   0.0277890   0.5151913   0.7387670  )

     number of k points=     1  Marzari-Vanderbilt smearing, width (Ry)=  0.2000
                       cart. coord. in units 2pi/alat
        k(    1) = (   0.0000000   0.0000000   0.0000000), wk =   1.0000000

     Dense  grid:   733509 G-vectors     FFT dimensions: ( 160, 160, 125)

     Estimated max dynamical RAM per process >     637.27 MB

     Estimated total dynamical RAM >       9.96 GB
     Generating pointlists ...
     new r_m :   0.0358 (alat units)  0.8461 (a.u.) for type    1
     new r_m :   0.0358 (alat units)  0.8461 (a.u.) for type    2
     new r_m :   0.0445 (alat units)  1.0514 (a.u.) for type    3
     new r_m :   0.0654 (alat units)  1.5454 (a.u.) for type    4
     new r_m :   0.0423 (alat units)  0.9991 (a.u.) for type    5
     new r_m :   0.0464 (alat units)  1.0971 (a.u.) for type    6

     Check: negative core charge=   -0.000143

     Initial potential from superposition of free atoms

     starting charge  447.99644, renormalised to  448.00000
     Starting wfcs are  388 randomized atomic wfcs

     total cpu time spent up to now is       29.2 secs

     Self-consistent Calculation

     iteration #  1     ecut=   100.00 Ry     beta= 0.70
     Davidson diagonalization with overlap
     ethr =  1.00E-02,  avg # of iterations =  3.5

     total cpu time spent up to now is       96.9 secs

     total energy              =   -1806.53509946 Ry
     Harris-Foulkes estimate   =   -1812.63683529 Ry
     estimated scf accuracy    <      16.38023794 Ry

     total magnetization       =     8.00 Bohr mag/cell
     absolute magnetization    =     8.11 Bohr mag/cell

     iteration #  2     ecut=   100.00 Ry     beta= 0.70
     Davidson diagonalization with overlap
     ethr =  3.66E-03,  avg # of iterations =  2.0

     total cpu time spent up to now is      138.0 secs

     total energy              =   -1807.21922775 Ry
     Harris-Foulkes estimate   =   -1809.53214876 Ry
     estimated scf accuracy    <      10.18309241 Ry

     total magnetization       =     8.00 Bohr mag/cell
     absolute magnetization    =     8.09 Bohr mag/cell

     iteration #  3     ecut=   100.00 Ry     beta= 0.70
     Davidson diagonalization with overlap
     ethr =  2.27E-03,  avg # of iterations =  2.0

     total cpu time spent up to now is      176.9 secs

     total energy              =   -1807.50777992 Ry
     Harris-Foulkes estimate   =   -1808.93087857 Ry
     estimated scf accuracy    <       8.60867059 Ry

     total magnetization       =     8.00 Bohr mag/cell
     absolute magnetization    =     8.14 Bohr mag/cell

     iteration #  4     ecut=   100.00 Ry     beta= 0.70
     Davidson diagonalization with overlap
     ethr =  1.92E-03,  avg # of iterations =  1.0

     total cpu time spent up to now is      213.6 secs

     total energy              =   -1808.11007162 Ry
     Harris-Foulkes estimate   =   -1808.41075594 Ry
     estimated scf accuracy    <       2.45378923 Ry

     total magnetization       =     8.00 Bohr mag/cell
     absolute magnetization    =     8.11 Bohr mag/cell

     iteration #  5     ecut=   100.00 Ry     beta= 0.70
     Davidson diagonalization with overlap
     ethr =  5.48E-04,  avg # of iterations =  7.0

     total cpu time spent up to now is      258.8 secs

     total energy              =   -1808.10226657 Ry
     Harris-Foulkes estimate   =   -1808.19127168 Ry
     estimated scf accuracy    <       0.41464569 Ry

     total magnetization       =     8.00 Bohr mag/cell
     absolute magnetization    =     8.12 Bohr mag/cell

     iteration #  6     ecut=   100.00 Ry     beta= 0.70
     Davidson diagonalization with overlap
     ethr =  9.26E-05,  avg # of iterations = 12.5

     total cpu time spent up to now is      307.7 secs

     total energy              =   -1808.10117915 Ry
     Harris-Foulkes estimate   =   -1808.12426128 Ry
     estimated scf accuracy    <       0.13780757 Ry

     total magnetization       =     8.00 Bohr mag/cell
     absolute magnetization    =     8.14 Bohr mag/cell

     iteration #  7     ecut=   100.00 Ry     beta= 0.70
     Davidson diagonalization with overlap
     ethr =  3.08E-05,  avg # of iterations =  9.0

     total cpu time spent up to now is      352.7 secs

     total energy              =   -1808.08911645 Ry
     Harris-Foulkes estimate   =   -1808.11980945 Ry
     estimated scf accuracy    <       0.30359036 Ry

     total magnetization       =     8.00 Bohr mag/cell
     absolute magnetization    =     8.14 Bohr mag/cell

     iteration #  8     ecut=   100.00 Ry     beta= 0.70
     Davidson diagonalization with overlap
     ethr =  3.08E-05,  avg # of iterations =  2.5

     total cpu time spent up to now is      391.0 secs

     total energy              =   -1808.09835568 Ry
     Harris-Foulkes estimate   =   -1808.10259079 Ry
     estimated scf accuracy    <       0.05275078 Ry

     total magnetization       =     8.00 Bohr mag/cell
     absolute magnetization    =     8.14 Bohr mag/cell

     iteration #  9     ecut=   100.00 Ry     beta= 0.70
     Davidson diagonalization with overlap
     ethr =  1.18E-05,  avg # of iterations =  6.5

     total cpu time spent up to now is      434.0 secs

     total energy              =   -1808.09848652 Ry
     Harris-Foulkes estimate   =   -1808.10148377 Ry
     estimated scf accuracy    <       0.05084487 Ry

     total magnetization       =     8.00 Bohr mag/cell
     absolute magnetization    =     8.14 Bohr mag/cell

     iteration # 10     ecut=   100.00 Ry     beta= 0.70
     Davidson diagonalization with overlap
     ethr =  1.13E-05,  avg # of iterations =  1.0

     total cpu time spent up to now is      470.8 secs

     total energy              =   -1808.10264874 Ry
     Harris-Foulkes estimate   =   -1808.10182204 Ry
     estimated scf accuracy    <       0.03101382 Ry

     total magnetization       =     8.00 Bohr mag/cell
     absolute magnetization    =     8.14 Bohr mag/cell

     iteration # 11     ecut=   100.00 Ry     beta= 0.70
     Davidson diagonalization with overlap
     ethr =  6.92E-06,  avg # of iterations =  3.0

     total cpu time spent up to now is      509.9 secs

     total energy              =   -1808.10641151 Ry
     Harris-Foulkes estimate   =   -1808.10412353 Ry
     estimated scf accuracy    <       0.00419871 Ry

     total magnetization       =     8.00 Bohr mag/cell
     absolute magnetization    =     8.13 Bohr mag/cell

     iteration # 12     ecut=   100.00 Ry     beta= 0.70
     Davidson diagonalization with overlap
     ethr =  9.37E-07,  avg # of iterations =  7.0

     total cpu time spent up to now is      560.8 secs

     total energy              =   -1808.10716342 Ry
     Harris-Foulkes estimate   =   -1808.10674761 Ry
     estimated scf accuracy    <       0.00101877 Ry

     total magnetization       =     8.00 Bohr mag/cell
     absolute magnetization    =     8.13 Bohr mag/cell

     iteration # 13     ecut=   100.00 Ry     beta= 0.70
     Davidson diagonalization with overlap
     ethr =  2.27E-07,  avg # of iterations =  4.0

     total cpu time spent up to now is      601.3 secs

     total energy              =   -1808.10720844 Ry
     Harris-Foulkes estimate   =   -1808.10742350 Ry
     estimated scf accuracy    <       0.00476821 Ry

     total magnetization       =     8.00 Bohr mag/cell
     absolute magnetization    =     8.13 Bohr mag/cell

     iteration # 14     ecut=   100.00 Ry     beta= 0.70
     Davidson diagonalization with overlap
     ethr =  2.27E-07,  avg # of iterations =  3.0

     total cpu time spent up to now is      639.9 secs

     total energy              =   -1808.10754793 Ry
     Harris-Foulkes estimate   =   -1808.10743212 Ry
     estimated scf accuracy    <       0.00039421 Ry

     total magnetization       =     8.00 Bohr mag/cell
     absolute magnetization    =     8.13 Bohr mag/cell

     iteration # 15     ecut=   100.00 Ry     beta= 0.70
     Davidson diagonalization with overlap
     ethr =  8.80E-08,  avg # of iterations =  3.5

     total cpu time spent up to now is      679.1 secs

     total energy              =   -1808.10762426 Ry
     Harris-Foulkes estimate   =   -1808.10756640 Ry
     estimated scf accuracy    <       0.00008530 Ry

     total magnetization       =     8.00 Bohr mag/cell
     absolute magnetization    =     8.13 Bohr mag/cell

     iteration # 16     ecut=   100.00 Ry     beta= 0.70
     Davidson diagonalization with overlap
     ethr =  1.90E-08,  avg # of iterations =  4.0

     total cpu time spent up to now is      720.6 secs

     total energy              =   -1808.10763528 Ry
     Harris-Foulkes estimate   =   -1808.10763198 Ry
     estimated scf accuracy    <       0.00005419 Ry

     total magnetization       =     8.00 Bohr mag/cell
     absolute magnetization    =     8.13 Bohr mag/cell

     iteration # 17     ecut=   100.00 Ry     beta= 0.70
     Davidson diagonalization with overlap
     ethr =  1.21E-08,  avg # of iterations =  3.0

     total cpu time spent up to now is      758.9 secs

     total energy              =   -1808.10763673 Ry
     Harris-Foulkes estimate   =   -1808.10763781 Ry
     estimated scf accuracy    <       0.00003299 Ry

     total magnetization       =     8.00 Bohr mag/cell
     absolute magnetization    =     8.13 Bohr mag/cell

     iteration # 18     ecut=   100.00 Ry     beta= 0.70
     Davidson diagonalization with overlap
     ethr =  7.36E-09,  avg # of iterations =  2.0

     total cpu time spent up to now is      796.3 secs

     total energy              =   -1808.10763706 Ry
     Harris-Foulkes estimate   =   -1808.10764020 Ry
     estimated scf accuracy    <       0.00005607 Ry

     total magnetization       =     8.00 Bohr mag/cell
     absolute magnetization    =     8.13 Bohr mag/cell

     iteration # 19     ecut=   100.00 Ry     beta= 0.70
     Davidson diagonalization with overlap
     ethr =  7.36E-09,  avg # of iterations =  3.0

     total cpu time spent up to now is      834.6 secs

     total energy              =   -1808.10763937 Ry
     Harris-Foulkes estimate   =   -1808.10763972 Ry
     estimated scf accuracy    <       0.00001390 Ry

     total magnetization       =     8.00 Bohr mag/cell
     absolute magnetization    =     8.13 Bohr mag/cell

     iteration # 20     ecut=   100.00 Ry     beta= 0.70
     Davidson diagonalization with overlap
     ethr =  3.10E-09,  avg # of iterations =  2.0

     total cpu time spent up to now is      872.0 secs

     total energy              =   -1808.10763923 Ry
     Harris-Foulkes estimate   =   -1808.10764088 Ry
     estimated scf accuracy    <       0.00002980 Ry

     total magnetization       =     8.00 Bohr mag/cell
     absolute magnetization    =     8.13 Bohr mag/cell

     iteration # 21     ecut=   100.00 Ry     beta= 0.70
     Davidson diagonalization with overlap
     ethr =  3.10E-09,  avg # of iterations =  3.0
 
     Magnetic moment per site:
     atom:    1    charge:    0.8314    magn:    0.0084    constr:    0.0000
     atom:    2    charge:    0.8327    magn:    0.0077    constr:    0.0000
     atom:    3    charge:    0.8472    magn:    0.0043    constr:    0.0000
     atom:    4    charge:    0.8473    magn:    0.0036    constr:    0.0000
     atom:    5    charge:    0.8455    magn:    0.0055    constr:    0.0000
     atom:    6    charge:    0.8487    magn:    0.0071    constr:    0.0000
     atom:    7    charge:    0.8329    magn:    0.0078    constr:    0.0000
     atom:    8    charge:    0.8320    magn:    0.0068    constr:    0.0000
     atom:    9    charge:    0.8379    magn:    0.0062    constr:    0.0000
     atom:   10    charge:    0.8371    magn:    0.0058    constr:    0.0000
     atom:   11    charge:    0.8383    magn:    0.0064    constr:    0.0000
     atom:   12    charge:    0.8373    magn:    0.0061    constr:    0.0000
     atom:   13    charge:    0.8402    magn:    0.0047    constr:    0.0000
     atom:   14    charge:    0.8489    magn:    0.0073    constr:    0.0000
     atom:   15    charge:    0.8468    magn:    0.0072    constr:    0.0000
     atom:   16    charge:    0.8471    magn:    0.0071    constr:    0.0000
     atom:   17    charge:    0.8473    magn:    0.0065    constr:    0.0000
     atom:   18    charge:    0.8472    magn:    0.0065    constr:    0.0000
     atom:   19    charge:    0.8494    magn:    0.0039    constr:    0.0000
     atom:   20    charge:    0.8470    magn:    0.0036    constr:    0.0000
     atom:   21    charge:    0.8222    magn:   -0.0012    constr:    0.0000
     atom:   22    charge:    0.8232    magn:   -0.0008    constr:    0.0000
     atom:   23    charge:    0.8227    magn:   -0.0010    constr:    0.0000
     atom:   24    charge:    0.8223    magn:   -0.0003    constr:    0.0000
     atom:   25    charge:    0.8458    magn:    0.0054    constr:    0.0000
     atom:   26    charge:    0.8457    magn:    0.0053    constr:    0.0000
     atom:   27    charge:    0.8472    magn:    0.0032    constr:    0.0000
     atom:   28    charge:    0.8465    magn:    0.0041    constr:    0.0000
     atom:   29    charge:    0.8307    magn:    0.0067    constr:    0.0000
     atom:   30    charge:    0.8297    magn:    0.0050    constr:    0.0000
     atom:   31    charge:    0.8468    magn:    0.0052    constr:    0.0000
     atom:   32    charge:    0.8311    magn:    0.0073    constr:    0.0000
     atom:   33    charge:    0.8375    magn:    0.0044    constr:    0.0000
     atom:   34    charge:    0.8376    magn:    0.0061    constr:    0.0000
     atom:   35    charge:    0.8372    magn:    0.0044    constr:    0.0000
     atom:   36    charge:    0.8377    magn:    0.0047    constr:    0.0000
     atom:   37    charge:    0.8485    magn:    0.0064    constr:    0.0000
     atom:   38    charge:    0.8399    magn:    0.0054    constr:    0.0000
     atom:   39    charge:    0.8465    magn:    0.0065    constr:    0.0000
     atom:   40    charge:    0.8395    magn:    0.0047    constr:    0.0000
     atom:   41    charge:    0.8307    magn:    0.0062    constr:    0.0000
     atom:   42    charge:    0.8456    magn:    0.0054    constr:    0.0000
     atom:   43    charge:    0.8489    magn:    0.0035    constr:    0.0000
     atom:   44    charge:    0.8466    magn:    0.0041    constr:    0.0000
     atom:   45    charge:    0.8212    magn:    0.0001    constr:    0.0000
     atom:   46    charge:    0.8220    magn:   -0.0002    constr:    0.0000
     atom:   47    charge:    0.8219    magn:   -0.0004    constr:    0.0000
     atom:   48    charge:    0.8223    magn:   -0.0003    constr:    0.0000
     atom:   49    charge:    0.4859    magn:   -0.0012    constr:    0.0000
     atom:   50    charge:    0.4830    magn:   -0.0008    constr:    0.0000
     atom:   51    charge:    0.4887    magn:   -0.0008    constr:    0.0000
     atom:   52    charge:    0.4892    magn:   -0.0010    constr:    0.0000
     atom:   53    charge:    0.4902    magn:   -0.0008    constr:    0.0000
     atom:   54    charge:    0.4916    magn:   -0.0010    constr:    0.0000
     atom:   55    charge:    0.4873    magn:   -0.0008    constr:    0.0000
     atom:   56    charge:    0.4869    magn:    0.0014    constr:    0.0000
     atom:   57    charge:    0.4873    magn:    0.0009    constr:    0.0000
     atom:   58    charge:    0.4875    magn:    0.0009    constr:    0.0000
     atom:   59    charge:    0.4848    magn:   -0.0008    constr:    0.0000
     atom:   60    charge:    0.4864    magn:   -0.0012    constr:    0.0000
     atom:   61    charge:    0.4855    magn:   -0.0011    constr:    0.0000
     atom:   62    charge:    0.4855    magn:   -0.0014    constr:    0.0000
     atom:   63    charge:    0.4901    magn:   -0.0010    constr:    0.0000
     atom:   64    charge:    0.4878    magn:   -0.0009    constr:    0.0000
     atom:   65    charge:    0.4893    magn:   -0.0010    constr:    0.0000
     atom:   66    charge:    0.4892    magn:   -0.0008    constr:    0.0000
     atom:   67    charge:    0.4868    magn:    0.0010    constr:    0.0000
     atom:   68    charge:    0.4851    magn:   -0.0009    constr:    0.0000
     atom:   69    charge:    0.4865    magn:    0.0008    constr:    0.0000
     atom:   70    charge:    0.4866    magn:   -0.0009    constr:    0.0000
     atom:   71    charge:    0.4834    magn:   -0.0009    constr:    0.0000
     atom:   72    charge:    0.4868    magn:   -0.0011    constr:    0.0000
     atom:   73    charge:    0.3846    magn:    0.0013    constr:    0.0000
     atom:   74    charge:    0.3867    magn:    0.0020    constr:    0.0000
     atom:   75    charge:    0.3829    magn:    0.0010    constr:    0.0000
     atom:   76    charge:    0.3845    magn:    0.0020    constr:    0.0000
     atom:   77    charge:    0.3959    magn:    0.0016    constr:    0.0000
     atom:   78    charge:    0.3930    magn:    0.0014    constr:    0.0000
     atom:   79    charge:    0.3954    magn:    0.0014    constr:    0.0000
     atom:   80    charge:    0.3820    magn:    0.0010    constr:    0.0000
     atom:   81    charge:    2.4486    magn:    0.0142    constr:    0.0000
     atom:   82    charge:    2.4519    magn:    0.0150    constr:    0.0000
     atom:   83    charge:    2.4540    magn:    0.0144    constr:    0.0000
     atom:   84    charge:    2.4501    magn:    0.0146    constr:    0.0000
     atom:   85    charge:    2.4514    magn:    0.0148    constr:    0.0000
     atom:   86    charge:    2.4474    magn:    0.0137    constr:    0.0000
     atom:   87    charge:    2.4535    magn:    0.0146    constr:    0.0000
     atom:   88    charge:    2.4475    magn:    0.0141    constr:    0.0000
     atom:   89    charge:    7.4435    magn:    1.1019    constr:    0.0000
     atom:   90    charge:    7.4412    magn:    1.0993    constr:    0.0000
     atom:   91    charge:    7.4477    magn:    1.0971    constr:    0.0000
     atom:   92    charge:    7.4443    magn:    1.0963    constr:    0.0000
     atom:   93    charge:    3.2621    magn:    0.0469    constr:    0.0000
     atom:   94    charge:    3.2604    magn:    0.0469    constr:    0.0000
     atom:   95    charge:    3.2628    magn:    0.0476    constr:    0.0000
     atom:   96    charge:    3.2607    magn:    0.0491    constr:    0.0000
     atom:   97    charge:    3.2712    magn:    0.0426    constr:    0.0000
     atom:   98    charge:    3.2737    magn:    0.0428    constr:    0.0000
     atom:   99    charge:    3.2759    magn:    0.0416    constr:    0.0000
     atom:  100    charge:    3.2573    magn:    0.0514    constr:    0.0000
     atom:  101    charge:    3.2596    magn:    0.0481    constr:    0.0000
     atom:  102    charge:    3.2607    magn:    0.0442    constr:    0.0000
     atom:  103    charge:    3.2603    magn:    0.0471    constr:    0.0000
     atom:  104    charge:    3.2581    magn:    0.0477    constr:    0.0000
     atom:  105    charge:    3.2580    magn:    0.0514    constr:    0.0000
     atom:  106    charge:    3.2734    magn:    0.0430    constr:    0.0000
     atom:  107    charge:    3.2597    magn:    0.0540    constr:    0.0000
     atom:  108    charge:    3.2718    magn:    0.0428    constr:    0.0000
     atom:  109    charge:    1.0655    magn:    0.0198    constr:    0.0000
     atom:  110    charge:    1.0661    magn:    0.0177    constr:    0.0000
     atom:  111    charge:    1.0651    magn:    0.0195    constr:    0.0000
     atom:  112    charge:    1.0644    magn:    0.0179    constr:    0.0000
     atom:  113    charge:    1.0537    magn:    0.0147    constr:    0.0000
     atom:  114    charge:    1.0527    magn:    0.0170    constr:    0.0000
     atom:  115    charge:    1.0530    magn:    0.0139    constr:    0.0000
     atom:  116    charge:    1.0637    magn:    0.0199    constr:    0.0000

     total cpu time spent up to now is      909.7 secs

     End of self-consistent calculation

 ------ SPIN UP ------------


          k = 0.0000 0.0000 0.0000 ( 91663 PWs)   bands (ev):

   -21.3115 -21.3005 -21.2611 -21.2536 -21.1671 -21.1079 -21.0827 -21.0474
   -18.3500 -18.3180 -18.2854 -18.2831 -18.2700 -18.2315 -18.2047 -18.1612
   -18.1491 -18.1464 -18.1142 -18.0949 -18.0758 -17.8906 -17.8477 -17.8288
   -15.3972 -15.2762 -14.9440 -14.9008 -14.7791 -14.7377 -14.6991 -14.6831
   -14.2007 -14.1662 -14.0035 -13.9651 -13.7614 -13.4610 -13.3084 -13.2787
   -12.8021 -12.7847 -12.4363 -12.3542 -12.1624 -11.9966 -11.8687 -11.7648
   -10.8517 -10.7576 -10.6304 -10.6073 -10.5260 -10.4039 -10.3759 -10.3580
    -9.9330  -9.8778  -9.7024  -9.6157  -9.4913  -9.4830  -9.4010  -9.3450
    -8.7193  -8.5237  -8.3217  -8.2290  -8.0198  -7.9400  -7.7799  -7.7437
    -7.2414  -7.1939  -7.0690  -6.9766  -6.8864  -6.8398  -6.8110  -6.7653
    -6.6769  -6.6108  -6.4904  -6.4534  -6.3921  -6.3679  -6.3593  -6.3284
    -6.1297  -6.0063  -5.9688  -5.9308  -5.8686  -5.8515  -5.8011  -5.6909
    -5.6163  -5.5657  -5.5353  -5.5155  -5.4688  -5.4425  -5.3996  -5.3738
    -5.3489  -5.3175  -5.2767  -5.2477  -5.2163  -5.1881  -5.1761  -5.1338
    -5.1064  -5.0870  -5.0553  -5.0141  -4.9850  -4.9762  -4.8524  -4.8362
    -4.8162  -4.7372  -4.7367  -4.6986  -4.6147  -4.5654  -4.5353  -4.4361
    -4.3754  -4.3275  -4.2780  -4.2380  -4.1923  -4.1244  -4.0130  -4.0018
    -3.8633  -3.7782  -3.6565  -3.5876  -3.5361  -3.4765  -3.4393  -3.3921
    -3.2997  -3.2589  -3.1962  -3.1254  -2.9751  -2.8912  -2.8393  -2.7548
    -2.7508  -2.7442  -2.6852  -2.6758  -2.6282  -2.5928  -2.5260  -2.4978
    -2.4218  -2.4007  -2.3766  -2.2887  -2.2421  -2.1180  -2.0023  -1.9828
    -1.9539  -1.9180  -1.8897  -1.8657  -1.8534  -1.7746  -1.7395  -1.7031
    -1.6816  -1.6579  -1.6097  -1.5970  -1.5078  -1.4276  -1.3712  -1.2777
    -1.2558  -1.2379  -1.1716  -1.1565  -1.1355  -1.0694  -1.0485  -1.0188
    -0.9654  -0.9543  -0.8925  -0.8533  -0.8454  -0.8421  -0.8002  -0.7801
    -0.7546  -0.7038  -0.6879  -0.6808  -0.6646  -0.5983  -0.5817  -0.5492
    -0.4587  -0.4240  -0.3699  -0.2943  -0.2592  -0.0450   0.0947   0.2029
     0.3818   0.4951   0.8037   0.9548   1.1865   1.2656   1.3082   1.3532
     1.4140   1.5024   1.5667   1.5816   2.7913   2.8148   3.0514   3.0807
     3.1335   3.1797   3.2092   3.2575   3.5062   3.6062   3.6632   3.7421
     3.8163   4.1516   4.2688   4.3357   4.5047   4.6217   4.6797   4.9077
     5.1043   5.1950   5.2984   5.4270   5.4669   5.5381   5.5470   5.6121
     5.7212   5.8365   5.8771   5.8959   5.9495   5.9943   6.1509   6.2048
     6.2525   6.3325   6.4194   6.4792   6.6073   6.7985   6.9464   7.0679
     7.1089   7.1712

 ------ SPIN DOWN ----------


          k = 0.0000 0.0000 0.0000 ( 91663 PWs)   bands (ev):

   -21.2286 -21.2177 -21.1758 -21.1685 -21.0854 -21.0169 -20.9927 -20.9547
   -18.2488 -18.2188 -18.1944 -18.1818 -18.1757 -18.1649 -18.1479 -18.1179
   -18.0899 -18.0550 -18.0241 -18.0142 -17.9786 -17.8539 -17.8123 -17.7952
   -15.3414 -15.2233 -14.8817 -14.8437 -14.7238 -14.6939 -14.6567 -14.6406
   -14.1588 -14.1227 -13.9618 -13.9238 -13.7161 -13.4163 -13.2625 -13.2334
   -12.7442 -12.7266 -12.3836 -12.3053 -12.1104 -11.9439 -11.8133 -11.7068
   -10.8095 -10.7174 -10.5902 -10.5665 -10.4866 -10.3640 -10.3340 -10.3178
    -9.8918  -9.8374  -9.6634  -9.5783  -9.4559  -9.4458  -9.3623  -9.3104
    -8.6838  -8.4897  -8.2848  -8.1915  -7.9808  -7.9025  -7.7400  -7.7059
    -7.1876  -7.1351  -7.0121  -6.9261  -6.8329  -6.7951  -6.7605  -6.7212
    -6.6326  -6.5604  -6.4297  -6.4048  -6.3328  -6.3196  -6.3043  -6.2653
    -6.0666  -5.9466  -5.9135  -5.8672  -5.8014  -5.7769  -5.7442  -5.6051
    -5.5278  -5.4898  -5.4445  -5.4334  -5.3978  -5.3788  -5.3276  -5.2910
    -5.2625  -5.2342  -5.1905  -5.1690  -5.1469  -5.1024  -5.0972  -5.0644
    -5.0237  -5.0026  -4.9878  -4.9427  -4.9110  -4.8821  -4.7685  -4.7628
    -4.7482  -4.6874  -4.6588  -4.6377  -4.5470  -4.5040  -4.4695  -4.3682
    -4.3152  -4.2491  -4.2143  -4.1787  -4.1115  -4.0469  -3.9545  -3.9251
    -3.7896  -3.6916  -3.5813  -3.5096  -3.4679  -3.3886  -3.3475  -3.2842
    -3.1946  -3.0254  -2.9748  -2.8567  -2.8217  -2.7758  -2.6818  -2.6493
    -2.6184  -2.5760  -2.4791  -2.4527  -2.3709  -2.3683  -2.3473  -2.2948
    -2.2297  -2.2059  -2.1294  -2.0907  -2.0204  -1.9343  -1.7979  -1.7516
    -1.6941  -1.6777  -1.6375  -1.6124  -1.5585  -1.5179  -1.5000  -1.4585
    -1.4266  -1.3805  -1.2884  -1.2760  -1.2451  -1.1952  -1.1655  -1.0873
    -1.0431  -1.0180  -0.9731  -0.9211  -0.9138  -0.8806  -0.8147  -0.7153
    -0.6711  -0.5855  -0.5420  -0.4875  -0.3969  -0.3613  -0.2977  -0.2483
    -0.2188  -0.1609  -0.1425  -0.0222   0.0070   0.0693   0.1044   0.1289
     0.1339   0.1577   0.1721   0.1881   0.2198   0.3567   0.3879   0.4940
     0.6497   0.7278   1.0991   1.1421   1.9099   1.9767   1.9959   2.0331
     2.1276   2.1616   2.2166   2.2284   2.9024   2.9276   3.1522   3.1842
     3.2305   3.2799   3.3081   3.3528   3.5951   3.6849   3.7492   3.8270
     3.8960   4.2275   4.3489   4.4173   4.5672   4.6781   4.7403   4.9642
     5.1742   5.2624   5.3655   5.4936   5.5396   5.5981   5.6147   5.6819
     5.7869   5.9034   5.9408   5.9570   6.0118   6.0627   6.2017   6.2598
     6.3107   6.3891   6.4819   6.5350   6.6573   6.8505   6.9980   7.1175
     7.1582   7.2200

     the spin up/dw Fermi energies are     1.7463    1.4117 ev

!    total energy              =   -1808.10763846 Ry
     Harris-Foulkes estimate   =   -1808.10764021 Ry
     estimated scf accuracy    <       0.00000416 Ry

     The total energy is the sum of the following terms:

     one-electron contribution =   -2434.29884186 Ry
     hartree contribution      =    1390.51644393 Ry
     xc contribution           =    -555.04218839 Ry
     ewald contribution        =    -211.28616890 Ry
     Dispersion Correction     =      -0.54536067 Ry
     smearing contrib. (-TS)   =       2.54847744 Ry

     total magnetization       =     8.00 Bohr mag/cell
     absolute magnetization    =     8.13 Bohr mag/cell

     convergence has been achieved in  21 iterations

     Forces acting on atoms (cartesian axes, Ry/au):

     atom    1 type  1   force =     0.00146816   -0.00619791   -0.00802398
     atom    2 type  1   force =    -0.00816964    0.00499872   -0.01214180
     atom    3 type  1   force =     0.01099401    0.01362634   -0.01025014
     atom    4 type  1   force =     0.01618381   -0.01502401   -0.00928066
     atom    5 type  1   force =    -0.01207117   -0.01183776    0.00335955
     atom    6 type  1   force =    -0.00017601    0.00964053   -0.05149334
     atom    7 type  1   force =     0.00766625    0.00674043   -0.00995918
     atom    8 type  1   force =     0.01876410   -0.00559387   -0.00833823
     atom    9 type  1   force =    -0.00962160    0.00741449    0.00444357
     atom   10 type  1   force =    -0.00240799   -0.00133825    0.00444082
     atom   11 type  1   force =     0.00718827   -0.01356482    0.00191074
     atom   12 type  1   force =     0.01098721    0.00740087    0.00472305
     atom   13 type  1   force =     0.00505301    0.00505836   -0.00363489
     atom   14 type  1   force =    -0.02515456    0.03562716   -0.07747893
     atom   15 type  1   force =     0.02727894    0.02683629   -0.06900464
     atom   16 type  1   force =     0.02628926   -0.03025656   -0.07019251
     atom   17 type  1   force =     0.00660044    0.00964453   -0.03893297
     atom   18 type  1   force =     0.00689998   -0.01159984   -0.04425375
     atom   19 type  1   force =    -0.01545909   -0.01348071   -0.00891647
     atom   20 type  1   force =    -0.01914339    0.01802962   -0.01152786
     atom   21 type  1   force =     0.01117728    0.00224209    0.00384110
     atom   22 type  1   force =     0.01943217   -0.00161872    0.01287628
     atom   23 type  1   force =    -0.01249961   -0.00136238    0.00441454
     atom   24 type  1   force =     0.01314085   -0.00769410    0.00012201
     atom   25 type  1   force =    -0.00341675   -0.01215656    0.01368988
     atom   26 type  1   force =    -0.00113078    0.00940741    0.01254252
     atom   27 type  1   force =     0.01488038    0.01709219   -0.01901322
     atom   28 type  1   force =     0.00694848   -0.01927958   -0.02020032
     atom   29 type  1   force =     0.03876100    0.00203312   -0.04322508
     atom   30 type  1   force =     0.02337234    0.00392624    0.01369323
     atom   31 type  1   force =     0.00290553    0.01077662    0.01299143
     atom   32 type  1   force =     0.01310595   -0.00640887   -0.00609711
     atom   33 type  1   force =    -0.00859804   -0.01329221   -0.00372205
     atom   34 type  1   force =    -0.00016385   -0.00653159    0.00412499
     atom   35 type  1   force =     0.00744630    0.01166995   -0.00316721
     atom   36 type  1   force =     0.00596858   -0.00912793   -0.00400155
     atom   37 type  1   force =    -0.02446606   -0.03872171   -0.05635144
     atom   38 type  1   force =     0.00100567    0.00841791    0.00540458
     atom   39 type  1   force =     0.03032454    0.03130331   -0.05568492
     atom   40 type  1   force =    -0.00804967    0.00547385   -0.00292801
     atom   41 type  1   force =    -0.03282385   -0.00497509   -0.03302077
     atom   42 type  1   force =     0.01461271   -0.01263507    0.00095784
     atom   43 type  1   force =    -0.01130933   -0.01447673   -0.01693261
     atom   44 type  1   force =    -0.01654651    0.01781533   -0.01182836
     atom   45 type  1   force =    -0.03225156   -0.00758881   -0.00792593
     atom   46 type  1   force =    -0.03837733    0.00935808   -0.01505288
     atom   47 type  1   force =     0.03541133    0.00597276   -0.01447049
     atom   48 type  1   force =     0.01512294   -0.01110834   -0.00151375
     atom   49 type  2   force =     0.00198402   -0.00338944   -0.00195792
     atom   50 type  2   force =     0.00615858   -0.00335193   -0.00750852
     atom   51 type  2   force =    -0.00161918    0.00705364   -0.00252951
     atom   52 type  2   force =     0.00172582   -0.00156547   -0.00045445
     atom   53 type  2   force =     0.00275552   -0.00916489   -0.00659182
     atom   54 type  2   force =    -0.00042704    0.00016152    0.00080527
     atom   55 type  2   force =    -0.00176246   -0.00012794   -0.00008412
     atom   56 type  2   force =     0.02096069    0.05970188   -0.03702294
     atom   57 type  2   force =    -0.01413192    0.04809538   -0.03055939
     atom   58 type  2   force =    -0.01431193   -0.04896867   -0.03152282
     atom   59 type  2   force =    -0.00585922    0.00317339   -0.00814889
     atom   60 type  2   force =    -0.00038700    0.00606002    0.00026062
     atom   61 type  2   force =     0.00068190    0.00333422   -0.00278152
     atom   62 type  2   force =    -0.00190737   -0.00399245   -0.00149014
     atom   63 type  2   force =    -0.00010312    0.00202989    0.00203839
     atom   64 type  2   force =     0.00151473   -0.00254987    0.00039889
     atom   65 type  2   force =    -0.00061316   -0.00164213    0.00141634
     atom   66 type  2   force =     0.00230717    0.00862668   -0.00411882
     atom   67 type  2   force =     0.01870981   -0.05289070   -0.03443069
     atom   68 type  2   force =    -0.00045206   -0.00034024   -0.00018596
     atom   69 type  2   force =    -0.01612610    0.04874443   -0.03180203
     atom   70 type  2   force =     0.00103986   -0.00002022   -0.00037238
     atom   71 type  2   force =    -0.00551723   -0.00380018   -0.00811107
     atom   72 type  2   force =    -0.00207184    0.00371514   -0.00275386
     atom   73 type  2   force =     0.00128821   -0.03046640   -0.01669058
     atom   74 type  2   force =    -0.00101761    0.02644976   -0.01185203
     atom   75 type  2   force =    -0.00068177    0.02333387   -0.02113189
     atom   76 type  2   force =     0.00322073   -0.01942162   -0.01583342
     atom   77 type  2   force =     0.01730681   -0.00459391   -0.03048759
     atom   78 type  2   force =     0.01619509    0.02013047   -0.02027245
     atom   79 type  2   force =    -0.01731610    0.00356351   -0.03234890
     atom   80 type  2   force =     0.00255629   -0.02340175   -0.02121400
     atom   81 type  3   force =    -0.00003521   -0.00604767    0.00410243
     atom   82 type  3   force =    -0.01331834    0.01530793    0.01014712
     atom   83 type  3   force =     0.00644578    0.01219660    0.00757779
     atom   84 type  3   force =     0.00737425   -0.00976278    0.00885317
     atom   85 type  3   force =    -0.01286573   -0.01091730    0.00760103
     atom   86 type  3   force =    -0.00170635    0.00337594    0.00085160
     atom   87 type  3   force =     0.00747820    0.00933574    0.00513591
     atom   88 type  3   force =    -0.00011533   -0.00359831    0.00181849
     atom   89 type  4   force =     0.01662324    0.00798612   -0.00155916
     atom   90 type  4   force =     0.01035738   -0.00971190   -0.00074386
     atom   91 type  4   force =     0.00423066   -0.00179898   -0.00917135
     atom   92 type  4   force =    -0.00743968    0.01030126    0.00009482
     atom   93 type  5   force =     0.01817412    0.00116465   -0.00345123
     atom   94 type  5   force =     0.00656957    0.00095275    0.00945150
     atom   95 type  5   force =    -0.01856544   -0.00092307   -0.00426585
     atom   96 type  5   force =    -0.01988108   -0.01029399   -0.00172599
     atom   97 type  5   force =    -0.01721282   -0.02086433    0.01291857
     atom   98 type  5   force =    -0.00697967    0.02113578    0.01243077
     atom   99 type  5   force =     0.00727759    0.02528805    0.01803326
     atom  100 type  5   force =    -0.00452521    0.00580842    0.00221243
     atom  101 type  5   force =    -0.00677858    0.00811575    0.01160124
     atom  102 type  5   force =     0.01054751   -0.00315994    0.00500509
     atom  103 type  5   force =     0.00117905   -0.00320593    0.01044282
     atom  104 type  5   force =     0.00457450    0.00557935    0.01100507
     atom  105 type  5   force =     0.00024411    0.00329686    0.00229875
     atom  106 type  5   force =    -0.00850697    0.02270952    0.01142481
     atom  107 type  5   force =    -0.00209568   -0.00317730    0.00079561
     atom  108 type  5   force =     0.01586276   -0.02466253    0.01686474
     atom  109 type  6   force =     0.02095690   -0.08770299    0.16646855
     atom  110 type  6   force =     0.01171624    0.06844566    0.17340742
     atom  111 type  6   force =    -0.03424448    0.07313391    0.15552775
     atom  112 type  6   force =    -0.02723934   -0.06096623    0.16733733
     atom  113 type  6   force =    -0.05695189    0.03273698    0.01243363
     atom  114 type  6   force =    -0.06243991   -0.03438004    0.02189406
     atom  115 type  6   force =     0.05540567   -0.02261156    0.02071124
     atom  116 type  6   force =    -0.03536862   -0.07220719    0.15483756

     Total force =     0.432153     Total SCF correction =     0.002208

     BFGS Geometry Optimization

     number of scf cycles    =   1
     number of bfgs steps    =   0

     energy   new            =   -1808.1076384553 Ry

     new trust radius        =       0.1893219086 bohr
     new conv_thr            =       0.0000050000 Ry


ATOMIC_POSITIONS (crystal)
C             0.2882120000        0.9700500000        0.5219840000    0   0   0
C             0.0383790000        0.0311060000        0.0223080000    0   0   0
C             0.3906340000        0.0117700000        0.5464920000    0   0   0
C             0.1402440000        0.9877440000        0.0461460000    0   0   0
C             0.4519150000        0.9702020000        0.6503710000    0   0   0
C             0.2025200000        0.0283530000        0.1498930000    0   0   0
C             0.2081810000        0.5297040000        0.5263840000    0   0   0
C             0.4585450000        0.4714090000        0.0279040000    0   0   0
C             0.2451370000        0.6133310000        0.6064350000    0   0   0
C             0.4968190000        0.3886770000        0.1086170000    0   0   0
C             0.2494760000        0.8892060000        0.6032030000    0   0   0
C             0.0010690000        0.1122320000        0.1042470000    0   0   0
C             0.4079770000        0.8893830000        0.7275520000    0   0   0
C             0.1599350000        0.1095470000        0.2278120000    0   0   0
C             0.0888620000        0.6089830000        0.7273520000    0   0   0
C             0.3408900000        0.3916330000        0.2293940000    0   0   0
C             0.0469250000        0.5250790000        0.6513120000    0   0   0
C             0.2976580000        0.4747110000        0.1527540000    0   0   0
C             0.1081640000        0.4842700000        0.5501160000    0   0   0
C             0.3578320000        0.5156560000        0.0506380000    0   0   0
C             0.4333100000        0.0993190000        0.4666210000    0   0   0
C             0.1815170000        0.8997200000        0.9656720000    0   0   0
C             0.0673780000        0.3944740000        0.4706760000    0   0   0
C             0.3160430000        0.6041720000        0.9691070000    0   0   0
C             0.7882120000        0.9700500000        0.5219840000    0   0   0
C             0.5383790000        0.0311060000        0.0223080000    0   0   0
C             0.8906340000        0.0117700000        0.5464920000    0   0   0
C             0.6402440000        0.9877440000        0.0461460000    0   0   0
C             0.9519150000        0.9702020000        0.6503710000    0   0   0
C             0.7025200000        0.0283530000        0.1498930000    0   0   0
C             0.7081820000        0.5297040000        0.5263840000    0   0   0
C             0.9585460000        0.4714090000        0.0279040000    0   0   0
C             0.7451370000        0.6133310000        0.6064350000    0   0   0
C             0.9968190000        0.3886770000        0.1086170000    0   0   0
C             0.7494760000        0.8892060000        0.6032030000    0   0   0
C             0.5010690000        0.1122320000        0.1042470000    0   0   0
C             0.9079770000        0.8893830000        0.7275520000    0   0   0
C             0.6599340000        0.1095470000        0.2278120000    0   0   0
C             0.5888620000        0.6089830000        0.7273520000    0   0   0
C             0.8408900000        0.3916330000        0.2293940000    0   0   0
C             0.5469250000        0.5250790000        0.6513120000    0   0   0
C             0.7976580000        0.4747110000        0.1527540000    0   0   0
C             0.6081640000        0.4842700000        0.5501160000    0   0   0
C             0.8578320000        0.5156560000        0.0506380000    0   0   0
C             0.9333100000        0.0993190000        0.4666210000    0   0   0
C             0.6815170000        0.8997200000        0.9656720000    0   0   0
C             0.5673770000        0.3944740000        0.4706760000    0   0   0
C             0.8160430000        0.6041720000        0.9691070000    0   0   0
H             0.4865380000        0.0026920000        0.9434990000    0   0   0
H             0.2823400000        0.9986650000        0.1726020000    0   0   0
H             0.3226410000        0.6505060000        0.5926350000    0   0   0
H             0.0749680000        0.3528510000        0.0950280000    0   0   0
H             0.1701540000        0.8551230000        0.5885600000    0   0   0
H             0.4223220000        0.1477320000        0.0898860000    0   0   0
H             0.4533700000        0.8551730000        0.8087610000    0   0   0
H             0.2062390000        0.1431030000        0.3087970000    0   0   0
H             0.0437290000        0.6429440000        0.8066080000    0   0   0
H             0.2963780000        0.3575260000        0.3090510000    0   0   0
H             0.2189520000        0.5052010000        0.1752640000    0   0   0
H             0.7371240000        0.9995750000        0.4431130000    0   0   0
H             0.5320620000        0.9988050000        0.6735200000    0   0   0
H             0.7587000000        0.5008950000        0.4492820000    0   0   0
H             0.8226410000        0.6505060000        0.5926350000    0   0   0
H             0.5749680000        0.3528510000        0.0950280000    0   0   0
H             0.6701540000        0.8551230000        0.5885600000    0   0   0
H             0.9223220000        0.1477320000        0.0898860000    0   0   0
H             0.9533700000        0.8551730000        0.8087610000    0   0   0
H             0.7062400000        0.1431030000        0.3087970000    0   0   0
H             0.5437290000        0.6429440000        0.8066080000    0   0   0
H             0.7963780000        0.3575260000        0.3090510000    0   0   0
H             0.9686720000        0.4932310000        0.6735020000    0   0   0
H             0.7189520000        0.5052010000        0.1752640000    0   0   0
H             0.1560028659        0.0928946401        0.4672603509
H             0.9040768300        0.9103226366        0.9675845606
H             0.3442283424        0.4113559743        0.4770096010
H             0.5932124442        0.5916963381        0.9782204992
H             0.0478627637        0.0940418841        0.7736837352
H             0.7974692963        0.9036946144        0.2725548666
H             0.4584799429        0.3995625765        0.7752658685
H             0.0931802850        0.5915281575        0.9779453719
N             0.3084370000        0.8512530000        0.7048280000    0   0   0
N             0.0607290000        0.1488570000        0.2060520000    0   0   0
N             0.1865420000        0.6503100000        0.7058380000    0   0   0
N             0.4388100000        0.3509280000        0.2080410000    0   0   0
N             0.8084370000        0.8512530000        0.7048280000    0   0   0
N             0.5607290000        0.1488570000        0.2060520000    0   0   0
N             0.6865430000        0.6503100000        0.7058380000    0   0   0
N             0.9388100000        0.3509280000        0.2080410000    0   0   0
Ni            0.2470020000        0.7514860000        0.8363260000    0   0   0
Ni            0.4999720000        0.2479990000        0.3391780000    0   0   0
Ni            0.7470020000        0.7514860000        0.8363260000    0   0   0
Ni            0.9999720000        0.2479990000        0.3391780000    0   0   0
O             0.1227780000        0.3476890000        0.3828730000    0   0   0
O             0.3712080000        0.6509770000        0.8812920000    0   0   0
O             0.3776300000        0.1475070000        0.3771780000    0   0   0
O             0.1250980000        0.8523520000        0.8762610000    0   0   0
O             0.4730690000        0.3561600000        0.4829940000    0   0   0
O             0.2211370000        0.6414150000        0.9798770000    0   0   0
O             0.0288400000        0.1351580000        0.4810780000    0   0   0
O             0.2766860000        0.8627580000        0.9793990000    0   0   0
O             0.6227790000        0.3476890000        0.3828730000    0   0   0
O             0.8712080000        0.6509770000        0.8812920000    0   0   0
O             0.8776300000        0.1475070000        0.3771780000    0   0   0
O             0.6250980000        0.8523520000        0.8762610000    0   0   0
O             0.9730690000        0.3561600000        0.4829940000    0   0   0
O             0.7211370000        0.6414150000        0.9798770000    0   0   0
O             0.5288400000        0.1351580000        0.4810780000    0   0   0
O             0.7766860000        0.8627580000        0.9793990000    0   0   0
S             0.2021748366        0.0103011036        0.3992249704
S             0.9509593201        0.9919011767        0.8999853571
S             0.2926817228        0.4903792791        0.4058414640
S             0.5431572164        0.5118818676        0.9078267166
S             0.0829287229        0.0154183035        0.6929653945
S             0.8329343641        0.9813492690        0.1918666544
S             0.4186079171        0.4754665467        0.6919077334
S             0.0428025073        0.5114078799        0.9071839154



     Writing output data file /nfs/hpc/share/gantzlen/NiPyC2_relax_sc211_meta_functionalized_SH_pbesol_relax_frozen_parent_atoms.save/
     NEW-OLD atomic charge density approx. for the potential

     Check: negative core charge=   -0.000143

     total cpu time spent up to now is      931.5 secs

     Self-consistent Calculation

     iteration #  1     ecut=   100.00 Ry     beta= 0.70
     Davidson diagonalization with overlap
     ethr =  1.00E-06,  avg # of iterations = 15.0

     total cpu time spent up to now is     1070.9 secs

     total energy              =   -1808.24684138 Ry
     Harris-Foulkes estimate   =   -1808.25141575 Ry
     estimated scf accuracy    <       0.02081626 Ry

     total magnetization       =     8.00 Bohr mag/cell
     absolute magnetization    =     8.14 Bohr mag/cell

     iteration #  2     ecut=   100.00 Ry     beta= 0.70
     Davidson diagonalization with overlap
     ethr =  4.65E-06,  avg # of iterations =  2.0

     total cpu time spent up to now is     1108.4 secs

     total energy              =   -1808.24538391 Ry
     Harris-Foulkes estimate   =   -1808.25154889 Ry
     estimated scf accuracy    <       0.04540880 Ry

     total magnetization       =     8.00 Bohr mag/cell
     absolute magnetization    =     8.14 Bohr mag/cell

     iteration #  3     ecut=   100.00 Ry     beta= 0.70
     Davidson diagonalization with overlap
     ethr =  4.65E-06,  avg # of iterations =  2.0

     total cpu time spent up to now is     1146.6 secs

     total energy              =   -1808.24867358 Ry
     Harris-Foulkes estimate   =   -1808.25017742 Ry
     estimated scf accuracy    <       0.01801415 Ry

     total magnetization       =     8.00 Bohr mag/cell
     absolute magnetization    =     8.14 Bohr mag/cell

     iteration #  4     ecut=   100.00 Ry     beta= 0.70
     Davidson diagonalization with overlap
     ethr =  4.02E-06,  avg # of iterations =  1.0

     total cpu time spent up to now is     1183.3 secs

     total energy              =   -1808.24899173 Ry
     Harris-Foulkes estimate   =   -1808.24999506 Ry
     estimated scf accuracy    <       0.01146813 Ry

     total magnetization       =     8.00 Bohr mag/cell
     absolute magnetization    =     8.14 Bohr mag/cell

     iteration #  5     ecut=   100.00 Ry     beta= 0.70
     Davidson diagonalization with overlap
     ethr =  2.56E-06,  avg # of iterations =  1.0

     total cpu time spent up to now is     1220.0 secs

     total energy              =   -1808.24952743 Ry
     Harris-Foulkes estimate   =   -1808.24960785 Ry
     estimated scf accuracy    <       0.00078501 Ry

     total magnetization       =     8.00 Bohr mag/cell
     absolute magnetization    =     8.14 Bohr mag/cell

     iteration #  6     ecut=   100.00 Ry     beta= 0.70
     Davidson diagonalization with overlap
     ethr =  1.75E-07,  avg # of iterations =  3.0

     total cpu time spent up to now is     1259.2 secs

     total energy              =   -1808.24953950 Ry
     Harris-Foulkes estimate   =   -1808.24956154 Ry
     estimated scf accuracy    <       0.00016005 Ry

     total magnetization       =     8.00 Bohr mag/cell
     absolute magnetization    =     8.14 Bohr mag/cell

     iteration #  7     ecut=   100.00 Ry     beta= 0.70
     Davidson diagonalization with overlap
     ethr =  3.57E-08,  avg # of iterations =  4.0

     total cpu time spent up to now is     1299.6 secs

     total energy              =   -1808.24954064 Ry
     Harris-Foulkes estimate   =   -1808.24955161 Ry
     estimated scf accuracy    <       0.00012287 Ry

     total magnetization       =     8.00 Bohr mag/cell
     absolute magnetization    =     8.14 Bohr mag/cell

     iteration #  8     ecut=   100.00 Ry     beta= 0.70
     Davidson diagonalization with overlap
     ethr =  2.74E-08,  avg # of iterations =  1.0

     total cpu time spent up to now is     1336.5 secs

     total energy              =   -1808.24954370 Ry
     Harris-Foulkes estimate   =   -1808.24954986 Ry
     estimated scf accuracy    <       0.00008742 Ry

     total magnetization       =     8.00 Bohr mag/cell
     absolute magnetization    =     8.14 Bohr mag/cell

     iteration #  9     ecut=   100.00 Ry     beta= 0.70
     Davidson diagonalization with overlap
     ethr =  1.95E-08,  avg # of iterations =  1.0

     total cpu time spent up to now is     1373.2 secs

     total energy              =   -1808.24954480 Ry
     Harris-Foulkes estimate   =   -1808.24954690 Ry
     estimated scf accuracy    <       0.00002382 Ry

     total magnetization       =     8.00 Bohr mag/cell
     absolute magnetization    =     8.14 Bohr mag/cell

     iteration # 10     ecut=   100.00 Ry     beta= 0.70
     Davidson diagonalization with overlap
     ethr =  5.32E-09,  avg # of iterations =  3.0

     total cpu time spent up to now is     1412.7 secs

     total energy              =   -1808.24954585 Ry
     Harris-Foulkes estimate   =   -1808.24954594 Ry
     estimated scf accuracy    <       0.00000528 Ry

     total magnetization       =     8.00 Bohr mag/cell
     absolute magnetization    =     8.14 Bohr mag/cell

     iteration # 11     ecut=   100.00 Ry     beta= 0.70
     Davidson diagonalization with overlap
     ethr =  1.18E-09,  avg # of iterations =  3.0
 
     Magnetic moment per site:
     atom:    1    charge:    0.8426    magn:    0.0068    constr:    0.0000
     atom:    2    charge:    0.8433    magn:    0.0063    constr:    0.0000
     atom:    3    charge:    0.8473    magn:    0.0047    constr:    0.0000
     atom:    4    charge:    0.8473    magn:    0.0040    constr:    0.0000
     atom:    5    charge:    0.8457    magn:    0.0054    constr:    0.0000
     atom:    6    charge:    0.8482    magn:    0.0066    constr:    0.0000
     atom:    7    charge:    0.8437    magn:    0.0064    constr:    0.0000
     atom:    8    charge:    0.8428    magn:    0.0056    constr:    0.0000
     atom:    9    charge:    0.8383    magn:    0.0066    constr:    0.0000
     atom:   10    charge:    0.8376    magn:    0.0062    constr:    0.0000
     atom:   11    charge:    0.8386    magn:    0.0067    constr:    0.0000
     atom:   12    charge:    0.8378    magn:    0.0064    constr:    0.0000
     atom:   13    charge:    0.8402    magn:    0.0048    constr:    0.0000
     atom:   14    charge:    0.8466    magn:    0.0068    constr:    0.0000
     atom:   15    charge:    0.8453    magn:    0.0068    constr:    0.0000
     atom:   16    charge:    0.8455    magn:    0.0068    constr:    0.0000
     atom:   17    charge:    0.8470    magn:    0.0061    constr:    0.0000
     atom:   18    charge:    0.8468    magn:    0.0061    constr:    0.0000
     atom:   19    charge:    0.8495    magn:    0.0044    constr:    0.0000
     atom:   20    charge:    0.8471    magn:    0.0040    constr:    0.0000
     atom:   21    charge:    0.8223    magn:   -0.0013    constr:    0.0000
     atom:   22    charge:    0.8233    magn:   -0.0009    constr:    0.0000
     atom:   23    charge:    0.8228    magn:   -0.0011    constr:    0.0000
     atom:   24    charge:    0.8224    magn:   -0.0004    constr:    0.0000
     atom:   25    charge:    0.8459    magn:    0.0054    constr:    0.0000
     atom:   26    charge:    0.8457    magn:    0.0053    constr:    0.0000
     atom:   27    charge:    0.8472    magn:    0.0034    constr:    0.0000
     atom:   28    charge:    0.8465    magn:    0.0042    constr:    0.0000
     atom:   29    charge:    0.8327    magn:    0.0063    constr:    0.0000
     atom:   30    charge:    0.8325    magn:    0.0050    constr:    0.0000
     atom:   31    charge:    0.8468    magn:    0.0052    constr:    0.0000
     atom:   32    charge:    0.8419    magn:    0.0061    constr:    0.0000
     atom:   33    charge:    0.8376    magn:    0.0045    constr:    0.0000
     atom:   34    charge:    0.8381    magn:    0.0064    constr:    0.0000
     atom:   35    charge:    0.8374    magn:    0.0045    constr:    0.0000
     atom:   36    charge:    0.8377    magn:    0.0047    constr:    0.0000
     atom:   37    charge:    0.8466    magn:    0.0061    constr:    0.0000
     atom:   38    charge:    0.8399    magn:    0.0055    constr:    0.0000
     atom:   39    charge:    0.8451    magn:    0.0063    constr:    0.0000
     atom:   40    charge:    0.8395    magn:    0.0048    constr:    0.0000
     atom:   41    charge:    0.8328    magn:    0.0059    constr:    0.0000
     atom:   42    charge:    0.8458    magn:    0.0053    constr:    0.0000
     atom:   43    charge:    0.8489    magn:    0.0037    constr:    0.0000
     atom:   44    charge:    0.8468    magn:    0.0045    constr:    0.0000
     atom:   45    charge:    0.8213    magn:    0.0001    constr:    0.0000
     atom:   46    charge:    0.8220    magn:   -0.0003    constr:    0.0000
     atom:   47    charge:    0.8219    magn:   -0.0004    constr:    0.0000
     atom:   48    charge:    0.8223    magn:   -0.0004    constr:    0.0000
     atom:   49    charge:    0.4859    magn:   -0.0012    constr:    0.0000
     atom:   50    charge:    0.4837    magn:   -0.0010    constr:    0.0000
     atom:   51    charge:    0.4888    magn:   -0.0009    constr:    0.0000
     atom:   52    charge:    0.4890    magn:   -0.0011    constr:    0.0000
     atom:   53    charge:    0.4901    magn:   -0.0009    constr:    0.0000
     atom:   54    charge:    0.4916    magn:   -0.0010    constr:    0.0000
     atom:   55    charge:    0.4873    magn:   -0.0008    constr:    0.0000
     atom:   56    charge:    0.4877    magn:    0.0010    constr:    0.0000
     atom:   57    charge:    0.4879    magn:    0.0006    constr:    0.0000
     atom:   58    charge:    0.4882    magn:    0.0006    constr:    0.0000
     atom:   59    charge:    0.4854    magn:   -0.0010    constr:    0.0000
     atom:   60    charge:    0.4865    magn:   -0.0012    constr:    0.0000
     atom:   61    charge:    0.4856    magn:   -0.0012    constr:    0.0000
     atom:   62    charge:    0.4856    magn:   -0.0014    constr:    0.0000
     atom:   63    charge:    0.4903    magn:   -0.0010    constr:    0.0000
     atom:   64    charge:    0.4878    magn:   -0.0010    constr:    0.0000
     atom:   65    charge:    0.4896    magn:   -0.0010    constr:    0.0000
     atom:   66    charge:    0.4892    magn:   -0.0009    constr:    0.0000
     atom:   67    charge:    0.4874    magn:    0.0006    constr:    0.0000
     atom:   68    charge:    0.4850    magn:   -0.0009    constr:    0.0000
     atom:   69    charge:    0.4868    magn:    0.0004    constr:    0.0000
     atom:   70    charge:    0.4866    magn:   -0.0009    constr:    0.0000
     atom:   71    charge:    0.4840    magn:   -0.0010    constr:    0.0000
     atom:   72    charge:    0.4870    magn:   -0.0012    constr:    0.0000
     atom:   73    charge:    0.3883    magn:    0.0016    constr:    0.0000
     atom:   74    charge:    0.3952    magn:    0.0021    constr:    0.0000
     atom:   75    charge:    0.3877    magn:    0.0013    constr:    0.0000
     atom:   76    charge:    0.3928    magn:    0.0021    constr:    0.0000
     atom:   77    charge:    0.4084    magn:    0.0014    constr:    0.0000
     atom:   78    charge:    0.4081    magn:    0.0013    constr:    0.0000
     atom:   79    charge:    0.4075    magn:    0.0012    constr:    0.0000
     atom:   80    charge:    0.3865    magn:    0.0013    constr:    0.0000
     atom:   81    charge:    2.4489    magn:    0.0140    constr:    0.0000
     atom:   82    charge:    2.4516    magn:    0.0143    constr:    0.0000
     atom:   83    charge:    2.4539    magn:    0.0139    constr:    0.0000
     atom:   84    charge:    2.4501    magn:    0.0140    constr:    0.0000
     atom:   85    charge:    2.4508    magn:    0.0145    constr:    0.0000
     atom:   86    charge:    2.4475    magn:    0.0138    constr:    0.0000
     atom:   87    charge:    2.4531    magn:    0.0143    constr:    0.0000
     atom:   88    charge:    2.4478    magn:    0.0139    constr:    0.0000
     atom:   89    charge:    7.4437    magn:    1.1069    constr:    0.0000
     atom:   90    charge:    7.4400    magn:    1.1051    constr:    0.0000
     atom:   91    charge:    7.4468    magn:    1.1033    constr:    0.0000
     atom:   92    charge:    7.4433    magn:    1.1022    constr:    0.0000
     atom:   93    charge:    3.2618    magn:    0.0477    constr:    0.0000
     atom:   94    charge:    3.2603    magn:    0.0476    constr:    0.0000
     atom:   95    charge:    3.2624    magn:    0.0486    constr:    0.0000
     atom:   96    charge:    3.2604    magn:    0.0499    constr:    0.0000
     atom:   97    charge:    3.2710    magn:    0.0427    constr:    0.0000
     atom:   98    charge:    3.2736    magn:    0.0433    constr:    0.0000
     atom:   99    charge:    3.2756    magn:    0.0417    constr:    0.0000
     atom:  100    charge:    3.2572    magn:    0.0524    constr:    0.0000
     atom:  101    charge:    3.2597    magn:    0.0486    constr:    0.0000
     atom:  102    charge:    3.2606    magn:    0.0450    constr:    0.0000
     atom:  103    charge:    3.2603    magn:    0.0476    constr:    0.0000
     atom:  104    charge:    3.2580    magn:    0.0482    constr:    0.0000
     atom:  105    charge:    3.2578    magn:    0.0523    constr:    0.0000
     atom:  106    charge:    3.2735    magn:    0.0434    constr:    0.0000
     atom:  107    charge:    3.2595    magn:    0.0548    constr:    0.0000
     atom:  108    charge:    3.2719    magn:    0.0428    constr:    0.0000
     atom:  109    charge:    1.0642    magn:    0.0198    constr:    0.0000
     atom:  110    charge:    1.0659    magn:    0.0180    constr:    0.0000
     atom:  111    charge:    1.0654    magn:    0.0194    constr:    0.0000
     atom:  112    charge:    1.0651    magn:    0.0183    constr:    0.0000
     atom:  113    charge:    1.0575    magn:    0.0148    constr:    0.0000
     atom:  114    charge:    1.0576    magn:    0.0168    constr:    0.0000
     atom:  115    charge:    1.0568    magn:    0.0141    constr:    0.0000
     atom:  116    charge:    1.0642    magn:    0.0199    constr:    0.0000

     total cpu time spent up to now is     1450.8 secs

     End of self-consistent calculation

 ------ SPIN UP ------------


          k = 0.0000 0.0000 0.0000 ( 91663 PWs)   bands (ev):

   -21.3212 -21.3100 -21.2665 -21.2638 -21.1752 -21.1122 -21.0905 -21.0556
   -18.3580 -18.3199 -18.2953 -18.2871 -18.2808 -18.1888 -18.1762 -18.1472
   -18.1262 -18.1231 -18.1062 -18.0860 -18.0314 -17.9107 -17.8765 -17.8448
   -15.4504 -15.3551 -15.1269 -15.1135 -14.9985 -14.8675 -14.8208 -14.7946
   -14.1097 -14.0744 -13.9470 -13.8746 -13.7057 -13.5432 -13.4560 -13.4054
   -12.7922 -12.7545 -12.4117 -12.3511 -12.1922 -12.0678 -11.9088 -11.8231
   -10.8427 -10.7465 -10.6253 -10.5961 -10.5156 -10.4299 -10.3984 -10.3883
    -9.8790  -9.8264  -9.6752  -9.6049  -9.4880  -9.4690  -9.3937  -9.3759
    -8.7201  -8.5204  -8.2846  -8.1705  -8.0105  -7.9276  -7.8140  -7.7780
    -7.2586  -7.2354  -7.0894  -6.9711  -6.8719  -6.8340  -6.8063  -6.7684
    -6.6782  -6.6294  -6.4988  -6.4626  -6.4261  -6.4042  -6.3651  -6.3557
    -6.1749  -6.0210  -6.0001  -5.9782  -5.9091  -5.8714  -5.8335  -5.6750
    -5.6407  -5.5520  -5.5475  -5.4972  -5.4661  -5.4459  -5.4122  -5.3944
    -5.3702  -5.3137  -5.2779  -5.2466  -5.2247  -5.1946  -5.1702  -5.1399
    -5.1242  -5.0783  -5.0407  -4.9884  -4.9812  -4.9656  -4.8668  -4.8575
    -4.8032  -4.7598  -4.7541  -4.6817  -4.6094  -4.5811  -4.5481  -4.4717
    -4.3850  -4.3730  -4.2813  -4.2437  -4.2208  -4.1439  -4.1239  -4.0110
    -3.8655  -3.8144  -3.6491  -3.6248  -3.5433  -3.5031  -3.4420  -3.4035
    -3.3057  -3.2763  -3.2137  -3.1370  -2.9881  -2.9081  -2.8476  -2.8055
    -2.7741  -2.7701  -2.7098  -2.6903  -2.6723  -2.6348  -2.5544  -2.5324
    -2.4910  -2.4481  -2.4020  -2.3159  -2.2501  -2.1325  -2.0174  -1.9871
    -1.9639  -1.9310  -1.9034  -1.8648  -1.8616  -1.7871  -1.7609  -1.7090
    -1.6916  -1.6714  -1.6276  -1.6107  -1.5223  -1.4438  -1.3618  -1.2895
    -1.2704  -1.2487  -1.1879  -1.1714  -1.1579  -1.0909  -1.0624  -1.0487
    -0.9962  -0.9685  -0.9039  -0.8764  -0.8657  -0.8559  -0.8261  -0.8037
    -0.7696  -0.7320  -0.7141  -0.6998  -0.6864  -0.6453  -0.6176  -0.5903
    -0.4821  -0.4511  -0.4074  -0.3400  -0.2967  -0.0532   0.0472   0.1455
     0.3344   0.4692   0.7687   0.9397   1.1609   1.2465   1.2908   1.3351
     1.4054   1.4952   1.5605   1.5746   2.8019   2.8340   3.0581   3.0849
     3.1244   3.1844   3.1972   3.2545   3.6237   3.7229   3.7683   3.8218
     3.9361   4.1411   4.2333   4.2849   4.5041   4.7493   4.7894   5.0427
     5.1376   5.2354   5.3471   5.4526   5.5387   5.6025   5.6172   5.6755
     5.7407   5.8415   5.8921   5.9166   5.9841   6.0043   6.1949   6.2471
     6.3317   6.3726   6.4382   6.5383   6.6307   6.8251   6.9955   7.1011
     7.1666   7.2113

 ------ SPIN DOWN ----------


          k = 0.0000 0.0000 0.0000 ( 91663 PWs)   bands (ev):

   -21.2377 -21.2265 -21.1804 -21.1780 -21.0928 -21.0198 -20.9990 -20.9615
   -18.2534 -18.2173 -18.1895 -18.1832 -18.1732 -18.1361 -18.1086 -18.0893
   -18.0620 -18.0432 -18.0180 -17.9912 -17.9837 -17.8737 -17.8411 -17.8110
   -15.3948 -15.3016 -15.0680 -15.0563 -14.9437 -14.8240 -14.7786 -14.7499
   -14.0681 -14.0318 -13.9054 -13.8333 -13.6623 -13.4991 -13.4122 -13.3619
   -12.7374 -12.6996 -12.3613 -12.3032 -12.1422 -12.0169 -11.8557 -11.7684
   -10.8003 -10.7064 -10.5847 -10.5553 -10.4762 -10.3898 -10.3567 -10.3481
    -9.8395  -9.7879  -9.6376  -9.5686  -9.4529  -9.4326  -9.3556  -9.3413
    -8.6859  -8.4876  -8.2490  -8.1353  -7.9731  -7.8906  -7.7737  -7.7396
    -7.2052  -7.1771  -7.0344  -6.9176  -6.8172  -6.7912  -6.7605  -6.7237
    -6.6348  -6.5822  -6.4505  -6.4028  -6.3794  -6.3633  -6.2990  -6.2837
    -6.1099  -5.9659  -5.9406  -5.9173  -5.8441  -5.8057  -5.7732  -5.5864
    -5.5563  -5.4765  -5.4548  -5.4150  -5.3971  -5.3789  -5.3378  -5.3150
    -5.2749  -5.2276  -5.1890  -5.1778  -5.1471  -5.1133  -5.0881  -5.0600
    -5.0337  -5.0030  -4.9730  -4.9192  -4.9000  -4.8879  -4.7880  -4.7683
    -4.7348  -4.7093  -4.6734  -4.6280  -4.5444  -4.5023  -4.4835  -4.3960
    -4.3338  -4.2961  -4.2153  -4.1748  -4.1589  -4.0680  -4.0646  -3.9399
    -3.7904  -3.7346  -3.5801  -3.5558  -3.4813  -3.4022  -3.3519  -3.3059
    -3.2146  -3.0316  -2.9850  -2.8781  -2.8288  -2.8164  -2.7211  -2.6996
    -2.6809  -2.6035  -2.5243  -2.4744  -2.4062  -2.3740  -2.3611  -2.3412
    -2.2452  -2.2372  -2.1550  -2.0912  -2.0315  -1.9541  -1.8133  -1.7414
    -1.7015  -1.6811  -1.6367  -1.6177  -1.5641  -1.5327  -1.5029  -1.4724
    -1.4330  -1.3965  -1.3180  -1.2773  -1.2612  -1.2027  -1.1754  -1.1030
    -1.0529  -1.0292  -0.9892  -0.9342  -0.9213  -0.8943  -0.8490  -0.7390
    -0.7350  -0.6285  -0.5710  -0.5562  -0.4271  -0.3805  -0.3412  -0.2730
    -0.2639  -0.1650  -0.1589  -0.0395  -0.0042   0.0604   0.0923   0.1126
     0.1203   0.1421   0.1627   0.1704   0.2023   0.3128   0.3626   0.4563
     0.6060   0.6946   1.0703   1.1178   1.8962   1.9652   1.9844   2.0231
     2.1225   2.1621   2.2130   2.2275   2.9117   2.9464   3.1576   3.1870
     3.2217   3.2831   3.2981   3.3508   3.7087   3.8009   3.8511   3.9046
     4.0156   4.2184   4.3144   4.3662   4.5654   4.8051   4.8454   5.0952
     5.2071   5.3011   5.4132   5.5156   5.6098   5.6711   5.6773   5.7447
     5.8088   5.9087   5.9539   5.9770   6.0465   6.0709   6.2443   6.3023
     6.3869   6.4278   6.4984   6.5931   6.6784   6.8762   7.0457   7.1476
     7.2163   7.2573

     the spin up/dw Fermi energies are     1.7336    1.3964 ev

!    total energy              =   -1808.24954504 Ry
     Harris-Foulkes estimate   =   -1808.24954607 Ry
     estimated scf accuracy    <       0.00000261 Ry

     The total energy is the sum of the following terms:

     one-electron contribution =   -2432.14837515 Ry
     hartree contribution      =    1389.37507714 Ry
     xc contribution           =    -555.33385077 Ry
     ewald contribution        =    -212.18747933 Ry
     Dispersion Correction     =      -0.54471663 Ry
[...]
     atom   10 type  1   force =    -0.02276692   -0.01646298    0.05482976
     atom   11 type  1   force =     0.02266291   -0.01786272    0.04691413
     atom   12 type  1   force =     0.01929941    0.01314187    0.06132924
     atom   13 type  1   force =     0.00520456    0.00407277   -0.00369777
     atom   14 type  1   force =     0.00329290    0.01381334   -0.01439515
     atom   15 type  1   force =     0.00153689    0.01081255   -0.02416778
     atom   16 type  1   force =    -0.00367372   -0.01381623   -0.02099434
     atom   17 type  1   force =     0.00982416    0.00906295   -0.01410367
     atom   18 type  1   force =     0.01335379   -0.01122712   -0.02425990
     atom   19 type  1   force =    -0.01300255   -0.02786237   -0.02160341
     atom   20 type  1   force =    -0.04048282    0.04481741   -0.02658068
     atom   21 type  1   force =     0.00374999    0.00354772   -0.00319575
     atom   22 type  1   force =     0.01224811    0.00073864    0.00728996
     atom   23 type  1   force =    -0.00394912   -0.00230356   -0.00250562
     atom   24 type  1   force =     0.16759764   -0.05295106   -0.04067271
     atom   25 type  1   force =    -0.00213682   -0.01521591    0.01576366
     atom   26 type  1   force =    -0.00203059    0.01153056    0.00914320
     atom   27 type  1   force =     0.01825229    0.02577733   -0.02823685
     atom   28 type  1   force =     0.01487142   -0.02748627   -0.02494870
     atom   29 type  1   force =    -0.00961675   -0.00786512   -0.01326698
     atom   30 type  1   force =    -0.00842141    0.00320138    0.03057949
     atom   31 type  1   force =     0.00049451    0.01413582    0.01260215
     atom   32 type  1   force =     0.03576169   -0.02342295   -0.00000843
     atom   33 type  1   force =    -0.00588012   -0.01388412   -0.00707348
     atom   34 type  1   force =    -0.02238154   -0.02722807    0.05262272
     atom   35 type  1   force =     0.00536449    0.01171269   -0.00678000
     atom   36 type  1   force =     0.00648595   -0.01157139   -0.00550118
     atom   37 type  1   force =    -0.01252568   -0.02025529   -0.00540586
     atom   38 type  1   force =     0.00039419    0.01169024    0.00041970
     atom   39 type  1   force =     0.01552999    0.02555374   -0.01822351
     atom   40 type  1   force =    -0.01110809    0.00668108   -0.00317437
     atom   41 type  1   force =     0.00475062    0.00329813   -0.00374406
     atom   42 type  1   force =     0.02137340   -0.01446121   -0.00248542
     atom   43 type  1   force =    -0.01253240   -0.02331432   -0.02530151
     atom   44 type  1   force =    -0.04385177    0.04536514   -0.02322807
     atom   45 type  1   force =    -0.07770396   -0.01042821   -0.02424459
     atom   46 type  1   force =    -0.15722526    0.03215778   -0.04478375
     atom   47 type  1   force =     0.06612814    0.01137357   -0.02340227
     atom   48 type  1   force =     0.18758354   -0.06138611   -0.04746713
     atom   49 type  2   force =     0.00215652   -0.00359853   -0.00205503
     atom   50 type  2   force =     0.00338458   -0.00003467   -0.00907359
     atom   51 type  2   force =    -0.00133177    0.00545628    0.00173647
     atom   52 type  2   force =     0.00114305   -0.00320189    0.00220429
     atom   53 type  2   force =     0.00042736   -0.00613068    0.00049489
     atom   54 type  2   force =    -0.00032157   -0.00037537    0.00098552
     atom   55 type  2   force =    -0.00191878    0.00034623   -0.00035399
     atom   56 type  2   force =     0.00788898    0.01846361   -0.01252820
     atom   57 type  2   force =    -0.00742346    0.01676865   -0.01148431
     atom   58 type  2   force =    -0.00779220   -0.01721625   -0.01338373
     atom   59 type  2   force =    -0.00475704    0.00001170   -0.00465845
     atom   60 type  2   force =     0.00009030    0.00631076    0.00231452
     atom   61 type  2   force =    -0.00024933    0.00331032   -0.00363651
     atom   62 type  2   force =    -0.00203536   -0.00424548   -0.00146651
     atom   63 type  2   force =     0.00016414    0.00093789    0.00229159
     atom   64 type  2   force =     0.00110731   -0.00431122    0.00184699
     atom   65 type  2   force =    -0.00092288   -0.00041076    0.00155244
     atom   66 type  2   force =    -0.00195682    0.00615467   -0.00017425
     atom   67 type  2   force =     0.00576034   -0.01199605   -0.00334282
     atom   68 type  2   force =    -0.00027722   -0.00235686    0.00212816
     atom   69 type  2   force =    -0.00717654    0.01546116   -0.00835367
     atom   70 type  2   force =     0.00049460    0.00018511    0.00017033
     atom   71 type  2   force =    -0.00284012   -0.00199672   -0.00818244
     atom   72 type  2   force =    -0.00439117    0.00273366    0.00085374
     atom   73 type  2   force =     0.00025309   -0.00044760    0.00001574
     atom   74 type  2   force =     0.00045346    0.00036878   -0.00027333
     atom   75 type  2   force =    -0.00001831    0.00016996    0.00007221
     atom   76 type  2   force =    -0.00016717    0.00004776    0.00012105
     atom   77 type  2   force =     0.00055220   -0.00040270   -0.00060382
     atom   78 type  2   force =     0.00018050   -0.00050738    0.00029483
     atom   79 type  2   force =    -0.00061893    0.00031454   -0.00028523
     atom   80 type  2   force =     0.00019947    0.00000130   -0.00026093
     atom   81 type  3   force =    -0.00143113   -0.00874782    0.00886806
     atom   82 type  3   force =    -0.01457664    0.01185740    0.00715937
     atom   83 type  3   force =     0.00316342    0.01075130    0.01089090
     atom   84 type  3   force =     0.00750678   -0.01000951    0.00811608
     atom   85 type  3   force =     0.00103254   -0.01144363    0.00586774
     atom   86 type  3   force =     0.00196045    0.00754775   -0.00000282
     atom   87 type  3   force =    -0.00319802    0.01037463    0.00347233
     atom   88 type  3   force =     0.00296517   -0.00850921    0.00325883
     atom   89 type  4   force =     0.01863096    0.03509214   -0.03068644
     atom   90 type  4   force =     0.00656514   -0.01354059   -0.00474083
     atom   91 type  4   force =     0.00937635   -0.00062577   -0.07660388
     atom   92 type  4   force =    -0.00313751    0.01540791   -0.00730890
     atom   93 type  5   force =     0.01176254    0.00288776   -0.00045520
     atom   94 type  5   force =    -0.03192415   -0.01195899    0.05161056
     atom   95 type  5   force =    -0.01106220   -0.00192042   -0.00030999
     atom   96 type  5   force =    -0.01751120   -0.00588102   -0.00334095
     atom   97 type  5   force =    -0.05045236   -0.01344966    0.01006596
     atom   98 type  5   force =    -0.11973672    0.02868811    0.03922495
     atom   99 type  5   force =     0.05594888    0.01098431    0.01308053
     atom  100 type  5   force =     0.00001052    0.00253247    0.00489272
     atom  101 type  5   force =    -0.00864918    0.01065435    0.01655205
     atom  102 type  5   force =    -0.03560734   -0.01539972    0.05511929
     atom  103 type  5   force =     0.00799420   -0.00509339    0.02106836
     atom  104 type  5   force =     0.04170798    0.02062002    0.04217348
     atom  105 type  5   force =    -0.00441842    0.00163373    0.00453437
     atom  106 type  5   force =    -0.13348865    0.03138383    0.04322619
     atom  107 type  5   force =     0.00251090   -0.00217950    0.00357688
     atom  108 type  5   force =     0.09740758   -0.02508518    0.02043121
     atom  109 type  6   force =     0.00019859   -0.00026781    0.00074486
     atom  110 type  6   force =     0.00003981   -0.00041831   -0.00002646
     atom  111 type  6   force =    -0.00028190   -0.00051454    0.00001939
     atom  112 type  6   force =    -0.00017439    0.00018624    0.00015343
     atom  113 type  6   force =     0.00060244    0.00070693   -0.00026118
     atom  114 type  6   force =     0.00021712    0.00033357    0.00072048
     atom  115 type  6   force =     0.00045107   -0.00083580   -0.00020505
     atom  116 type  6   force =     0.00006338   -0.00008466    0.00045086

     Total force =     0.002585     Total SCF correction =     0.000140

     bfgs converged in  71 scf cycles and  70 bfgs steps
     (criteria: energy <  1.0E-04 Ry, force <  1.0E-03 Ry/Bohr)

     End of BFGS Geometry Optimization

     Final energy   =   -1808.6056418200 Ry
Begin final coordinates

ATOMIC_POSITIONS (crystal)
C             0.2882120000        0.9700500000        0.5219840000    0   0   0
C             0.0383790000        0.0311060000        0.0223080000    0   0   0
C             0.3906340000        0.0117700000        0.5464920000    0   0   0
C             0.1402440000        0.9877440000        0.0461460000    0   0   0
C             0.4519150000        0.9702020000        0.6503710000    0   0   0
C             0.2025200000        0.0283530000        0.1498930000    0   0   0
C             0.2081810000        0.5297040000        0.5263840000    0   0   0
C             0.4585450000        0.4714090000        0.0279040000    0   0   0
C             0.2451370000        0.6133310000        0.6064350000    0   0   0
C             0.4968190000        0.3886770000        0.1086170000    0   0   0
C             0.2494760000        0.8892060000        0.6032030000    0   0   0
C             0.0010690000        0.1122320000        0.1042470000    0   0   0
C             0.4079770000        0.8893830000        0.7275520000    0   0   0
C             0.1599350000        0.1095470000        0.2278120000    0   0   0
C             0.0888620000        0.6089830000        0.7273520000    0   0   0
C             0.3408900000        0.3916330000        0.2293940000    0   0   0
C             0.0469250000        0.5250790000        0.6513120000    0   0   0
C             0.2976580000        0.4747110000        0.1527540000    0   0   0
C             0.1081640000        0.4842700000        0.5501160000    0   0   0
C             0.3578320000        0.5156560000        0.0506380000    0   0   0
C             0.4333100000        0.0993190000        0.4666210000    0   0   0
C             0.1815170000        0.8997200000        0.9656720000    0   0   0
C             0.0673780000        0.3944740000        0.4706760000    0   0   0
C             0.3160430000        0.6041720000        0.9691070000    0   0   0
C             0.7882120000        0.9700500000        0.5219840000    0   0   0
C             0.5383790000        0.0311060000        0.0223080000    0   0   0
C             0.8906340000        0.0117700000        0.5464920000    0   0   0
C             0.6402440000        0.9877440000        0.0461460000    0   0   0
C             0.9519150000        0.9702020000        0.6503710000    0   0   0
C             0.7025200000        0.0283530000        0.1498930000    0   0   0
C             0.7081820000        0.5297040000        0.5263840000    0   0   0
C             0.9585460000        0.4714090000        0.0279040000    0   0   0
C             0.7451370000        0.6133310000        0.6064350000    0   0   0
C             0.9968190000        0.3886770000        0.1086170000    0   0   0
C             0.7494760000        0.8892060000        0.6032030000    0   0   0
C             0.5010690000        0.1122320000        0.1042470000    0   0   0
C             0.9079770000        0.8893830000        0.7275520000    0   0   0
C             0.6599340000        0.1095470000        0.2278120000    0   0   0
C             0.5888620000        0.6089830000        0.7273520000    0   0   0
C             0.8408900000        0.3916330000        0.2293940000    0   0   0
C             0.5469250000        0.5250790000        0.6513120000    0   0   0
C             0.7976580000        0.4747110000        0.1527540000    0   0   0
C             0.6081640000        0.4842700000        0.5501160000    0   0   0
C             0.8578320000        0.5156560000        0.0506380000    0   0   0
C             0.9333100000        0.0993190000        0.4666210000    0   0   0
C             0.6815170000        0.8997200000        0.9656720000    0   0   0
C             0.5673770000        0.3944740000        0.4706760000    0   0   0
C             0.8160430000        0.6041720000        0.9691070000    0   0   0
H             0.4865380000        0.0026920000        0.9434990000    0   0   0
H             0.2823400000        0.9986650000        0.1726020000    0   0   0
H             0.3226410000        0.6505060000        0.5926350000    0   0   0
H             0.0749680000        0.3528510000        0.0950280000    0   0   0
H             0.1701540000        0.8551230000        0.5885600000    0   0   0
H             0.4223220000        0.1477320000        0.0898860000    0   0   0
H             0.4533700000        0.8551730000        0.8087610000    0   0   0
H             0.2062390000        0.1431030000        0.3087970000    0   0   0
H             0.0437290000        0.6429440000        0.8066080000    0   0   0
H             0.2963780000        0.3575260000        0.3090510000    0   0   0
H             0.2189520000        0.5052010000        0.1752640000    0   0   0
H             0.7371240000        0.9995750000        0.4431130000    0   0   0
H             0.5320620000        0.9988050000        0.6735200000    0   0   0
H             0.7587000000        0.5008950000        0.4492820000    0   0   0
H             0.8226410000        0.6505060000        0.5926350000    0   0   0
H             0.5749680000        0.3528510000        0.0950280000    0   0   0
H             0.6701540000        0.8551230000        0.5885600000    0   0   0
H             0.9223220000        0.1477320000        0.0898860000    0   0   0
H             0.9533700000        0.8551730000        0.8087610000    0   0   0
H             0.7062400000        0.1431030000        0.3087970000    0   0   0
H             0.5437290000        0.6429440000        0.8066080000    0   0   0
H             0.7963780000        0.3575260000        0.3090510000    0   0   0
H             0.9686720000        0.4932310000        0.6735020000    0   0   0
H             0.7189520000        0.5052010000        0.1752640000    0   0   0
H             0.1171192347        0.0486215257        0.4554336315
H             0.8200068001        0.8974797401        1.0576303120
H             0.3758397978        0.4418547337        0.4669014100
H             0.6626558912        0.5860053955        0.9884766019
H             0.0479799584        0.1257769263        0.6661405798
H             0.7718484497        0.8773938595        0.2510499852
H             0.4552863237        0.3679282895        0.6745070392
H             0.1612783311        0.5851137199        0.9857460857
N             0.3084370000        0.8512530000        0.7048280000    0   0   0
N             0.0607290000        0.1488570000        0.2060520000    0   0   0
N             0.1865420000        0.6503100000        0.7058380000    0   0   0
N             0.4388100000        0.3509280000        0.2080410000    0   0   0
N             0.8084370000        0.8512530000        0.7048280000    0   0   0
N             0.5607290000        0.1488570000        0.2060520000    0   0   0
N             0.6865430000        0.6503100000        0.7058380000    0   0   0
N             0.9388100000        0.3509280000        0.2080410000    0   0   0
Ni            0.2470020000        0.7514860000        0.8363260000    0   0   0
Ni            0.4999720000        0.2479990000        0.3391780000    0   0   0
Ni            0.7470020000        0.7514860000        0.8363260000    0   0   0
Ni            0.9999720000        0.2479990000        0.3391780000    0   0   0
O             0.1227780000        0.3476890000        0.3828730000    0   0   0
O             0.3712080000        0.6509770000        0.8812920000    0   0   0
O             0.3776300000        0.1475070000        0.3771780000    0   0   0
O             0.1250980000        0.8523520000        0.8762610000    0   0   0
O             0.4730690000        0.3561600000        0.4829940000    0   0   0
O             0.2211370000        0.6414150000        0.9798770000    0   0   0
O             0.0288400000        0.1351580000        0.4810780000    0   0   0
O             0.2766860000        0.8627580000        0.9793990000    0   0   0
O             0.6227790000        0.3476890000        0.3828730000    0   0   0
O             0.8712080000        0.6509770000        0.8812920000    0   0   0
O             0.8776300000        0.1475070000        0.3771780000    0   0   0
O             0.6250980000        0.8523520000        0.8762610000    0   0   0
O             0.9730690000        0.3561600000        0.4829940000    0   0   0
O             0.7211370000        0.6414150000        0.9798770000    0   0   0
O             0.5288400000        0.1351580000        0.4810780000    0   0   0
O             0.7766860000        0.8627580000        0.9793990000    0   0   0
S             0.1907353991       -0.0250280707        0.3993193381
S             0.9530018488        1.0364273967        0.8929103388
S             0.3060277978        0.5195278475        0.4109836913
S             0.5502282688        0.4802649154        0.9107240132
S             0.0683046291        0.0269086551        0.7190314162
S             0.8222821583        0.9677296483        0.2098274031
S             0.4316613090        0.4689334943        0.7153227571
S             0.0543443159        0.4856726519        0.9161328532
End final coordinates



     Writing output data file /nfs/hpc/share/gantzlen/NiPyC2_relax_sc211_meta_functionalized_SH_pbesol_relax_frozen_parent_atoms.save/
 
     init_run     :     27.75s CPU     28.64s WALL (       1 calls)
     electrons    :  39416.86s CPU  40787.43s WALL (      71 calls)
     update_pot   :    524.22s CPU    551.73s WALL (      70 calls)
     forces       :   1213.91s CPU   1230.94s WALL (      71 calls)

     Called by init_run:
     wfcinit      :     20.37s CPU     21.05s WALL (       1 calls)
     potinit      :      3.00s CPU      3.14s WALL (       1 calls)
     hinit0       :      3.05s CPU      3.11s WALL (       1 calls)

     Called by electrons:
     c_bands      :  37187.73s CPU  38263.14s WALL (     704 calls)
     sum_band     :   1371.04s CPU   1535.98s WALL (     704 calls)
     v_of_rho     :    451.74s CPU    500.81s WALL (     748 calls)
     mix_rho      :    409.25s CPU    465.25s WALL (     704 calls)

     Called by c_bands:
     init_us_2    :     28.62s CPU     29.13s WALL (    1409 calls)
     regterg      :  37108.53s CPU  38034.56s WALL (     704 calls)

     Called by sum_band:

     Called by *egterg:
     h_psi        :  13141.64s CPU  13822.12s WALL (    2729 calls)
     g_psi        :      9.66s CPU      9.71s WALL (    2024 calls)
     rdiaghg      :   1237.13s CPU   1250.42s WALL (    2631 calls)

     Called by h_psi:
     h_psi:calbec :   4440.54s CPU   4469.79s WALL (    2729 calls)
     vloc_psi     :   4873.62s CPU   5515.18s WALL (    2729 calls)
     add_vuspsi   :   3795.47s CPU   3804.98s WALL (    2729 calls)

     General routines
     calbec       :   5252.23s CPU   5286.38s WALL (    3013 calls)
     fft          :    293.04s CPU    362.46s WALL (   12054 calls)
     ffts         :    285.58s CPU    330.47s WALL (   11710 calls)
     fftw         :   5056.59s CPU   5840.23s WALL (  527626 calls)
 
     Parallel routines
     fft_scatt_xy :   1243.62s CPU   1252.35s WALL (  551390 calls)
     fft_scatt_yz :    888.54s CPU   1748.62s WALL (  551390 calls)
 
     PWSCF        :     11h26m CPU     11h50m WALL

 
   This run was terminated on:  22:56: 0   5Jul2020            

=------------------------------------------------------------------------------=
   JOB DONE.
=------------------------------------------------------------------------------=
QE finished Sun Jul 5 22:56:00 PDT 2020
