/apps/openmpi/3.1_intel-19/bin/mpiexec
starting QE Wed Jun 24 14:19:31 PDT 2020

     Program PWSCF v.6.5 starts on 24Jun2020 at 14:19:32 

     This program is part of the open-source Quantum ESPRESSO suite
     for quantum simulation of materials; please cite
         "P. Giannozzi et al., J. Phys.:Condens. Matter 21 395502 (2009);
         "P. Giannozzi et al., J. Phys.:Condens. Matter 29 465901 (2017);
          URL http://www.quantum-espresso.org", 
     in publications or presentations arising from this work. More details at
     http://www.quantum-espresso.org/quote

     Parallel version (MPI), running on    32 processors

     MPI processes distributed on     1 nodes
     K-points division:     npool     =       2
     R & G space division:  proc/nbgrp/npool/nimage =      16
     Reading input from QE_input_scripts/pw.NiPyC2_relax_sc211_meta_functionalized_O-OH_pbesol_relax.in
Warning: card &CELL ignored
Warning: card    CELL_DYNAMICS = 'BFGS' ignored
Warning: card    CELL_DOFREE = 'XYZ' ignored
Warning: card / ignored

     Current dimensions of program PWSCF are:
     Max number of different atomic species (ntypx) = 10
     Max number of k-points (npk) =  40000
     Max angular momentum in pseudopotentials (lmaxx) =  3

     -------------------------------------------------
     Parameters for Dispersion (Grimme-D2) Correction:
     -------------------------------------------------
       atom      VdW radius       C_6     

        C          2.744         60.710
        H          1.892          4.857
        N          2.640         42.670
        Ni         2.952        374.666
        O          2.536         24.284

     gamma-point specific algorithms are used

     Subspace diagonalization in iterative solution of the eigenvalue problem:
     a serial algorithm will be used

 
     Parallelization info
     --------------------
     sticks:   dense  smooth     PW     G-vecs:    dense   smooth      PW
     Min        1113    1113    277                91686    91686   11456
     Max        1116    1116    280                91692    91692   11460
     Sum       17829   17829   4453              1467017  1467017  183325
 


     bravais-lattice index     =            0
     lattice parameter (alat)  =      23.6322  a.u.
     unit-cell volume          =   10858.6228 (a.u.)^3
     number of atoms/cell      =          124
     number of atomic types    =            5
     number of electrons       =       496.00 (up: 252.00, down: 244.00)
     number of Kohn-Sham states=          302
     kinetic-energy cutoff     =     100.0000  Ry
     charge density cutoff     =     400.0000  Ry
     convergence threshold     =      1.0E-06
     mixing beta               =       0.7000
     number of iterations used =            8  local-TF  mixing
     Exchange-correlation= PBESOL
                           (   1   4  10   8   0   0   0)
     nstep                     =          200


     celldm(1)=  23.632159  celldm(2)=   0.000000  celldm(3)=   0.000000
     celldm(4)=   0.000000  celldm(5)=   0.000000  celldm(6)=   0.000000

     crystal axes: (cart. coord. in units of alat)
               a(1) = (   1.000000   0.000000   0.000000 )  
               a(2) = (   0.000000   1.001423   0.000000 )  
               a(3) = (  -0.018199   0.000000   0.821574 )  

     reciprocal axes: (cart. coord. in units 2 pi/alat)
               b(1) = (  1.000000  0.000000  0.022152 )  
               b(2) = (  0.000000  0.998579  0.000000 )  
               b(3) = (  0.000000  0.000000  1.217175 )  


     PseudoPot. # 1 for C  read from file:
     ./pseudo/C.pbesol-nc.UPF
     MD5 check sum: ce26087537ded160c8d400e183a8bf42
     Pseudo is Norm-conserving, Zval =  4.0
     Generated using "atomic" code by A. Dal Corso v.6.5
     Using radial grid of 1073 points,  1 beta functions with: 
                l(1) =   1

     PseudoPot. # 2 for H  read from file:
     ./pseudo/H.pbesol-n-nc.UPF
     MD5 check sum: 7995ef24074557c85b430109caaacc09
     Pseudo is Norm-conserving, Zval =  1.0
     Generated using "atomic" code by A. Dal Corso v.6.5
     Using radial grid of  929 points,  0 beta functions with: 

     PseudoPot. # 3 for N  read from file:
     ./pseudo/N.pbesol-nc.UPF
     MD5 check sum: e18cc5e4b8a5600c1a19b30c2cab1ca0
     Pseudo is Norm-conserving, Zval =  5.0
     Generated using "atomic" code by A. Dal Corso v.6.5
     Using radial grid of 1085 points,  1 beta functions with: 
                l(1) =   1

     PseudoPot. # 4 for Ni read from file:
     ./pseudo/Ni.pbesol-n-nc.UPF
     MD5 check sum: 623411631e0c2eb7c0b2b9815547d2d9
     Pseudo is Norm-conserving + core correction, Zval = 10.0
     Generated using "atomic" code by A. Dal Corso v.6.5
     Using radial grid of 1195 points,  2 beta functions with: 
                l(1) =   1
                l(2) =   2

     PseudoPot. # 5 for O  read from file:
     ./pseudo/O.pbesol-nc.UPF
     MD5 check sum: 73d10e7e91dbfcbe8a7e362101007f84
     Pseudo is Norm-conserving, Zval =  6.0
     Generated using "atomic" code by A. Dal Corso v.6.5
     Using radial grid of 1095 points,  1 beta functions with: 
                l(1) =   1

     atomic species   valence    mass     pseudopotential
        C              4.00    12.01070     C ( 1.00)
        H              1.00     1.00794     H ( 1.00)
        N              5.00    14.00670     N ( 1.00)
        Ni            10.00    58.69340     Ni( 1.00)
        O              6.00    15.99940     O ( 1.00)

     Starting magnetic structure 
     atomic species   magnetization
        C            0.000
        H            0.000
        N            0.000
        Ni           0.250
        O            0.000

     No symmetry found



   Cartesian axes

     site n.     atom                  positions (alat units)
         1           C   tau(   1) = (   0.2787122   0.9714307   0.4288486  )
         2           C   tau(   2) = (   0.0379730   0.0311503   0.0183277  )
         3           C   tau(   3) = (   0.3806882   0.0117868   0.4489838  )
         4           C   tau(   4) = (   0.1394042   0.9891499   0.0379124  )
         5           C   tau(   5) = (   0.4400787   0.9715829   0.5343281  )
         6           C   tau(   6) = (   0.1997920   0.0283934   0.1231482  )
         7           C   tau(   7) = (   0.1986011   0.5304580   0.4324635  )
         8           C   tau(   8) = (   0.4580372   0.4720800   0.0229252  )
         9           C   tau(   9) = (   0.2341003   0.6142040   0.4982314  )
        10           C   tau(  10) = (   0.4948422   0.3892302   0.0892369  )
        11           C   tau(  11) = (   0.2384981   0.8904717   0.4955761  )
        12           C   tau(  12) = (  -0.0008282   0.1123917   0.0856467  )
        13           C   tau(  13) = (   0.3947360   0.8906489   0.5977380  )
        14           C   tau(  14) = (   0.1557890   0.1097029   0.1871645  )
        15           C   tau(  15) = (   0.0756247   0.6098498   0.5975737  )
        16           C   tau(  16) = (   0.3367152   0.3921904   0.1884642  )
        17           C   tau(  17) = (   0.0350715   0.5258264   0.5351012  )
        18           C   tau(  18) = (   0.2948780   0.4753867   0.1254988  )
        19           C   tau(  19) = (   0.0981522   0.4849593   0.4519611  )
        20           C   tau(  20) = (   0.3569104   0.5163900   0.0416029  )
        21           C   tau(  21) = (   0.4248178   0.0994604   0.3833638  )
        22           C   tau(  22) = (   0.1639424   0.9010006   0.7933713  )
        23           C   tau(  23) = (   0.0588120   0.3950355   0.3866953  )
        24           C   tau(  24) = (   0.2984059   0.6050320   0.7961934  )
        25           C   tau(  25) = (   0.7787122   0.9714307   0.4288486  )
        26           C   tau(  26) = (   0.5379730   0.0311503   0.0183277  )
        27           C   tau(  27) = (   0.8806882   0.0117868   0.4489838  )
        28           C   tau(  28) = (   0.6394042   0.9891499   0.0379124  )
        29           C   tau(  29) = (   0.9400787   0.9715829   0.5343281  )
        30           C   tau(  30) = (   0.6997920   0.0283934   0.1231482  )
        31           C   tau(  31) = (   0.6986021   0.5304580   0.4324635  )
        32           C   tau(  32) = (   0.9580382   0.4720800   0.0229252  )
        33           C   tau(  33) = (   0.7341003   0.6142040   0.4982314  )
        34           C   tau(  34) = (   0.9948422   0.3892302   0.0892369  )
        35           C   tau(  35) = (   0.7384981   0.8904717   0.4955761  )
        36           C   tau(  36) = (   0.4991718   0.1123917   0.0856467  )
        37           C   tau(  37) = (   0.8947360   0.8906489   0.5977380  )
        38           C   tau(  38) = (   0.6557880   0.1097029   0.1871645  )
        39           C   tau(  39) = (   0.5756247   0.6098498   0.5975737  )
        40           C   tau(  40) = (   0.8367152   0.3921904   0.1884642  )
        41           C   tau(  41) = (   0.5350715   0.5258264   0.5351012  )
        42           C   tau(  42) = (   0.7948780   0.4753867   0.1254988  )
        43           C   tau(  43) = (   0.5981522   0.4849593   0.4519611  )
        44           C   tau(  44) = (   0.8569104   0.5163900   0.0416029  )
        45           C   tau(  45) = (   0.9248178   0.0994604   0.3833638  )
        46           C   tau(  46) = (   0.6639424   0.9010006   0.7933713  )
        47           C   tau(  47) = (   0.5588110   0.3950355   0.3866953  )
        48           C   tau(  48) = (   0.7984059   0.6050320   0.7961934  )
        49           H   tau(  49) = (   0.0198054   1.0002267   0.5533467  )
        50           H   tau(  50) = (   0.2791988   1.0000865   0.1418054  )
        51           H   tau(  51) = (   0.2505234   0.5016080   0.3691185  )
        52           H   tau(  52) = (  -0.0086584   0.5011092   0.7809458  )
        53           H   tau(  53) = (   0.3118554   0.6514319   0.4868937  )
        54           H   tau(  54) = (   0.0732386   0.3533532   0.0780726  )
        55           H   tau(  55) = (   0.1594426   0.8563401   0.4835457  )
        56           H   tau(  56) = (   0.4206861   0.1479423   0.0738480  )
        57           H   tau(  57) = (   0.4386511   0.8563902   0.6644572  )
        58           H   tau(  58) = (   0.2006191   0.1433067   0.2536997  )
        59           H   tau(  59) = (   0.0290492   0.6438591   0.6626884  )
        60           H   tau(  60) = (   0.2907535   0.3580349   0.2539083  )
        61           H   tau(  61) = (   0.4564147   0.4939330   0.5533319  )
        62           H   tau(  62) = (   0.2157623   0.5059201   0.1439924  )
        63           H   tau(  63) = (   0.5198044   1.0002267   0.5533467  )
        64           H   tau(  64) = (   0.7791988   1.0000865   0.1418054  )
        65           H   tau(  65) = (   0.8118554   0.6514319   0.4868937  )
        66           H   tau(  66) = (   0.5732386   0.3533532   0.0780726  )
        67           H   tau(  67) = (   0.6594426   0.8563401   0.4835457  )
        68           H   tau(  68) = (   0.9206861   0.1479423   0.0738480  )
        69           H   tau(  69) = (   0.9386511   0.8563902   0.6644572  )
        70           H   tau(  70) = (   0.7006201   0.1433067   0.2536997  )
        71           H   tau(  71) = (   0.5290492   0.6438591   0.6626884  )
        72           H   tau(  72) = (   0.7907535   0.3580349   0.2539083  )
        73           H   tau(  73) = (   0.0752981   0.0278886   0.3489497  )
        74           H   tau(  74) = (   0.8760775   0.0790033   0.6720666  )
        75           H   tau(  75) = (   0.8201710   0.5631454   0.5938585  )
        76           H   tau(  76) = (   0.5856880   0.4255959   0.6780461  )
        77           H   tau(  77) = (   0.5752981   0.0278886   0.3489497  )
        78           H   tau(  78) = (   0.3760775   0.0790033   0.6720666  )
        79           H   tau(  79) = (   0.8431358   0.5780166   0.2653619  )
        80           H   tau(  80) = (   0.6398467   0.5357535   0.2783633  )
        81           N   tau(  81) = (   0.2956096   0.8524646   0.5790685  )
        82           N   tau(  82) = (   0.0569790   0.1490689   0.1692870  )
        83           N   tau(  83) = (   0.1736962   0.6512356   0.5798983  )
        84           N   tau(  84) = (   0.4350238   0.3514275   0.1709211  )
        85           N   tau(  85) = (   0.7956096   0.8524646   0.5790685  )
        86           N   tau(  86) = (   0.5569790   0.1490689   0.1692870  )
        87           N   tau(  87) = (   0.6736972   0.6512356   0.5798983  )
        88           N   tau(  88) = (   0.9350238   0.3514275   0.1709211  )
        89           Ni  tau(  89) = (   0.2317814   0.7525556   0.6871039  )
        90           Ni  tau(  90) = (   0.4937992   0.2483520   0.2786599  )
        91           Ni  tau(  91) = (   0.7317814   0.7525556   0.6871039  )
        92           Ni  tau(  92) = (   0.9937992   0.2483520   0.2786599  )
        93           O   tau(  93) = (   0.1158100   0.3481839   0.3145586  )
        94           O   tau(  94) = (   0.3551690   0.6519036   0.7240468  )
        95           O   tau(  95) = (   0.3707656   0.1477170   0.3098797  )
        96           O   tau(  96) = (   0.1091506   0.8535652   0.7199135  )
        97           O   tau(  97) = (   0.4642788   0.3566669   0.3968154  )
        98           O   tau(  98) = (   0.2033039   0.6423280   0.8050417  )
        99           O   tau(  99) = (   0.0200847   0.1353504   0.3952413  )
       100           O   tau( 100) = (   0.2588616   0.8639860   0.8046490  )
       101           O   tau( 101) = (   0.6158110   0.3481839   0.3145586  )
       102           O   tau( 102) = (   0.8551690   0.6519036   0.7240468  )
       103           O   tau( 103) = (   0.8707656   0.1477170   0.3098797  )
       104           O   tau( 104) = (   0.6091506   0.8535652   0.7199135  )
       105           O   tau( 105) = (   0.9642788   0.3566669   0.3968154  )
       106           O   tau( 106) = (   0.7033039   0.6423280   0.8050417  )
       107           O   tau( 107) = (   0.5200847   0.1353504   0.3952413  )
       108           O   tau( 108) = (   0.7588616   0.8639860   0.8046490  )
       109           O   tau( 109) = (   0.2193144   0.0072864   0.3457792  )
       110           O   tau( 110) = (   0.1246799   0.9723480   0.3245366  )
       111           O   tau( 111) = (   0.9595565   0.9966476   0.7568457  )
       112           O   tau( 112) = (   0.8655265   0.0333093   0.7359424  )
       113           O   tau( 113) = (   0.9365271   0.4849272   0.5548937  )
       114           O   tau( 114) = (   0.8759037   0.5206931   0.6308852  )
       115           O   tau( 115) = (   0.5018478   0.5088162   0.7630182  )
       116           O   tau( 116) = (   0.5957471   0.4699880   0.7429126  )
       117           O   tau( 117) = (   0.7193144   0.0072864   0.3457792  )
       118           O   tau( 118) = (   0.6246799   0.9723480   0.3245366  )
       119           O   tau( 119) = (   0.4595565   0.9966476   0.7568457  )
       120           O   tau( 120) = (   0.3655265   0.0333093   0.7359424  )
       121           O   tau( 121) = (   0.7607886   0.4941343   0.3511400  )
       122           O   tau( 122) = (   0.8540451   0.5342063   0.3304856  )
       123           O   tau( 123) = (   0.6959851   0.5153335   0.1456733  )
       124           O   tau( 124) = (   0.6363712   0.4796578   0.2225012  )

     number of k points=     1  Marzari-Vanderbilt smearing, width (Ry)=  0.2000
                       cart. coord. in units 2pi/alat
        k(    1) = (   0.0000000   0.0000000   0.0000000), wk =   1.0000000

     Dense  grid:   733509 G-vectors     FFT dimensions: ( 160, 160, 125)

     Estimated max dynamical RAM per process >     362.44 MB

     Estimated total dynamical RAM >      11.33 GB
     Generating pointlists ...
     new r_m :   0.0358 (alat units)  0.8461 (a.u.) for type    1
     new r_m :   0.0327 (alat units)  0.7725 (a.u.) for type    2
     new r_m :   0.0445 (alat units)  1.0514 (a.u.) for type    3
     new r_m :   0.0654 (alat units)  1.5454 (a.u.) for type    4
     new r_m :   0.0327 (alat units)  0.7725 (a.u.) for type    5

     Check: negative core charge=   -0.000145

     Initial potential from superposition of free atoms

     starting charge  495.99667, renormalised to  496.00000
     Starting wfcs are  420 randomized atomic wfcs

     total cpu time spent up to now is       21.9 secs

     Self-consistent Calculation

     iteration #  1     ecut=   100.00 Ry     beta= 0.70
     Davidson diagonalization with overlap
     ethr =  1.00E-02,  avg # of iterations =  3.0

     total cpu time spent up to now is       80.5 secs

     total energy              =   -2129.90594093 Ry
     Harris-Foulkes estimate   =   -2136.52068588 Ry
     estimated scf accuracy    <      16.81263737 Ry

     total magnetization       =     8.00 Bohr mag/cell
     absolute magnetization    =     8.32 Bohr mag/cell

     iteration #  2     ecut=   100.00 Ry     beta= 0.70
     Davidson diagonalization with overlap
     ethr =  3.39E-03,  avg # of iterations =  2.0

     total cpu time spent up to now is      116.7 secs

     total energy              =   -2131.35968153 Ry
     Harris-Foulkes estimate   =   -2134.45941350 Ry
     estimated scf accuracy    <      16.68940074 Ry

     total magnetization       =     8.00 Bohr mag/cell
     absolute magnetization    =     8.43 Bohr mag/cell

     iteration #  3     ecut=   100.00 Ry     beta= 0.70
     Davidson diagonalization with overlap
     ethr =  3.36E-03,  avg # of iterations =  1.0

     total cpu time spent up to now is      148.3 secs

     total energy              =   -2131.90137049 Ry
     Harris-Foulkes estimate   =   -2132.44918103 Ry
     estimated scf accuracy    <       1.52825461 Ry

     total magnetization       =     8.00 Bohr mag/cell
     absolute magnetization    =     8.13 Bohr mag/cell

     iteration #  4     ecut=   100.00 Ry     beta= 0.70
     Davidson diagonalization with overlap
     ethr =  3.08E-04,  avg # of iterations =  7.0

     total cpu time spent up to now is      195.4 secs

     total energy              =   -2131.92222176 Ry
     Harris-Foulkes estimate   =   -2132.03772986 Ry
     estimated scf accuracy    <       0.53018041 Ry

     total magnetization       =     8.00 Bohr mag/cell
     absolute magnetization    =     8.17 Bohr mag/cell

     iteration #  5     ecut=   100.00 Ry     beta= 0.70
     Davidson diagonalization with overlap
     ethr =  1.07E-04,  avg # of iterations =  1.0

     total cpu time spent up to now is      227.1 secs

     total energy              =   -2131.90114044 Ry
     Harris-Foulkes estimate   =   -2131.96246737 Ry
     estimated scf accuracy    <       0.28770734 Ry

     total magnetization       =     8.00 Bohr mag/cell
     absolute magnetization    =     8.19 Bohr mag/cell

     iteration #  6     ecut=   100.00 Ry     beta= 0.70
     Davidson diagonalization with overlap
     ethr =  5.80E-05,  avg # of iterations =  3.5

     total cpu time spent up to now is      261.0 secs

     total energy              =   -2131.88420780 Ry
     Harris-Foulkes estimate   =   -2131.95464351 Ry
     estimated scf accuracy    <       0.81459056 Ry

     total magnetization       =     8.00 Bohr mag/cell
     absolute magnetization    =     8.19 Bohr mag/cell

     iteration #  7     ecut=   100.00 Ry     beta= 0.70
     Davidson diagonalization with overlap
     ethr =  5.80E-05,  avg # of iterations =  2.0

     total cpu time spent up to now is      293.3 secs

     total energy              =   -2131.87608243 Ry
     Harris-Foulkes estimate   =   -2131.91488325 Ry
     estimated scf accuracy    <       0.20677753 Ry

     total magnetization       =     8.00 Bohr mag/cell
     absolute magnetization    =     8.20 Bohr mag/cell

     iteration #  8     ecut=   100.00 Ry     beta= 0.70
     Davidson diagonalization with overlap
     ethr =  4.17E-05,  avg # of iterations =  9.5

     total cpu time spent up to now is      333.0 secs

     total energy              =   -2131.88377279 Ry
     Harris-Foulkes estimate   =   -2131.89835396 Ry
     estimated scf accuracy    <       0.20829254 Ry

     total magnetization       =     8.00 Bohr mag/cell
     absolute magnetization    =     8.21 Bohr mag/cell

     iteration #  9     ecut=   100.00 Ry     beta= 0.70
     Davidson diagonalization with overlap
     ethr =  4.17E-05,  avg # of iterations =  2.0

     total cpu time spent up to now is      365.2 secs

     total energy              =   -2131.88501244 Ry
     Harris-Foulkes estimate   =   -2131.89304641 Ry
     estimated scf accuracy    <       0.08822243 Ry

     total magnetization       =     8.00 Bohr mag/cell
     absolute magnetization    =     8.21 Bohr mag/cell

     iteration # 10     ecut=   100.00 Ry     beta= 0.70
     Davidson diagonalization with overlap
     ethr =  1.78E-05,  avg # of iterations = 10.0

     total cpu time spent up to now is      403.4 secs

     total energy              =   -2131.89379387 Ry
     Harris-Foulkes estimate   =   -2131.89202397 Ry
     estimated scf accuracy    <       0.02527747 Ry

     total magnetization       =     8.00 Bohr mag/cell
     absolute magnetization    =     8.21 Bohr mag/cell

     iteration # 11     ecut=   100.00 Ry     beta= 0.70
     Davidson diagonalization with overlap
     ethr =  5.10E-06,  avg # of iterations =  6.0

     total cpu time spent up to now is      443.5 secs

     total energy              =   -2131.89500728 Ry
     Harris-Foulkes estimate   =   -2131.89465712 Ry
     estimated scf accuracy    <       0.01095629 Ry

     total magnetization       =     8.00 Bohr mag/cell
     absolute magnetization    =     8.21 Bohr mag/cell

     iteration # 12     ecut=   100.00 Ry     beta= 0.70
     Davidson diagonalization with overlap
     ethr =  2.21E-06,  avg # of iterations =  3.5

     total cpu time spent up to now is      477.9 secs

     total energy              =   -2131.89627334 Ry
     Harris-Foulkes estimate   =   -2131.89651956 Ry
     estimated scf accuracy    <       0.02277569 Ry

     total magnetization       =     8.00 Bohr mag/cell
     absolute magnetization    =     8.21 Bohr mag/cell

     iteration # 13     ecut=   100.00 Ry     beta= 0.70
     Davidson diagonalization with overlap
     ethr =  2.21E-06,  avg # of iterations =  3.0

     total cpu time spent up to now is      512.1 secs

     total energy              =   -2131.89778799 Ry
     Harris-Foulkes estimate   =   -2131.89699877 Ry
     estimated scf accuracy    <       0.00105888 Ry

     total magnetization       =     8.00 Bohr mag/cell
     absolute magnetization    =     8.21 Bohr mag/cell

     iteration # 14     ecut=   100.00 Ry     beta= 0.70
     Davidson diagonalization with overlap
     ethr =  2.13E-07,  avg # of iterations =  4.5

     total cpu time spent up to now is      549.4 secs

     total energy              =   -2131.89813812 Ry
     Harris-Foulkes estimate   =   -2131.89786825 Ry
     estimated scf accuracy    <       0.00042373 Ry

     total magnetization       =     8.00 Bohr mag/cell
     absolute magnetization    =     8.21 Bohr mag/cell

     iteration # 15     ecut=   100.00 Ry     beta= 0.70
     Davidson diagonalization with overlap
     ethr =  8.54E-08,  avg # of iterations =  4.5

     total cpu time spent up to now is      585.3 secs

     total energy              =   -2131.89822363 Ry
     Harris-Foulkes estimate   =   -2131.89816401 Ry
     estimated scf accuracy    <       0.00014581 Ry

     total magnetization       =     8.00 Bohr mag/cell
     absolute magnetization    =     8.21 Bohr mag/cell

     iteration # 16     ecut=   100.00 Ry     beta= 0.70
     Davidson diagonalization with overlap
     ethr =  2.94E-08,  avg # of iterations =  3.5

     total cpu time spent up to now is      620.2 secs

     total energy              =   -2131.89823776 Ry
     Harris-Foulkes estimate   =   -2131.89823522 Ry
     estimated scf accuracy    <       0.00008512 Ry

     total magnetization       =     8.00 Bohr mag/cell
     absolute magnetization    =     8.21 Bohr mag/cell

     iteration # 17     ecut=   100.00 Ry     beta= 0.70
     Davidson diagonalization with overlap
     ethr =  1.72E-08,  avg # of iterations =  2.5

     total cpu time spent up to now is      653.3 secs

     total energy              =   -2131.89824606 Ry
     Harris-Foulkes estimate   =   -2131.89824515 Ry
     estimated scf accuracy    <       0.00007873 Ry

     total magnetization       =     8.00 Bohr mag/cell
     absolute magnetization    =     8.21 Bohr mag/cell

     iteration # 18     ecut=   100.00 Ry     beta= 0.70
     Davidson diagonalization with overlap
     ethr =  1.59E-08,  avg # of iterations =  2.5

     total cpu time spent up to now is      686.6 secs

     total energy              =   -2131.89824775 Ry
     Harris-Foulkes estimate   =   -2131.89824854 Ry
     estimated scf accuracy    <       0.00002630 Ry

     total magnetization       =     8.00 Bohr mag/cell
     absolute magnetization    =     8.21 Bohr mag/cell

     iteration # 19     ecut=   100.00 Ry     beta= 0.70
     Davidson diagonalization with overlap
     ethr =  5.30E-09,  avg # of iterations =  2.0

     total cpu time spent up to now is      719.1 secs

     total energy              =   -2131.89824970 Ry
     Harris-Foulkes estimate   =   -2131.89825047 Ry
     estimated scf accuracy    <       0.00004276 Ry

     total magnetization       =     8.00 Bohr mag/cell
     absolute magnetization    =     8.21 Bohr mag/cell

     iteration # 20     ecut=   100.00 Ry     beta= 0.70
     Davidson diagonalization with overlap
     ethr =  5.30E-09,  avg # of iterations =  2.5

     total cpu time spent up to now is      752.3 secs

     total energy              =   -2131.89825194 Ry
     Harris-Foulkes estimate   =   -2131.89825136 Ry
     estimated scf accuracy    <       0.00000779 Ry

     total magnetization       =     8.00 Bohr mag/cell
     absolute magnetization    =     8.21 Bohr mag/cell

     iteration # 21     ecut=   100.00 Ry     beta= 0.70
     Davidson diagonalization with overlap
     ethr =  1.57E-09,  avg # of iterations =  3.0

     total cpu time spent up to now is      786.5 secs

     total energy              =   -2131.89825221 Ry
     Harris-Foulkes estimate   =   -2131.89825243 Ry
     estimated scf accuracy    <       0.00000755 Ry

     total magnetization       =     8.00 Bohr mag/cell
     absolute magnetization    =     8.21 Bohr mag/cell

     iteration # 22     ecut=   100.00 Ry     beta= 0.70
     Davidson diagonalization with overlap
     ethr =  1.52E-09,  avg # of iterations =  2.0

     total cpu time spent up to now is      819.0 secs

     total energy              =   -2131.89825250 Ry
     Harris-Foulkes estimate   =   -2131.89825263 Ry
     estimated scf accuracy    <       0.00000456 Ry

     total magnetization       =     8.00 Bohr mag/cell
     absolute magnetization    =     8.21 Bohr mag/cell

     iteration # 23     ecut=   100.00 Ry     beta= 0.70
     Davidson diagonalization with overlap
     ethr =  9.20E-10,  avg # of iterations =  2.0

     total cpu time spent up to now is      851.8 secs

     total energy              =   -2131.89825273 Ry
     Harris-Foulkes estimate   =   -2131.89825272 Ry
     estimated scf accuracy    <       0.00000332 Ry

     total magnetization       =     8.00 Bohr mag/cell
     absolute magnetization    =     8.21 Bohr mag/cell

     iteration # 24     ecut=   100.00 Ry     beta= 0.70
     Davidson diagonalization with overlap
     ethr =  6.70E-10,  avg # of iterations =  3.0

     total cpu time spent up to now is      885.4 secs

     total energy              =   -2131.89825292 Ry
     Harris-Foulkes estimate   =   -2131.89825285 Ry
     estimated scf accuracy    <       0.00000126 Ry

     total magnetization       =     8.00 Bohr mag/cell
     absolute magnetization    =     8.21 Bohr mag/cell

     iteration # 25     ecut=   100.00 Ry     beta= 0.70
     Davidson diagonalization with overlap
     ethr =  2.54E-10,  avg # of iterations =  2.5
 
     Magnetic moment per site:
     atom:    1    charge:    0.8344    magn:    0.0035    constr:    0.0000
     atom:    2    charge:    0.8346    magn:    0.0033    constr:    0.0000
     atom:    3    charge:    0.8499    magn:    0.0041    constr:    0.0000
     atom:    4    charge:    0.8486    magn:    0.0052    constr:    0.0000
     atom:    5    charge:    0.8477    magn:    0.0049    constr:    0.0000
     atom:    6    charge:    0.8461    magn:    0.0057    constr:    0.0000
     atom:    7    charge:    0.8460    magn:    0.0040    constr:    0.0000
     atom:    8    charge:    0.8346    magn:    0.0032    constr:    0.0000
     atom:    9    charge:    0.8383    magn:    0.0053    constr:    0.0000
     atom:   10    charge:    0.8414    magn:    0.0075    constr:    0.0000
     atom:   11    charge:    0.8424    magn:    0.0071    constr:    0.0000
     atom:   12    charge:    0.8423    magn:    0.0075    constr:    0.0000
     atom:   13    charge:    0.8410    magn:    0.0058    constr:    0.0000
     atom:   14    charge:    0.8410    magn:    0.0061    constr:    0.0000
     atom:   15    charge:    0.8442    magn:    0.0070    constr:    0.0000
     atom:   16    charge:    0.8397    magn:    0.0053    constr:    0.0000
     atom:   17    charge:    0.8351    magn:    0.0030    constr:    0.0000
     atom:   18    charge:    0.8450    magn:    0.0044    constr:    0.0000
     atom:   19    charge:    0.8509    magn:    0.0052    constr:    0.0000
     atom:   20    charge:    0.8485    magn:    0.0053    constr:    0.0000
     atom:   21    charge:    0.8228    magn:   -0.0001    constr:    0.0000
     atom:   22    charge:    0.8226    magn:   -0.0019    constr:    0.0000
     atom:   23    charge:    0.8225    magn:   -0.0017    constr:    0.0000
     atom:   24    charge:    0.8232    magn:   -0.0019    constr:    0.0000
     atom:   25    charge:    0.8345    magn:    0.0034    constr:    0.0000
     atom:   26    charge:    0.8346    magn:    0.0032    constr:    0.0000
     atom:   27    charge:    0.8499    magn:    0.0041    constr:    0.0000
     atom:   28    charge:    0.8486    magn:    0.0051    constr:    0.0000
     atom:   29    charge:    0.8477    magn:    0.0049    constr:    0.0000
     atom:   30    charge:    0.8462    magn:    0.0056    constr:    0.0000
     atom:   31    charge:    0.8396    magn:    0.0034    constr:    0.0000
     atom:   32    charge:    0.8450    magn:    0.0044    constr:    0.0000
     atom:   33    charge:    0.8502    magn:    0.0062    constr:    0.0000
     atom:   34    charge:    0.8376    magn:    0.0051    constr:    0.0000
     atom:   35    charge:    0.8427    magn:    0.0071    constr:    0.0000
     atom:   36    charge:    0.8424    magn:    0.0075    constr:    0.0000
     atom:   37    charge:    0.8411    magn:    0.0057    constr:    0.0000
     atom:   38    charge:    0.8411    magn:    0.0060    constr:    0.0000
     atom:   39    charge:    0.8408    magn:    0.0049    constr:    0.0000
     atom:   40    charge:    0.8444    magn:    0.0070    constr:    0.0000
     atom:   41    charge:    0.8481    magn:    0.0047    constr:    0.0000
     atom:   42    charge:    0.8375    magn:    0.0039    constr:    0.0000
     atom:   43    charge:    0.8523    magn:    0.0038    constr:    0.0000
     atom:   44    charge:    0.8486    magn:    0.0046    constr:    0.0000
     atom:   45    charge:    0.8228    magn:   -0.0001    constr:    0.0000
     atom:   46    charge:    0.8226    magn:   -0.0018    constr:    0.0000
     atom:   47    charge:    0.8254    magn:   -0.0009    constr:    0.0000
     atom:   48    charge:    0.8251    magn:   -0.0011    constr:    0.0000
     atom:   49    charge:    0.4009    magn:   -0.0012    constr:    0.0000
     atom:   50    charge:    0.4015    magn:   -0.0013    constr:    0.0000
     atom:   51    charge:    0.4011    magn:   -0.0012    constr:    0.0000
     atom:   52    charge:    0.4026    magn:   -0.0012    constr:    0.0000
     atom:   53    charge:    0.4066    magn:   -0.0011    constr:    0.0000
     atom:   54    charge:    0.4065    magn:   -0.0011    constr:    0.0000
     atom:   55    charge:    0.4006    magn:   -0.0009    constr:    0.0000
     atom:   56    charge:    0.4009    magn:   -0.0008    constr:    0.0000
     atom:   57    charge:    0.4040    magn:   -0.0008    constr:    0.0000
     atom:   58    charge:    0.4043    magn:   -0.0008    constr:    0.0000
     atom:   59    charge:    0.3984    magn:   -0.0008    constr:    0.0000
     atom:   60    charge:    0.4035    magn:   -0.0009    constr:    0.0000
     atom:   61    charge:    0.3997    magn:   -0.0012    constr:    0.0000
     atom:   62    charge:    0.4019    magn:   -0.0012    constr:    0.0000
     atom:   63    charge:    0.4010    magn:   -0.0012    constr:    0.0000
     atom:   64    charge:    0.4015    magn:   -0.0013    constr:    0.0000
     atom:   65    charge:    0.3996    magn:   -0.0007    constr:    0.0000
     atom:   66    charge:    0.4022    magn:   -0.0009    constr:    0.0000
     atom:   67    charge:    0.4007    magn:   -0.0009    constr:    0.0000
     atom:   68    charge:    0.4010    magn:   -0.0008    constr:    0.0000
     atom:   69    charge:    0.4041    magn:   -0.0008    constr:    0.0000
     atom:   70    charge:    0.4044    magn:   -0.0008    constr:    0.0000
     atom:   71    charge:    0.4033    magn:   -0.0010    constr:    0.0000
     atom:   72    charge:    0.3996    magn:   -0.0009    constr:    0.0000
     atom:   73    charge:    0.3965    magn:    0.0008    constr:    0.0000
     atom:   74    charge:    0.3995    magn:    0.0011    constr:    0.0000
     atom:   75    charge:    0.4029    magn:    0.0009    constr:    0.0000
     atom:   76    charge:    0.4003    magn:    0.0011    constr:    0.0000
     atom:   77    charge:    0.3965    magn:    0.0008    constr:    0.0000
     atom:   78    charge:    0.3996    magn:    0.0011    constr:    0.0000
     atom:   79    charge:    0.4015    magn:    0.0009    constr:    0.0000
     atom:   80    charge:    0.4011    magn:    0.0010    constr:    0.0000
     atom:   81    charge:    2.4470    magn:    0.0119    constr:    0.0000
     atom:   82    charge:    2.4479    magn:    0.0120    constr:    0.0000
     atom:   83    charge:    2.4488    magn:    0.0116    constr:    0.0000
     atom:   84    charge:    2.4467    magn:    0.0121    constr:    0.0000
     atom:   85    charge:    2.4476    magn:    0.0119    constr:    0.0000
     atom:   86    charge:    2.4482    magn:    0.0119    constr:    0.0000
     atom:   87    charge:    2.4532    magn:    0.0134    constr:    0.0000
     atom:   88    charge:    2.4467    magn:    0.0120    constr:    0.0000
     atom:   89    charge:    7.4349    magn:    1.0955    constr:    0.0000
     atom:   90    charge:    7.4407    magn:    1.0963    constr:    0.0000
     atom:   91    charge:    7.4426    magn:    1.0899    constr:    0.0000
     atom:   92    charge:    7.4374    magn:    1.0949    constr:    0.0000
     atom:   93    charge:    2.0243    magn:    0.0367    constr:    0.0000
     atom:   94    charge:    2.0239    magn:    0.0381    constr:    0.0000
     atom:   95    charge:    2.0250    magn:    0.0323    constr:    0.0000
     atom:   96    charge:    2.0245    magn:    0.0376    constr:    0.0000
     atom:   97    charge:    2.0255    magn:    0.0335    constr:    0.0000
     atom:   98    charge:    2.0275    magn:    0.0383    constr:    0.0000
     atom:   99    charge:    2.0339    magn:    0.0256    constr:    0.0000
     atom:  100    charge:    2.0237    magn:    0.0400    constr:    0.0000
     atom:  101    charge:    2.0287    magn:    0.0385    constr:    0.0000
     atom:  102    charge:    2.0301    magn:    0.0367    constr:    0.0000
     atom:  103    charge:    2.0252    magn:    0.0321    constr:    0.0000
     atom:  104    charge:    2.0244    magn:    0.0376    constr:    0.0000
     atom:  105    charge:    2.0257    magn:    0.0382    constr:    0.0000
     atom:  106    charge:    2.0276    magn:    0.0371    constr:    0.0000
     atom:  107    charge:    2.0342    magn:    0.0253    constr:    0.0000
     atom:  108    charge:    2.0240    magn:    0.0394    constr:    0.0000
     atom:  109    charge:    2.0267    magn:    0.0211    constr:    0.0000
     atom:  110    charge:    2.0318    magn:    0.0252    constr:    0.0000
     atom:  111    charge:    2.0283    magn:    0.0201    constr:    0.0000
     atom:  112    charge:    2.0273    magn:    0.0195    constr:    0.0000
     atom:  113    charge:    2.0282    magn:    0.0209    constr:    0.0000
     atom:  114    charge:    2.0309    magn:    0.0244    constr:    0.0000
     atom:  115    charge:    2.0290    magn:    0.0200    constr:    0.0000
     atom:  116    charge:    2.0304    magn:    0.0193    constr:    0.0000
     atom:  117    charge:    2.0269    magn:    0.0209    constr:    0.0000
     atom:  118    charge:    2.0320    magn:    0.0249    constr:    0.0000
     atom:  119    charge:    2.0283    magn:    0.0201    constr:    0.0000
     atom:  120    charge:    2.0273    magn:    0.0194    constr:    0.0000
     atom:  121    charge:    2.0358    magn:    0.0179    constr:    0.0000
     atom:  122    charge:    2.0280    magn:    0.0158    constr:    0.0000
     atom:  123    charge:    2.0291    magn:    0.0192    constr:    0.0000
     atom:  124    charge:    2.0320    magn:    0.0257    constr:    0.0000

     total cpu time spent up to now is      918.4 secs

     End of self-consistent calculation

 ------ SPIN UP ------------


          k = 0.0000 0.0000 0.0000 ( 91663 PWs)   bands (ev):

   -25.9036 -25.4987 -25.4650 -25.3820 -25.3796 -25.3789 -25.2762 -25.2658
   -21.5413 -21.4828 -21.4658 -21.4153 -21.2596 -21.2091 -21.1871 -21.1357
   -18.9715 -18.6598 -18.6274 -18.5901 -18.4801 -18.4110 -18.3845 -18.3509
   -18.3474 -18.3229 -18.2919 -18.2471 -18.2173 -18.2054 -18.1888 -18.1663
   -17.9976 -17.7437 -17.6749 -17.6539 -17.6391 -17.6206 -17.5804 -17.4900
   -14.6475 -14.4365 -14.4077 -14.4040 -14.3314 -14.2976 -14.2680 -14.2616
   -13.4121 -13.1593 -13.0899 -13.0727 -13.0454 -13.0391 -13.0108 -12.9467
   -11.3857 -11.0716 -10.9847 -10.9202 -10.9040 -10.8554 -10.8152 -10.7678
   -10.7454 -10.7379 -10.6995 -10.6754 -10.6578 -10.6140 -10.5608 -10.5271
    -9.4169  -9.2662  -9.1568  -9.1010  -9.0894  -9.0404  -8.9818  -8.9059
    -8.7683  -8.6801  -8.5085  -8.4390  -8.3731  -8.3258  -8.2999  -8.0950
    -7.8964  -7.4999  -7.4698  -7.3167  -7.2587  -7.1880  -7.1538  -7.1161
    -7.0882  -6.9971  -6.9445  -6.9395  -6.9112  -6.8857  -6.8411  -6.7933
    -6.7622  -6.5912  -6.5448  -6.4571  -6.3610  -6.2828  -6.1686  -6.1023
    -6.0601  -5.9537  -5.9030  -5.8350  -5.7868  -5.7684  -5.7491  -5.7038
    -5.6788  -5.6232  -5.5750  -5.5511  -5.5042  -5.4860  -5.4580  -5.4293
    -5.3986  -5.3879  -5.3527  -5.3330  -5.2829  -5.2532  -5.2173  -5.1768
    -5.1618  -5.1199  -5.0941  -5.0737  -5.0477  -5.0108  -4.9792  -4.9591
    -4.9270  -4.8693  -4.8646  -4.8540  -4.7784  -4.7275  -4.7110  -4.6622
    -4.5598  -4.4924  -4.4404  -4.3475  -4.2586  -4.2003  -4.1837  -3.9436
    -3.6880  -3.6376  -3.5567  -3.5254  -3.4525  -3.3944  -3.3798  -3.3742
    -3.3519  -3.3283  -3.3183  -3.2807  -3.2538  -3.0813  -2.9998  -2.9478
    -2.9303  -2.9177  -2.8575  -2.7889  -2.7425  -2.7288  -2.6847  -2.6531
    -2.6228  -2.5358  -2.5217  -2.4574  -2.3234  -2.3021  -2.2318  -2.1388
    -2.1197  -2.0806  -2.0051  -1.9418  -1.8581  -1.8417  -1.8087  -1.7346
    -1.7223  -1.6953  -1.6562  -1.5952  -1.5281  -1.4971  -1.4475  -1.4181
    -1.3878  -1.3868  -1.3605  -1.3292  -1.3112  -1.2585  -1.2184  -1.1467
    -1.1327  -1.1130  -1.0707  -1.0309  -1.0162  -0.9755  -0.9474  -0.9330
    -0.9252  -0.8884  -0.8523  -0.8344  -0.8212  -0.7627  -0.7562  -0.6931
    -0.6439  -0.5611  -0.4953  -0.2735  -0.1651  -0.1231  -0.1041  -0.0908
    -0.0551  -0.0176  -0.0083   0.1104   0.9894   1.0084   1.0406   1.0888
     1.2583   1.2821   1.3296   1.3382   2.6871   2.8555   2.9164   3.0002
     3.0416   3.0522   3.0793   3.1669   3.6898   4.1153   4.1967   4.2231
     4.3291   4.3823   4.4615   4.5092   4.6188   4.7597   4.8768   5.0305
     5.2609   5.3705   5.4142   5.5069   5.5739   5.6125   5.6566   5.6770
     5.7172   5.7676   5.7998   5.8549   5.8685   6.1623   6.2144   6.3357
     6.3593   6.4524   6.5342   6.6166   6.7233   6.7408   6.8214   6.9221
     6.9295   7.0174   7.1186   7.1920   7.4269   7.4569

 ------ SPIN DOWN ----------


          k = 0.0000 0.0000 0.0000 ( 91663 PWs)   bands (ev):

   -25.8457 -25.4377 -25.3982 -25.3215 -25.3191 -25.3189 -25.2072 -25.1961
   -21.4519 -21.4016 -21.3663 -21.3274 -21.1536 -21.1076 -21.0818 -21.0305
   -18.9078 -18.5682 -18.5446 -18.5241 -18.3789 -18.3539 -18.3232 -18.2932
   -18.2852 -18.2666 -18.2209 -18.1643 -18.1128 -18.0836 -18.0779 -18.0655
   -17.9496 -17.6873 -17.6172 -17.5979 -17.5794 -17.5620 -17.5228 -17.4288
   -14.6143 -14.4005 -14.3719 -14.3682 -14.2942 -14.2596 -14.2292 -14.2228
   -13.3743 -13.1176 -13.0457 -13.0288 -13.0030 -12.9955 -12.9688 -12.9036
   -11.3478 -11.0327 -10.9447 -10.8790 -10.8648 -10.8168 -10.7741 -10.7271
   -10.7058 -10.6979 -10.6599 -10.6367 -10.6192 -10.5764 -10.5218 -10.4865
    -9.3878  -9.2314  -9.1242  -9.0675  -9.0569  -9.0087  -8.9504  -8.8744
    -8.7284  -8.6366  -8.4640  -8.3956  -8.3312  -8.2839  -8.2536  -8.0518
    -7.8360  -7.4431  -7.4244  -7.2626  -7.1994  -7.1283  -7.0939  -7.0588
    -7.0269  -6.9516  -6.8897  -6.8812  -6.8593  -6.8397  -6.7809  -6.7385
    -6.7081  -6.5317  -6.4821  -6.3925  -6.2907  -6.2062  -6.0955  -6.0306
    -5.9830  -5.8776  -5.8254  -5.7466  -5.6928  -5.6756  -5.6582  -5.6072
    -5.5936  -5.5412  -5.4905  -5.4518  -5.4255  -5.3976  -5.3787  -5.3421
    -5.3160  -5.2921  -5.2628  -5.2393  -5.1932  -5.1815  -5.1464  -5.0983
    -5.0778  -5.0346  -5.0063  -4.9870  -4.9513  -4.9337  -4.9062  -4.8940
    -4.8351  -4.8317  -4.7837  -4.7815  -4.7121  -4.6737  -4.6258  -4.5778
    -4.5139  -4.4208  -4.3577  -4.2628  -4.1741  -4.1176  -4.0995  -3.8584
    -3.5838  -3.5711  -3.4983  -3.4594  -3.3779  -3.3370  -3.3260  -3.2913
    -3.2548  -3.2338  -3.1440  -3.1140  -2.9688  -2.8746  -2.8613  -2.7521
    -2.7506  -2.7131  -2.6680  -2.6614  -2.5457  -2.5086  -2.4929  -2.4139
    -2.3916  -2.3334  -2.3002  -2.1694  -2.0798  -2.0390  -1.9890  -1.9211
    -1.8604  -1.8186  -1.6854  -1.6277  -1.6071  -1.5747  -1.4682  -1.4589
    -1.4256  -1.3944  -1.3196  -1.2976  -1.2880  -1.2274  -1.1955  -1.1781
    -1.1384  -1.0966  -1.0672  -1.0591  -1.0193  -0.9718  -0.9279  -0.8794
    -0.8416  -0.7935  -0.7319  -0.6763  -0.6474  -0.5616  -0.4514  -0.3891
    -0.3259  -0.2842  -0.2263  -0.1950  -0.1365  -0.0877  -0.0651  -0.0561
    -0.0113  -0.0042   0.0195   0.0446   0.0528   0.0621   0.1032   0.1139
     0.1730   0.2447   0.2599   0.3189   1.7534   1.7606   1.7910   1.8237
     1.9605   1.9962   2.0250   2.0379   2.8004   2.9549   3.0225   3.1114
     3.1481   3.1645   3.1924   3.2693   3.7618   4.1862   4.2725   4.3001
     4.4066   4.4606   4.5443   4.5870   4.7034   4.8350   4.9443   5.0874
     5.3270   5.4477   5.4776   5.5804   5.6480   5.6762   5.7267   5.7385
     5.7735   5.8488   5.8658   5.9210   5.9279   6.2163   6.2728   6.3872
     6.4086   6.5092   6.5898   6.6680   6.7728   6.7928   6.8685   6.9684
     6.9802   7.0581   7.1652   7.2415   7.4691   7.5108

     the spin up/dw Fermi energies are     1.5523    1.2205 ev

!    total energy              =   -2131.89825270 Ry
     Harris-Foulkes estimate   =   -2131.89825297 Ry
     estimated scf accuracy    <       0.00000074 Ry

     The total energy is the sum of the following terms:

     one-electron contribution =   -2940.17865344 Ry
     hartree contribution      =    1661.55864665 Ry
     xc contribution           =    -604.30272193 Ry
     ewald contribution        =    -251.19038846 Ry
     Dispersion Correction     =      -0.56010160 Ry
     smearing contrib. (-TS)   =       2.77496609 Ry

     total magnetization       =     8.00 Bohr mag/cell
     absolute magnetization    =     8.21 Bohr mag/cell

     convergence has been achieved in  25 iterations

     Forces acting on atoms (cartesian axes, Ry/au):

     atom    1 type  1   force =    -0.05187150   -0.04068822    0.00961115
     atom    2 type  1   force =    -0.05024137    0.03802286    0.01338302
     atom    3 type  1   force =     0.03268219    0.03764105   -0.02462103
     atom    4 type  1   force =     0.02998609   -0.03616389   -0.01702564
     atom    5 type  1   force =    -0.02283829   -0.01493352   -0.01748379
     atom    6 type  1   force =    -0.02066963    0.01349885   -0.02058207
     atom    7 type  1   force =    -0.00813900    0.01212138    0.02068124
     atom    8 type  1   force =     0.05083932   -0.03940489    0.01139092
     atom    9 type  1   force =     0.00009905   -0.00889540   -0.00671532
     atom   10 type  1   force =    -0.00341891   -0.02133193    0.01709202
     atom   11 type  1   force =    -0.00544538   -0.01470739    0.02221410
     atom   12 type  1   force =    -0.00479694    0.01603114    0.02026284
     atom   13 type  1   force =     0.00442571   -0.02432631   -0.00785835
     atom   14 type  1   force =     0.00348741    0.02245439   -0.01419867
     atom   15 type  1   force =     0.00621338    0.01555029    0.01109873
     atom   16 type  1   force =    -0.01076109    0.00443610    0.00105245
     atom   17 type  1   force =    -0.00397025    0.03915166    0.03877937
     atom   18 type  1   force =     0.02280670   -0.01466889   -0.00298256
     atom   19 type  1   force =    -0.00583435   -0.03891147   -0.03248592
     atom   20 type  1   force =    -0.02496732    0.03850687   -0.01962394
     atom   21 type  1   force =    -0.05634796    0.00979782   -0.01564488
     atom   22 type  1   force =     0.00296489   -0.00526568   -0.00011315
     atom   23 type  1   force =    -0.00210070   -0.00337503   -0.00224093
     atom   24 type  1   force =     0.00002138    0.00492643   -0.00321721
     atom   25 type  1   force =    -0.05231434   -0.04110468    0.01024272
     atom   26 type  1   force =    -0.05054264    0.03818433    0.01355763
     atom   27 type  1   force =     0.03257452    0.03756319   -0.02453170
     atom   28 type  1   force =     0.03019561   -0.03634409   -0.01700454
     atom   29 type  1   force =    -0.02248663   -0.01539586   -0.01687866
     atom   30 type  1   force =    -0.02092451    0.01401989   -0.02018485
     atom   31 type  1   force =     0.04912111    0.05228507    0.03624354
     atom   32 type  1   force =    -0.00152961   -0.01350102    0.02415628
     atom   33 type  1   force =    -0.00425136    0.00667811    0.00317111
     atom   34 type  1   force =     0.00021173    0.00894337   -0.00591375
     atom   35 type  1   force =    -0.00525958   -0.01348439    0.02026917
     atom   36 type  1   force =    -0.00489219    0.01554416    0.01924420
     atom   37 type  1   force =     0.00544126   -0.02277397   -0.00900234
     atom   38 type  1   force =     0.00398543    0.02161423   -0.01514685
     atom   39 type  1   force =    -0.00838168    0.01527866   -0.01050314
     atom   40 type  1   force =     0.01158301   -0.03932677    0.00089356
     atom   41 type  1   force =     0.02308823    0.02103251   -0.00995093
     atom   42 type  1   force =     0.00169066   -0.05069876    0.02276906
     atom   43 type  1   force =    -0.02726232   -0.04422625   -0.02417194
     atom   44 type  1   force =    -0.00915104    0.03953493   -0.03724303
     atom   45 type  1   force =    -0.05456078    0.01000062   -0.01474503
     atom   46 type  1   force =     0.00154694   -0.00525199   -0.00104972
     atom   47 type  1   force =    -0.02121002   -0.01146965    0.01996766
     atom   48 type  1   force =    -0.02334742   -0.00104123    0.02640639
     atom   49 type  2   force =     0.00106903    0.00353774   -0.00253885
     atom   50 type  2   force =    -0.00288355   -0.00413571   -0.00415094
     atom   51 type  2   force =    -0.00405462   -0.00430399   -0.00210000
     atom   52 type  2   force =    -0.00346546    0.00395403    0.00228735
     atom   53 type  2   force =    -0.00112411    0.00024445    0.00223998
     atom   54 type  2   force =    -0.00067574   -0.00045809    0.00181149
     atom   55 type  2   force =    -0.00326291    0.00284926   -0.00549131
     atom   56 type  2   force =    -0.00386995   -0.00367821   -0.00392447
     atom   57 type  2   force =    -0.00524335   -0.00113543   -0.01013114
     atom   58 type  2   force =    -0.00500834    0.00274189   -0.01241286
     atom   59 type  2   force =    -0.00280106   -0.00097162    0.00224473
     atom   60 type  2   force =     0.00155969    0.00036955   -0.00096949
     atom   61 type  2   force =    -0.00306637   -0.00417971   -0.00574894
     atom   62 type  2   force =    -0.00031247    0.00456744   -0.00610794
     atom   63 type  2   force =     0.00115713    0.00346173   -0.00247520
     atom   64 type  2   force =    -0.00264530   -0.00403163   -0.00419297
     atom   65 type  2   force =     0.00531147    0.00877481   -0.01404174
     atom   66 type  2   force =     0.00111849    0.00175199   -0.00504291
     atom   67 type  2   force =    -0.00387280    0.00292849   -0.00515289
     atom   68 type  2   force =    -0.00365784   -0.00362160   -0.00414379
     atom   69 type  2   force =    -0.00505542   -0.00084952   -0.00972687
     atom   70 type  2   force =    -0.00475924    0.00246118   -0.01205848
     atom   71 type  2   force =     0.00642746    0.00092247   -0.00889412
     atom   72 type  2   force =    -0.00047706   -0.00073888   -0.00648949
     atom   73 type  2   force =    -0.00838655    0.04457509    0.02037158
     atom   74 type  2   force =     0.00357289   -0.00787900    0.00099915
     atom   75 type  2   force =    -0.00934396    0.00083325   -0.01057444
     atom   76 type  2   force =    -0.00360672    0.00717485   -0.00010364
     atom   77 type  2   force =    -0.00846041    0.04420977    0.02030301
     atom   78 type  2   force =     0.00324172   -0.00817487    0.00067703
     atom   79 type  2   force =     0.00267580   -0.00289751    0.00812304
     atom   80 type  2   force =    -0.00851857   -0.00329084   -0.01467029
     atom   81 type  3   force =    -0.00350913    0.00200797   -0.01499732
     atom   82 type  3   force =    -0.00513583   -0.00061862   -0.01523035
     atom   83 type  3   force =    -0.01132368    0.00003472    0.00082717
     atom   84 type  3   force =     0.00560019   -0.00070045   -0.01211326
     atom   85 type  3   force =    -0.00291621   -0.00088549   -0.01436262
     atom   86 type  3   force =    -0.00502941    0.00101978   -0.01454112
     atom   87 type  3   force =    -0.01125005    0.01273078   -0.00224793
     atom   88 type  3   force =    -0.01218043   -0.00136793   -0.00138696
     atom   89 type  4   force =     0.01256986    0.00010387    0.01004821
     atom   90 type  4   force =    -0.00771664    0.00249429   -0.00496771
     atom   91 type  4   force =     0.00516266    0.01074584    0.01298192
     atom   92 type  4   force =    -0.00158505    0.00722978   -0.00238647
     atom   93 type  5   force =     0.00432115    0.00272414    0.00048137
     atom   94 type  5   force =    -0.00195440    0.00219633    0.00087454
     atom   95 type  5   force =     0.00698645   -0.00472863    0.01210843
     atom   96 type  5   force =     0.00080951   -0.00134402   -0.00120339
     atom   97 type  5   force =     0.00112967    0.00454192    0.00500840
     atom   98 type  5   force =    -0.00532064   -0.00281589    0.00297847
     atom   99 type  5   force =     0.03696490   -0.01176391    0.00750704
     atom  100 type  5   force =    -0.00548796   -0.00566282    0.00552111
     atom  101 type  5   force =     0.00015992   -0.06487915    0.04364725
     atom  102 type  5   force =     0.00612118    0.06281407    0.03393970
     atom  103 type  5   force =     0.00588585   -0.00398763    0.01154466
     atom  104 type  5   force =     0.00176727   -0.00072198   -0.00083917
     atom  105 type  5   force =     0.00344117   -0.00958728   -0.00099395
     atom  106 type  5   force =     0.01361129    0.00891281   -0.00009399
     atom  107 type  5   force =     0.03864413   -0.01108096    0.00815994
     atom  108 type  5   force =    -0.00422630   -0.00657585    0.00622076
     atom  109 type  5   force =     0.19442982    0.08159001    0.04650660
     atom  110 type  5   force =    -0.12082186   -0.13390982   -0.00970136
     atom  111 type  5   force =     0.21591935   -0.08311787    0.03246264
     atom  112 type  5   force =    -0.16164126    0.11244545    0.00654172
     atom  113 type  5   force =     0.10176856   -0.10478135   -0.18376417
     atom  114 type  5   force =    -0.03829509    0.00622769    0.11376843
     atom  115 type  5   force =    -0.21234970    0.09064682    0.02727011
     atom  116 type  5   force =     0.15956321   -0.11401126    0.00912376
     atom  117 type  5   force =     0.19520565    0.08258480    0.04597108
     atom  118 type  5   force =    -0.12172318   -0.13462189   -0.00962952
     atom  119 type  5   force =     0.21603064   -0.08325347    0.03228584
     atom  120 type  5   force =    -0.16151213    0.11248669    0.00689170
     atom  121 type  5   force =    -0.16558080   -0.10599636    0.05354975
     atom  122 type  5   force =     0.17429875    0.12451022    0.00460727
     atom  123 type  5   force =     0.10245915    0.12880800   -0.17666628
     atom  124 type  5   force =    -0.11032025   -0.03098139    0.04501585

     Total force =     0.881469     Total SCF correction =     0.002220

     BFGS Geometry Optimization

     number of scf cycles    =   1
     number of bfgs steps    =   0

     energy   new            =   -2131.8982526988 Ry

     new trust radius        =       0.2414546653 bohr
     new conv_thr            =       0.0000010000 Ry


ATOMIC_POSITIONS (crystal)
C             0.2860260550        0.9683307163        0.5224790226
C             0.0362655700        0.0327126588        0.0229972932
C             0.3919938752        0.0133605256        0.5452238928
C             0.1414969089        0.9862158921        0.0452690938
C             0.4509322040        0.9695709831        0.6494704965
C             0.2016260672        0.0289233947        0.1488329196
C             0.2078559821        0.5302161899        0.5274491883
C             0.4607069545        0.4697439434        0.0284906899
C             0.2451348965        0.6129551244        0.6060891271
C             0.4966903493        0.3877756177        0.1094973255
C             0.2492664001        0.8885845383        0.6043471382
C             0.0008850101        0.1129093972        0.1052906387
C             0.4081569089        0.8883550900        0.7271472553
C             0.1600692613        0.1104958121        0.2270806969
C             0.0891353242        0.6096400786        0.7279236404
C             0.3404356287        0.3918204475        0.2294482063
C             0.0467933481        0.5267333562        0.6533093335
C             0.2986202747        0.4740911651        0.1526003832
C             0.1078866670        0.4826257931        0.5484428113
C             0.3567571076        0.5172831107        0.0496272683
C             0.4309109590        0.0997330075        0.4658152098
C             0.1816423541        0.8994974984        0.9656661722
C             0.0672870078        0.3943313879        0.4705605806
C             0.3160408889        0.6043801666        0.9689412973
C             0.7860079083        0.9683131187        0.5225115516
C             0.5362529855        0.0327194818        0.0230062866
C             0.8919894029        0.0133572356        0.5452284937
C             0.6415057946        0.9862082778        0.0452701805
C             0.9509476521        0.9695514469        0.6495016640
C             0.7016156543        0.0289454114        0.1488533784
C             0.7102945440        0.5319133095        0.5282507252
C             0.9585039174        0.4708385133        0.0291481705
C             0.7449600754        0.6136131842        0.6065983281
C             0.9968224162        0.3890549028        0.1083124119
C             0.7492724391        0.8886362161        0.6042469648
C             0.5008800245        0.1128888197        0.1052381736
C             0.9081988096        0.8884206840        0.7270883342
C             0.6600884461        0.1104603110        0.2270318611
C             0.5884974820        0.6096286009        0.7268110352
C             0.8413809754        0.3899712442        0.2294400229
C             0.5478926559        0.5259677301        0.6507994768
C             0.7977508833        0.4725687201        0.1539267216
C             0.6069877310        0.4824012164        0.5488710234
C             0.8574098617        0.5173265513        0.0487197959
C             0.9309874272        0.0997415768        0.4658615565
C             0.6815814752        0.8994980767        0.9656179343
C             0.5664982101        0.3939893491        0.4717044352
C             0.8150798009        0.6041280027        0.9704670622
H             0.0321058565        0.9989544876        0.6733892364
H             0.2822140908        0.9984902452        0.1723882059
H             0.2585264593        0.5007131345        0.4491738393
H             0.0084965025        0.5005640780        0.9506658102
H             0.3225955326        0.6505163291        0.5927503704
H             0.0749411037        0.3528316434        0.0951213011
H             0.1700107817        0.8552433956        0.5882771698
H             0.4221545636        0.1475765769        0.0896838702
H             0.4531386302        0.8551250222        0.8082391951
H             0.2060154356        0.1432188586        0.3081576753
H             0.0436125766        0.6429029440        0.8067236150
H             0.2964430898        0.3575416154        0.3090010663
H             0.4685368570        0.4930543862        0.6732059005
H             0.2189330525        0.5053939973        0.1749494104
H             0.5321086439        0.9989512757        0.6733925147
H             0.7822241330        0.9984946433        0.1723860407
H             0.8228525939        0.6508767802        0.5919117796
H             0.5750106021        0.3529250306        0.0947682647
H             0.6699852913        0.8552467434        0.5882946002
H             0.9221633334        0.1475789689        0.0896725739
H             0.9531469611        0.8551371036        0.8082600172
H             0.7060273086        0.1432069974        0.3081759272
H             0.5439926423        0.6429829792        0.8061499077
H             0.7963517301        0.3574947787        0.3087167587
H             0.0826922169        0.0297325239        0.4257822391
H             0.8911171244        0.0785580722        0.8180744613
H             0.8329206961        0.5623802090        0.7222853629
H             0.6005552838        0.4252941739        0.8252956618
H             0.5826890273        0.0297170872        0.4257787073
H             0.3911028089        0.0785455702        0.8180578703
H             0.8491348414        0.5770725656        0.3234103778
H             0.6456387834        0.5348529455        0.3380614059
N             0.3082744523        0.8513378471        0.7040555624
N             0.0604973999        0.1488308600        0.2052675603
N             0.1860636115        0.6503114672        0.7058806033
N             0.4390356189        0.3508984024        0.2074171061
N             0.8083001370        0.8512155836        0.7040882528
N             0.5605025493        0.1489000909        0.2053030589
N             0.6860648447        0.6508479400        0.7057222200
N             0.9382932823        0.3508701980        0.2079695647
Ni            0.2475433150        0.7514903891        0.8368435335
Ni            0.4996408120        0.2481043963        0.3389221380
Ni            0.7472326278        0.7519400665        0.8369946346
Ni            0.9999026914        0.2483044949        0.3390550847
O             0.1229613016        0.3478041087        0.3828977929
O             0.3711261188        0.6510698059        0.8813370433
O             0.3779369830        0.1473071915        0.3778016454
O             0.1251311266        0.8522952082        0.8761990193
O             0.4731214970        0.3563519192        0.4832519580
O             0.2209146478        0.6412960142        0.9800304063
O             0.0304112145        0.1346609152        0.4814646504
O             0.2764589509        0.8625187173        0.9796833652
O             0.6228266803        0.3449475266        0.3851210534
O             0.8714988328        0.6536312132        0.8830400660
O             0.8778898826        0.1473385025        0.3777726080
O             0.6251719958        0.8523214927        0.8762177783
O             0.9732136824        0.3557548889        0.4829428064
O             0.7217128765        0.6417916113        0.9798721589
O             0.5304828836        0.1346897731        0.4814982782
O             0.7765129943        0.8624801369        0.9797194007
O             0.2352449340        0.0107235920        0.4232693246
O             0.1267473029        0.9653076306        0.3945183309
O             0.9854891038        0.9917188483        0.9228859900
O             0.8749952467        0.0380133908        0.8961079315
O             0.9529531059        0.4798104562        0.6659382180
O             0.8883651768        0.5202161514        0.7737576479
O             0.5097899378        0.5119232883        0.9301315482
O             0.6189645044        0.4645024454        0.9047249195
O             0.7352772614        0.0107656270        0.4232417427
O             0.6267092306        0.9652775421        0.3945220312
O             0.4854936473        0.9917131186        0.9228768835
O             0.3750010387        0.0380151335        0.8961259576
O             0.7616106076        0.4889531157        0.4301570824
O             0.8687458085        0.5387081889        0.4024962976
O             0.7033819819        0.5200437919        0.1682107951
O             0.6366739704        0.4776668790        0.2731415432



     Writing output data file ./QE_relaxation_results/pbesol_relax/NiPyC2_relax_sc211_meta_functionalized_O-OH_pbesol_relax.save/
     NEW-OLD atomic charge density approx. for the potential

     Check: negative core charge=   -0.000145

     total cpu time spent up to now is      931.4 secs

     Self-consistent Calculation

     iteration #  1     ecut=   100.00 Ry     beta= 0.70
     Davidson diagonalization with overlap
     c_bands:  2 eigenvalues not converged
     ethr =  1.00E-06,  avg # of iterations = 20.0

     total cpu time spent up to now is     1124.7 secs

     total energy              =   -2132.14521516 Ry
     Harris-Foulkes estimate   =   -2132.20273911 Ry
     estimated scf accuracy    <       0.25666236 Ry

     total magnetization       =     8.00 Bohr mag/cell
     absolute magnetization    =     8.20 Bohr mag/cell

     iteration #  2     ecut=   100.00 Ry     beta= 0.70
     Davidson diagonalization with overlap
     ethr =  5.17E-05,  avg # of iterations =  2.0

     total cpu time spent up to now is     1157.1 secs

     total energy              =   -2132.12897474 Ry
     Harris-Foulkes estimate   =   -2132.18421012 Ry
     estimated scf accuracy    <       0.28503490 Ry

     total magnetization       =     8.00 Bohr mag/cell
     absolute magnetization    =     8.19 Bohr mag/cell

     iteration #  3     ecut=   100.00 Ry     beta= 0.70
     Davidson diagonalization with overlap
     ethr =  5.17E-05,  avg # of iterations =  2.0

     total cpu time spent up to now is     1189.7 secs

     total energy              =   -2132.14928246 Ry
     Harris-Foulkes estimate   =   -2132.17961855 Ry
     estimated scf accuracy    <       0.30453006 Ry

     total magnetization       =     8.00 Bohr mag/cell
     absolute magnetization    =     8.21 Bohr mag/cell

     iteration #  4     ecut=   100.00 Ry     beta= 0.70
     Davidson diagonalization with overlap
     ethr =  5.17E-05,  avg # of iterations =  1.0

     total cpu time spent up to now is     1221.3 secs

     total energy              =   -2132.15959732 Ry
     Harris-Foulkes estimate   =   -2132.16333961 Ry
     estimated scf accuracy    <       0.02157648 Ry

     total magnetization       =     8.00 Bohr mag/cell
     absolute magnetization    =     8.21 Bohr mag/cell

     iteration #  5     ecut=   100.00 Ry     beta= 0.70
     Davidson diagonalization with overlap
     ethr =  4.35E-06,  avg # of iterations =  9.0

     total cpu time spent up to now is     1259.5 secs

     total energy              =   -2132.15902992 Ry
     Harris-Foulkes estimate   =   -2132.16362655 Ry
     estimated scf accuracy    <       0.05971783 Ry

     total magnetization       =     8.00 Bohr mag/cell
     absolute magnetization    =     8.21 Bohr mag/cell

     iteration #  6     ecut=   100.00 Ry     beta= 0.70
     Davidson diagonalization with overlap
     ethr =  4.35E-06,  avg # of iterations =  1.5

     total cpu time spent up to now is     1291.4 secs

     total energy              =   -2132.16107574 Ry
     Harris-Foulkes estimate   =   -2132.16150275 Ry
     estimated scf accuracy    <       0.00438420 Ry

     total magnetization       =     8.00 Bohr mag/cell
     absolute magnetization    =     8.21 Bohr mag/cell

     iteration #  7     ecut=   100.00 Ry     beta= 0.70
     Davidson diagonalization with overlap
     ethr =  8.84E-07,  avg # of iterations =  3.0

     total cpu time spent up to now is     1324.5 secs

     total energy              =   -2132.16106455 Ry
     Harris-Foulkes estimate   =   -2132.16122239 Ry
     estimated scf accuracy    <       0.00126650 Ry

     total magnetization       =     8.00 Bohr mag/cell
     absolute magnetization    =     8.21 Bohr mag/cell

     iteration #  8     ecut=   100.00 Ry     beta= 0.70
     Davidson diagonalization with overlap
     ethr =  2.55E-07,  avg # of iterations =  3.0

     total cpu time spent up to now is     1358.6 secs

     total energy              =   -2132.16104264 Ry
     Harris-Foulkes estimate   =   -2132.16119925 Ry
     estimated scf accuracy    <       0.00223275 Ry

     total magnetization       =     8.00 Bohr mag/cell
     absolute magnetization    =     8.21 Bohr mag/cell

     iteration #  9     ecut=   100.00 Ry     beta= 0.70
     Davidson diagonalization with overlap
     ethr =  2.55E-07,  avg # of iterations =  1.0

     total cpu time spent up to now is     1390.4 secs

     total energy              =   -2132.16111849 Ry
     Harris-Foulkes estimate   =   -2132.16113329 Ry
     estimated scf accuracy    <       0.00027377 Ry

     total magnetization       =     8.00 Bohr mag/cell
     absolute magnetization    =     8.21 Bohr mag/cell

     iteration # 10     ecut=   100.00 Ry     beta= 0.70
     Davidson diagonalization with overlap
     ethr =  5.52E-08,  avg # of iterations =  3.0

     total cpu time spent up to now is     1424.7 secs

     total energy              =   -2132.16113634 Ry
     Harris-Foulkes estimate   =   -2132.16113346 Ry
     estimated scf accuracy    <       0.00010576 Ry

     total magnetization       =     8.00 Bohr mag/cell
     absolute magnetization    =     8.21 Bohr mag/cell

     iteration # 11     ecut=   100.00 Ry     beta= 0.70
     Davidson diagonalization with overlap
     ethr =  2.13E-08,  avg # of iterations =  2.5

     total cpu time spent up to now is     1458.4 secs

     total energy              =   -2132.16114345 Ry
     Harris-Foulkes estimate   =   -2132.16114185 Ry
     estimated scf accuracy    <       0.00004724 Ry

     total magnetization       =     8.00 Bohr mag/cell
     absolute magnetization    =     8.21 Bohr mag/cell

     iteration # 12     ecut=   100.00 Ry     beta= 0.70
     Davidson diagonalization with overlap
     ethr =  9.52E-09,  avg # of iterations =  3.5

     total cpu time spent up to now is     1492.7 secs

     total energy              =   -2132.16114209 Ry
     Harris-Foulkes estimate   =   -2132.16114858 Ry
     estimated scf accuracy    <       0.00008442 Ry

     total magnetization       =     8.00 Bohr mag/cell
     absolute magnetization    =     8.21 Bohr mag/cell

     iteration # 13     ecut=   100.00 Ry     beta= 0.70
     Davidson diagonalization with overlap
     ethr =  9.52E-09,  avg # of iterations =  1.0

     total cpu time spent up to now is     1524.4 secs

     total energy              =   -2132.16114827 Ry
     Harris-Foulkes estimate   =   -2132.16114786 Ry
     estimated scf accuracy    <       0.00003646 Ry

     total magnetization       =     8.00 Bohr mag/cell
     absolute magnetization    =     8.21 Bohr mag/cell

     iteration # 14     ecut=   100.00 Ry     beta= 0.70
     Davidson diagonalization with overlap
     ethr =  7.35E-09,  avg # of iterations =  2.5

     total cpu time spent up to now is     1557.2 secs

     total energy              =   -2132.16114981 Ry
     Harris-Foulkes estimate   =   -2132.16114996 Ry
     estimated scf accuracy    <       0.00001001 Ry

     total magnetization       =     8.00 Bohr mag/cell
     absolute magnetization    =     8.21 Bohr mag/cell

     iteration # 15     ecut=   100.00 Ry     beta= 0.70
     Davidson diagonalization with overlap
     ethr =  2.02E-09,  avg # of iterations =  3.0

     total cpu time spent up to now is     1590.7 secs

     total energy              =   -2132.16114999 Ry
     Harris-Foulkes estimate   =   -2132.16115094 Ry
     estimated scf accuracy    <       0.00001232 Ry

     total magnetization       =     8.00 Bohr mag/cell
     absolute magnetization    =     8.21 Bohr mag/cell

     iteration # 16     ecut=   100.00 Ry     beta= 0.70
     Davidson diagonalization with overlap
     ethr =  2.02E-09,  avg # of iterations =  1.5

     total cpu time spent up to now is     1622.8 secs

     total energy              =   -2132.16115078 Ry
     Harris-Foulkes estimate   =   -2132.16115085 Ry
     estimated scf accuracy    <       0.00000602 Ry

     total magnetization       =     8.00 Bohr mag/cell
     absolute magnetization    =     8.21 Bohr mag/cell

     iteration # 17     ecut=   100.00 Ry     beta= 0.70
     Davidson diagonalization with overlap
     ethr =  1.21E-09,  avg # of iterations =  2.0

     total cpu time spent up to now is     1655.5 secs

     total energy              =   -2132.16115101 Ry
     Harris-Foulkes estimate   =   -2132.16115113 Ry
     estimated scf accuracy    <       0.00000331 Ry

     total magnetization       =     8.00 Bohr mag/cell
     absolute magnetization    =     8.21 Bohr mag/cell

     iteration # 18     ecut=   100.00 Ry     beta= 0.70
     Davidson diagonalization with overlap
     ethr =  6.68E-10,  avg # of iterations =  1.5

     total cpu time spent up to now is     1687.5 secs

     total energy              =   -2132.16115114 Ry
     Harris-Foulkes estimate   =   -2132.16115118 Ry
     estimated scf accuracy    <       0.00000118 Ry

     total magnetization       =     8.00 Bohr mag/cell
     absolute magnetization    =     8.21 Bohr mag/cell

     iteration # 19     ecut=   100.00 Ry     beta= 0.70
     Davidson diagonalization with overlap
     ethr =  2.38E-10,  avg # of iterations =  3.0

     total cpu time spent up to now is     1721.3 secs

     total energy              =   -2132.16115121 Ry
     Harris-Foulkes estimate   =   -2132.16115131 Ry
     estimated scf accuracy    <       0.00000286 Ry

     total magnetization       =     8.00 Bohr mag/cell
     absolute magnetization    =     8.21 Bohr mag/cell

     iteration # 20     ecut=   100.00 Ry     beta= 0.70
     Davidson diagonalization with overlap
     ethr =  2.38E-10,  avg # of iterations =  2.0
 
     Magnetic moment per site:
     atom:    1    charge:    0.8384    magn:    0.0030    constr:    0.0000
     atom:    2    charge:    0.8388    magn:    0.0026    constr:    0.0000
     atom:    3    charge:    0.8458    magn:    0.0052    constr:    0.0000
     atom:    4    charge:    0.8444    magn:    0.0065    constr:    0.0000
     atom:    5    charge:    0.8433    magn:    0.0046    constr:    0.0000
     atom:    6    charge:    0.8436    magn:    0.0050    constr:    0.0000
     atom:    7    charge:    0.8455    magn:    0.0035    constr:    0.0000
     atom:    8    charge:    0.8383    magn:    0.0027    constr:    0.0000
     atom:    9    charge:    0.8390    magn:    0.0056    constr:    0.0000
     atom:   10    charge:    0.8490    magn:    0.0073    constr:    0.0000
     atom:   11    charge:    0.8509    magn:    0.0069    constr:    0.0000
     atom:   12    charge:    0.8508    magn:    0.0073    constr:    0.0000
     atom:   13    charge:    0.8408    magn:    0.0061    constr:    0.0000
     atom:   14    charge:    0.8403    magn:    0.0064    constr:    0.0000
     atom:   15    charge:    0.8510    magn:    0.0067    constr:    0.0000
     atom:   16    charge:    0.8401    magn:    0.0058    constr:    0.0000
     atom:   17    charge:    0.8360    magn:    0.0025    constr:    0.0000
     atom:   18    charge:    0.8440    magn:    0.0037    constr:    0.0000
     atom:   19    charge:    0.8459    magn:    0.0064    constr:    0.0000
     atom:   20    charge:    0.8426    magn:    0.0066    constr:    0.0000
     atom:   21    charge:    0.8229    magn:   -0.0005    constr:    0.0000
     atom:   22    charge:    0.8272    magn:   -0.0020    constr:    0.0000
     atom:   23    charge:    0.8269    magn:   -0.0018    constr:    0.0000
     atom:   24    charge:    0.8272    magn:   -0.0020    constr:    0.0000
     atom:   25    charge:    0.8385    magn:    0.0029    constr:    0.0000
     atom:   26    charge:    0.8389    magn:    0.0026    constr:    0.0000
     atom:   27    charge:    0.8457    magn:    0.0052    constr:    0.0000
     atom:   28    charge:    0.8443    magn:    0.0065    constr:    0.0000
     atom:   29    charge:    0.8436    magn:    0.0045    constr:    0.0000
     atom:   30    charge:    0.8438    magn:    0.0050    constr:    0.0000
     atom:   31    charge:    0.8408    magn:    0.0027    constr:    0.0000
     atom:   32    charge:    0.8441    magn:    0.0039    constr:    0.0000
     atom:   33    charge:    0.8576    magn:    0.0059    constr:    0.0000
     atom:   34    charge:    0.8391    magn:    0.0054    constr:    0.0000
     atom:   35    charge:    0.8510    magn:    0.0069    constr:    0.0000
     atom:   36    charge:    0.8508    magn:    0.0073    constr:    0.0000
     atom:   37    charge:    0.8409    magn:    0.0060    constr:    0.0000
     atom:   38    charge:    0.8404    magn:    0.0063    constr:    0.0000
     atom:   39    charge:    0.8432    magn:    0.0048    constr:    0.0000
     atom:   40    charge:    0.8506    magn:    0.0064    constr:    0.0000
     atom:   41    charge:    0.8446    magn:    0.0044    constr:    0.0000
     atom:   42    charge:    0.8341    magn:    0.0036    constr:    0.0000
     atom:   43    charge:    0.8466    magn:    0.0050    constr:    0.0000
     atom:   44    charge:    0.8449    magn:    0.0058    constr:    0.0000
     atom:   45    charge:    0.8231    magn:   -0.0005    constr:    0.0000
     atom:   46    charge:    0.8272    magn:   -0.0020    constr:    0.0000
     atom:   47    charge:    0.8297    magn:   -0.0010    constr:    0.0000
     atom:   48    charge:    0.8288    magn:   -0.0012    constr:    0.0000
     atom:   49    charge:    0.3943    magn:   -0.0010    constr:    0.0000
     atom:   50    charge:    0.3951    magn:   -0.0010    constr:    0.0000
     atom:   51    charge:    0.3962    magn:   -0.0010    constr:    0.0000
     atom:   52    charge:    0.3977    magn:   -0.0010    constr:    0.0000
     atom:   53    charge:    0.4055    magn:   -0.0011    constr:    0.0000
     atom:   54    charge:    0.4055    magn:   -0.0011    constr:    0.0000
     atom:   55    charge:    0.4026    magn:   -0.0006    constr:    0.0000
     atom:   56    charge:    0.4031    magn:   -0.0006    constr:    0.0000
     atom:   57    charge:    0.4049    magn:   -0.0008    constr:    0.0000
     atom:   58    charge:    0.4036    magn:   -0.0007    constr:    0.0000
     atom:   59    charge:    0.4016    magn:   -0.0007    constr:    0.0000
     atom:   60    charge:    0.4045    magn:   -0.0009    constr:    0.0000
     atom:   61    charge:    0.3935    magn:   -0.0011    constr:    0.0000
     atom:   62    charge:    0.3959    magn:   -0.0010    constr:    0.0000
     atom:   63    charge:    0.3943    magn:   -0.0010    constr:    0.0000
     atom:   64    charge:    0.3951    magn:   -0.0010    constr:    0.0000
     atom:   65    charge:    0.3988    magn:   -0.0006    constr:    0.0000
     atom:   66    charge:    0.4029    magn:   -0.0006    constr:    0.0000
     atom:   67    charge:    0.4026    magn:   -0.0006    constr:    0.0000
     atom:   68    charge:    0.4031    magn:   -0.0006    constr:    0.0000
     atom:   69    charge:    0.4047    magn:   -0.0008    constr:    0.0000
     atom:   70    charge:    0.4035    magn:   -0.0007    constr:    0.0000
     atom:   71    charge:    0.4042    magn:   -0.0008    constr:    0.0000
     atom:   72    charge:    0.4021    magn:   -0.0006    constr:    0.0000
     atom:   73    charge:    0.3835    magn:   -0.0004    constr:    0.0000
     atom:   74    charge:    0.4160    magn:   -0.0003    constr:    0.0000
     atom:   75    charge:    0.3926    magn:   -0.0000    constr:    0.0000
     atom:   76    charge:    0.4159    magn:   -0.0003    constr:    0.0000
     atom:   77    charge:    0.3834    magn:   -0.0004    constr:    0.0000
     atom:   78    charge:    0.4161    magn:   -0.0003    constr:    0.0000
     atom:   79    charge:    0.4183    magn:   -0.0002    constr:    0.0000
     atom:   80    charge:    0.4032    magn:    0.0002    constr:    0.0000
     atom:   81    charge:    2.4537    magn:    0.0119    constr:    0.0000
     atom:   82    charge:    2.4545    magn:    0.0119    constr:    0.0000
     atom:   83    charge:    2.4488    magn:    0.0117    constr:    0.0000
     atom:   84    charge:    2.4501    magn:    0.0120    constr:    0.0000
     atom:   85    charge:    2.4532    magn:    0.0120    constr:    0.0000
     atom:   86    charge:    2.4542    magn:    0.0119    constr:    0.0000
     atom:   87    charge:    2.4534    magn:    0.0135    constr:    0.0000
     atom:   88    charge:    2.4519    magn:    0.0122    constr:    0.0000
     atom:   89    charge:    7.4332    magn:    1.0672    constr:    0.0000
     atom:   90    charge:    7.4397    magn:    1.0679    constr:    0.0000
     atom:   91    charge:    7.4407    magn:    1.0477    constr:    0.0000
     atom:   92    charge:    7.4359    magn:    1.0730    constr:    0.0000
     atom:   93    charge:    2.0242    magn:    0.0364    constr:    0.0000
     atom:   94    charge:    2.0246    magn:    0.0369    constr:    0.0000
     atom:   95    charge:    2.0324    magn:    0.0284    constr:    0.0000
     atom:   96    charge:    2.0241    magn:    0.0375    constr:    0.0000
     atom:   97    charge:    2.0293    magn:    0.0317    constr:    0.0000
     atom:   98    charge:    2.0268    magn:    0.0381    constr:    0.0000
[...]
     0.0660   0.1049   0.1128   0.1993   1.4001   1.4491   1.4682   1.5792
     1.6602   1.6972   1.7384   1.8027   1.8770   2.7529   2.7856   2.8104
     2.8513   2.8746   2.9169   2.9515   2.9631   3.0298   3.0715   3.0985
     4.0529   4.0775   4.2170   4.2661   4.2977   4.4209   4.4275   4.4782
     4.5123   4.6347   4.7117   4.8063   4.9088   5.2198   5.2810   5.3503
     5.4034   5.4729   5.4922   5.5153   5.5950   5.6170   5.6488   5.6923
     5.9950   6.0808   6.2190   6.3537   6.4974   6.5708   6.8186   6.9382
     7.0091   7.0627   7.0814   7.2495   7.4635   7.5498

     the spin up/dw Fermi energies are     1.2627    0.9483 ev

!    total energy              =   -2132.37711443 Ry
     Harris-Foulkes estimate   =   -2132.37711445 Ry
     estimated scf accuracy    <       0.00000004 Ry

     The total energy is the sum of the following terms:

     one-electron contribution =   -2788.26317472 Ry
     hartree contribution      =    1585.39867702 Ry
     xc contribution           =    -602.92203317 Ry
     ewald contribution        =    -328.82705102 Ry
     Dispersion Correction     =      -0.55857541 Ry
     smearing contrib. (-TS)   =       2.79504287 Ry

     total magnetization       =     8.00 Bohr mag/cell
     absolute magnetization    =     8.23 Bohr mag/cell

     convergence has been achieved in  21 iterations

     Forces acting on atoms (cartesian axes, Ry/au):

     atom    1 type  1   force =    -0.00046771   -0.00441281   -0.00290529
     atom    2 type  1   force =     0.00341392   -0.00079794   -0.00039165
     atom    3 type  1   force =     0.01379196    0.00179263    0.00236049
     atom    4 type  1   force =     0.00401464    0.00153332    0.00340218
     atom    5 type  1   force =     0.00109490   -0.00503541    0.00422121
     atom    6 type  1   force =    -0.00308490    0.00075361    0.00160374
     atom    7 type  1   force =     0.00136183    0.00560633    0.00447563
     atom    8 type  1   force =    -0.00308429   -0.00287770    0.00129867
     atom    9 type  1   force =     0.00694115   -0.00426493   -0.00783595
     atom   10 type  1   force =    -0.01300081    0.00311115   -0.00197851
     atom   11 type  1   force =     0.01506114    0.00746513    0.00259815
     atom   12 type  1   force =     0.01143072   -0.00403268   -0.00198114
     atom   13 type  1   force =     0.00954918   -0.00045071    0.00775155
     atom   14 type  1   force =     0.00898145   -0.00373997    0.00452596
     atom   15 type  1   force =     0.00255849   -0.00902249   -0.00988631
     atom   16 type  1   force =    -0.01179616    0.00510902    0.00681208
     atom   17 type  1   force =     0.00023841   -0.00079778    0.00060060
     atom   18 type  1   force =     0.00456474   -0.00235803   -0.00102184
     atom   19 type  1   force =     0.00699160   -0.00336137   -0.00741739
     atom   20 type  1   force =    -0.00876637   -0.00161011    0.00278126
     atom   21 type  1   force =    -0.01227978   -0.00099012   -0.00135416
     atom   22 type  1   force =    -0.00282830    0.00637702    0.00121890
     atom   23 type  1   force =     0.00260234    0.00303740   -0.00103076
     atom   24 type  1   force =     0.00400792   -0.00399255    0.00022550
     atom   25 type  1   force =     0.00115076   -0.00235704   -0.00358642
     atom   26 type  1   force =     0.00242331    0.00068863    0.00061939
     atom   27 type  1   force =     0.01509209    0.00238439    0.00189508
     atom   28 type  1   force =     0.00372945    0.00266584    0.00385922
     atom   29 type  1   force =     0.00224944   -0.00345200    0.00331439
     atom   30 type  1   force =    -0.00341730    0.00163994    0.00229910
     atom   31 type  1   force =    -0.00090274    0.00000151    0.00837517
     atom   32 type  1   force =     0.00321321   -0.00343247    0.00703986
     atom   33 type  1   force =    -0.00695164   -0.01351382   -0.00942408
     atom   34 type  1   force =     0.00172671    0.00556017   -0.01051852
     atom   35 type  1   force =     0.01549463    0.00949945    0.00232777
     atom   36 type  1   force =     0.01063709   -0.00294551   -0.00094829
     atom   37 type  1   force =     0.01014161    0.00153449    0.00742103
     atom   38 type  1   force =     0.00904359   -0.00312494    0.00543894
     atom   39 type  1   force =    -0.00647134   -0.00870721   -0.00026530
     atom   40 type  1   force =     0.00508419    0.00748653   -0.00913885
     atom   41 type  1   force =    -0.00551380    0.00606109    0.01292837
     atom   42 type  1   force =     0.00395114    0.00226057    0.00221665
     atom   43 type  1   force =    -0.00497817   -0.00328914    0.00338628
     atom   44 type  1   force =     0.01334185    0.00626562   -0.00159984
     atom   45 type  1   force =    -0.01052666   -0.00116354   -0.00114726
     atom   46 type  1   force =    -0.00345445    0.00719842    0.00029103
     atom   47 type  1   force =     0.00170070    0.00683675   -0.00187949
     atom   48 type  1   force =     0.00325521   -0.00709979   -0.00423199
     atom   49 type  2   force =     0.00369686   -0.00153011   -0.00258885
     atom   50 type  2   force =    -0.00313284    0.00450481   -0.00403557
     atom   51 type  2   force =     0.00785692   -0.00118500   -0.00405383
     atom   52 type  2   force =     0.00406844    0.00501282    0.00204047
     atom   53 type  2   force =    -0.00084070    0.00051905    0.00204167
     atom   54 type  2   force =    -0.00767192    0.00299867    0.00359953
     atom   55 type  2   force =    -0.00700285   -0.00573243    0.00315968
     atom   56 type  2   force =    -0.00650575    0.00369733    0.00346271
     atom   57 type  2   force =     0.00223008   -0.00326257   -0.00481710
     atom   58 type  2   force =     0.00261962    0.00372917   -0.00664870
     atom   59 type  2   force =    -0.00795550   -0.00291819    0.00153351
     atom   60 type  2   force =    -0.00141774    0.00016128   -0.00151751
     atom   61 type  2   force =    -0.00176762    0.00507802   -0.00099426
     atom   62 type  2   force =     0.00189786   -0.00098466    0.00052286
     atom   63 type  2   force =     0.00199554   -0.00274231   -0.00199710
     atom   64 type  2   force =    -0.00328427    0.00450298   -0.00421977
     atom   65 type  2   force =     0.00389344    0.00252352   -0.00072497
     atom   66 type  2   force =     0.00432757   -0.01160913   -0.00159140
     atom   67 type  2   force =    -0.00539025   -0.00456842    0.00331778
     atom   68 type  2   force =    -0.00595348    0.00291892    0.00282818
     atom   69 type  2   force =     0.00294619   -0.00210509   -0.00595775
     atom   70 type  2   force =     0.00290145    0.00412694   -0.00582913
     atom   71 type  2   force =    -0.00218838    0.00602554   -0.00494261
     atom   72 type  2   force =    -0.01448665   -0.00149027   -0.00161571
     atom   73 type  2   force =    -0.00686805   -0.00289567    0.00302296
     atom   74 type  2   force =    -0.01394962   -0.00164903   -0.00226641
     atom   75 type  2   force =    -0.00868923   -0.00353265    0.00716862
     atom   76 type  2   force =     0.01320795    0.00254464    0.00057289
     atom   77 type  2   force =    -0.00705418   -0.00315121    0.00316841
     atom   78 type  2   force =    -0.01433837   -0.00175364   -0.00283145
     atom   79 type  2   force =     0.01037621    0.00475158    0.00003406
     atom   80 type  2   force =    -0.00925484    0.00166720    0.00800116
     atom   81 type  3   force =    -0.00668297   -0.00781907    0.00401716
     atom   82 type  3   force =    -0.00295374    0.00487209    0.00723334
     atom   83 type  3   force =     0.00712825    0.00631290    0.00563249
     atom   84 type  3   force =     0.00201274   -0.00599653    0.00704855
     atom   85 type  3   force =    -0.00608026   -0.00690972    0.00416731
     atom   86 type  3   force =    -0.00326921    0.00604770    0.00873612
     atom   87 type  3   force =     0.00040752    0.00361330    0.00856053
     atom   88 type  3   force =     0.00386303   -0.01057353    0.00358723
     atom   89 type  4   force =     0.00393898    0.00240549   -0.00382254
     atom   90 type  4   force =     0.00139281    0.00159196    0.00368706
     atom   91 type  4   force =     0.00269339   -0.00280811    0.00467484
     atom   92 type  4   force =    -0.00095979    0.00001545   -0.00470787
     atom   93 type  5   force =     0.00122027   -0.00158220   -0.00411199
     atom   94 type  5   force =     0.00106144    0.00108264   -0.00158078
     atom   95 type  5   force =    -0.00229165   -0.00297928    0.00470615
     atom   96 type  5   force =    -0.00342963    0.00031420   -0.00064451
     atom   97 type  5   force =     0.00431433    0.00186536    0.00084210
     atom   98 type  5   force =     0.00123063   -0.00455597    0.00245243
     atom   99 type  5   force =     0.00434649   -0.00415867   -0.00210076
     atom  100 type  5   force =    -0.00408196    0.00545389    0.00227242
     atom  101 type  5   force =     0.00825147    0.00551706   -0.00626454
     atom  102 type  5   force =     0.00315726   -0.00387429   -0.00581062
     atom  103 type  5   force =    -0.00216978   -0.00324710    0.00372064
     atom  104 type  5   force =    -0.00159793   -0.00007826   -0.00089480
     atom  105 type  5   force =     0.00007842    0.00051531    0.00082532
     atom  106 type  5   force =     0.00547631   -0.00154050   -0.00810926
     atom  107 type  5   force =     0.00425075   -0.00356369   -0.00243503
     atom  108 type  5   force =    -0.00266676    0.00621709    0.00166879
     atom  109 type  5   force =    -0.01694395   -0.00302849   -0.00523152
     atom  110 type  5   force =    -0.00458881    0.00489700   -0.00697178
     atom  111 type  5   force =    -0.00819972    0.00131493   -0.00460197
     atom  112 type  5   force =     0.01105389    0.00263675   -0.00826275
     atom  113 type  5   force =    -0.01551995   -0.00393592    0.01122021
     atom  114 type  5   force =    -0.00075939    0.00202538   -0.00485441
     atom  115 type  5   force =     0.00550008   -0.00109628   -0.00506842
     atom  116 type  5   force =    -0.01094320   -0.00534711   -0.00737885
     atom  117 type  5   force =    -0.01570459   -0.00156603   -0.00606070
     atom  118 type  5   force =    -0.00511084    0.00525111   -0.00705750
     atom  119 type  5   force =    -0.00837176    0.00205620   -0.00340525
     atom  120 type  5   force =     0.01015342    0.00280846   -0.00835274
     atom  121 type  5   force =     0.00457952   -0.00011031   -0.00609001
     atom  122 type  5   force =     0.00218552    0.00851936   -0.00603491
     atom  123 type  5   force =    -0.00415361    0.01423693    0.00389788
     atom  124 type  5   force =     0.00260216   -0.01649056    0.01631543

     Total force =     0.110758     Total SCF correction =     0.000494

     number of scf cycles    =   9
     number of bfgs steps    =   8

     energy   old            =   -2132.3619116879 Ry
     energy   new            =   -2132.3771144312 Ry

     CASE: energy  _new < energy  _old

     new trust radius        =       0.2007561524 bohr
     new conv_thr            =       0.0000001694 Ry


ATOMIC_POSITIONS (crystal)
C             0.2878251345        0.9651229200        0.5259893089
C             0.0380002187        0.0330491589        0.0232506898
C             0.3901632431        0.0099254898        0.5448100447
C             0.1405832907        0.9858048058        0.0455814523
C             0.4511413257        0.9654062724        0.6453272626
C             0.2026792894        0.0320682353        0.1448298034
C             0.2088549870        0.5280924037        0.5255377948
C             0.4567075282        0.4676199053        0.0292102193
C             0.2428777986        0.6114872402        0.6072941544
C             0.4932806348        0.3833169718        0.1103609026
C             0.2478259212        0.8837997380        0.6061729531
C            -0.0004998553        0.1135285202        0.1066410185
C             0.4097893495        0.8815276721        0.7207713225
C             0.1624800365        0.1173418912        0.2191676085
C             0.0865736227        0.6069441327        0.7270859890
C             0.3383626135        0.3908305178        0.2297148535
C             0.0491984176        0.5229029007        0.6459143055
C             0.2972105908        0.4749170889        0.1525206747
C             0.1110028655        0.4807832271        0.5447040381
C             0.3566985119        0.5175977673        0.0521671426
C             0.4293560277        0.0986020970        0.4658607078
C             0.1826751782        0.8962681273        0.9683581465
C             0.0720169969        0.3907713179        0.4662941430
C             0.3138342511        0.6055568707        0.9715547378
C             0.7884084254        0.9659039999        0.5251789759
C             0.5375953727        0.0335696173        0.0233598168
C             0.8908661129        0.0109150185        0.5441594318
C             0.6399427686        0.9867996622        0.0465006312
C             0.9517534382        0.9661198180        0.6445621005
C             0.7027431685        0.0324896710        0.1452535135
C             0.7118924575        0.5244840712        0.5327358872
C             0.9597979639        0.4754115789        0.0288701114
C             0.7440421532        0.6179773854        0.6072121166
C             0.9936767337        0.3899989693        0.1080424812
C             0.7482596927        0.8848149008        0.6055713137
C             0.4993501320        0.1138310930        0.1069681371
C             0.9106412752        0.8824774059        0.7202455278
C             0.6626201677        0.1175936038        0.2195940776
C             0.5844995058        0.6181835943        0.7211353392
C             0.8324862661        0.3852455145        0.2192696068
C             0.5458584070        0.5305978111        0.6488009061
C             0.7972053420        0.4738258960        0.1438397341
C             0.6087315187        0.4793051617        0.5585885217
C             0.8606172757        0.5214067848        0.0482516398
C             0.9309829618        0.0997204530        0.4653682131
C             0.6815830473        0.8981616499        0.9689602863
C             0.5677729061        0.3859527706        0.4870050667
C             0.8204619324        0.6157536090        0.9767986391
H             0.0308001476        0.9953885593        0.6695126702
H             0.2822796680        1.0027299221        0.1707895781
H             0.2606332001        0.5002894753        0.4492923931
H             0.0138665094        0.5045018510        0.9559432917
H             0.3193809554        0.6494914489        0.5967887731
H             0.0723515638        0.3547081058        0.0997951657
H             0.1666073887        0.8553157666        0.5904983813
H             0.4196755305        0.1441170591        0.0890380231
H             0.4555858122        0.8475428479        0.8001887931
H             0.2082718344        0.1536360356        0.2977840832
H             0.0393709464        0.6391938401        0.8051675016
H             0.2950372094        0.3574590150        0.3094762604
H             0.4674914589        0.4994837697        0.6702127446
H             0.2178588925        0.5053976539        0.1740166928
H             0.5303345788        0.9950194089        0.6696640145
H             0.7823359570        1.0028152307        0.1706945916
H             0.8179316142        0.6574776780        0.5825088832
H             0.5699688253        0.3491877736        0.0904310015
H             0.6670639065        0.8559325551        0.5907439606
H             0.9198756339        0.1441331081        0.0888623427
H             0.9555898523        0.8479446915        0.8000459182
H             0.7081437681        0.1538758576        0.2983032079
H             0.5406219869        0.6502068600        0.8018842723
H             0.7886176839        0.3542795026        0.3005376655
H             0.0858444285        0.0277258932        0.4284268068
H             0.8826989694        0.0740690920        0.8145995661
H             0.8401631709        0.5437253362        0.7285669810
H             0.6093091703        0.4299812905        0.8227587562
H             0.5858072452        0.0273520684        0.4283579375
H             0.3823458812        0.0733160850        0.8142368839
H             0.8554549400        0.5780379513        0.3298223290
H             0.6348119699        0.5279568787        0.3167718780
N             0.3089208535        0.8444345156        0.7026487153
N             0.0610071162        0.1532391587        0.2022758693
N             0.1831946495        0.6483977095        0.7062578477
N             0.4363178865        0.3484720188        0.2095634321
N             0.8095671724        0.8463469772        0.7023573544
N             0.5611011389        0.1531585529        0.2027585703
N             0.6828898113        0.6584012591        0.7007480432
N             0.9316205385        0.3484213418        0.2020400787
Ni            0.2460158973        0.7500726476        0.8365859560
Ni            0.4999578684        0.2476271227        0.3400463079
Ni            0.7492479660        0.7542606478        0.8368527038
Ni            0.9991203583        0.2483934862        0.3363607632
O             0.1268148989        0.3472186430        0.3760894610
O             0.3691603200        0.6528430838        0.8845680904
O             0.3734221654        0.1535530188        0.3845812776
O             0.1278841026        0.8512064592        0.8753797990
O             0.4685407178        0.3596867096        0.4841793228
O             0.2175725269        0.6405673726        0.9804548424
O             0.0310415893        0.1281909992        0.4738754811
O             0.2765865044        0.8570625685        0.9856154277
O             0.6270163869        0.3273895726        0.4151265583
O             0.8810765694        0.6711762298        0.9028650210
O             0.8749538446        0.1547886881        0.3842383031
O             0.6271890328        0.8534197496        0.8758578312
O             0.9791966806        0.3485089442        0.4804502682
O             0.7222080687        0.6463823320        0.9748103429
O             0.5291918379        0.1277053517        0.4752206467
O             0.7760258378        0.8604674042        0.9866624154
O             0.2314366142        0.0051292331        0.4271177119
O             0.1278247688        0.9576632281        0.4192467654
O             0.9809067800        1.0041348855        0.9196746574
O             0.8778255288        0.0657119926        0.9096600424
O             0.9538047101        0.4786392260        0.6536587638
O             0.8999869505        0.5043339958        0.7711896983
O             0.5131746726        0.4986657835        0.9293033797
O             0.6158280791        0.4344997658        0.9185898514
O             0.7316230003        0.0056236121        0.4266062924
O             0.6279744890        0.9576305662        0.4192316046
O             0.4809667851        1.0041189718        0.9198253888
O             0.3771409378        0.0663405148        0.9094058396
O             0.7720304412        0.4822383450        0.4497121439
O             0.8885612088        0.5777541244        0.4165795127
O             0.7141632499        0.5363823001        0.1688570742
O             0.6289787397        0.4879159666        0.2349398450



     Writing output data file ./QE_relaxation_results/pbesol_relax/NiPyC2_relax_sc211_meta_functionalized_O-OH_pbesol_relax.save/
     NEW-OLD atomic charge density approx. for the potential

     Check: negative core charge=   -0.000145

     total cpu time spent up to now is     6732.9 secs

     Self-consistent Calculation

     iteration #  1     ecut=   100.00 Ry     beta= 0.70
     Davidson diagonalization with overlap
