/apps/openmpi/3.1_intel-19/bin/mpiexec
/apps/qe/6.5/bin/pw.x
starting QE Sat Aug 1 12:09:49 PDT 2020

     Program PWSCF v.6.5 starts on  1Aug2020 at 12: 9:52 

     This program is part of the open-source Quantum ESPRESSO suite
     for quantum simulation of materials; please cite
         "P. Giannozzi et al., J. Phys.:Condens. Matter 21 395502 (2009);
         "P. Giannozzi et al., J. Phys.:Condens. Matter 29 465901 (2017);
          URL http://www.quantum-espresso.org", 
     in publications or presentations arising from this work. More details at
     http://www.quantum-espresso.org/quote

     Parallel version (MPI & OpenMP), running on      16 processor cores
     Number of MPI processes:                16
     Threads/MPI process:                     1

     MPI processes distributed on     1 nodes
     K-points division:     npool     =       2
     R & G space division:  proc/nbgrp/npool/nimage =       8
     Reading input from ./QE_input_scripts/pw.NiPyC2_relax_sc211_ortho_functionalized_CH-O_pbesol_relax.in
Warning: card &CELL ignored
Warning: card    CELL_DYNAMICS = 'BFGS' ignored
Warning: card    CELL_DOFREE = 'XYZ' ignored
Warning: card / ignored

     Current dimensions of program PWSCF are:
     Max number of different atomic species (ntypx) = 10
     Max number of k-points (npk) =  40000
     Max angular momentum in pseudopotentials (lmaxx) =  3

     -------------------------------------------------
     Parameters for Dispersion (Grimme-D2) Correction:
     -------------------------------------------------
       atom      VdW radius       C_6     

        C          2.744         60.710
        H          1.892          4.857
        N          2.640         42.670
        Ni         2.952        374.666
        O          2.536         24.284

     gamma-point specific algorithms are used

     Subspace diagonalization in iterative solution of the eigenvalue problem:
     a serial algorithm will be used

 
     Parallelization info
     --------------------
     sticks:   dense  smooth     PW     G-vecs:    dense   smooth      PW
     Min        2228    2228    556               183376   183376   22914
     Max        2230    2230    558               183380   183380   22917
     Sum       17829   17829   4453              1467017  1467017  183325
 


     bravais-lattice index     =            0
     lattice parameter (alat)  =      23.6322  a.u.
     unit-cell volume          =   10858.6228 (a.u.)^3
     number of atoms/cell      =          124
     number of atomic types    =            5
     number of electrons       =       480.00 (up: 244.00, down: 236.00)
     number of Kohn-Sham states=          293
     kinetic-energy cutoff     =     100.0000  Ry
     charge density cutoff     =     400.0000  Ry
     convergence threshold     =      1.0E-06
     mixing beta               =       0.7000
     number of iterations used =            8  local-TF  mixing
     Exchange-correlation= PBESOL
                           (   1   4  10   8   0   0   0)
     nstep                     =          200


     celldm(1)=  23.632159  celldm(2)=   0.000000  celldm(3)=   0.000000
     celldm(4)=   0.000000  celldm(5)=   0.000000  celldm(6)=   0.000000

     crystal axes: (cart. coord. in units of alat)
               a(1) = (   1.000000   0.000000   0.000000 )  
               a(2) = (   0.000000   1.001423   0.000000 )  
               a(3) = (  -0.018199   0.000000   0.821574 )  

     reciprocal axes: (cart. coord. in units 2 pi/alat)
               b(1) = (  1.000000  0.000000  0.022152 )  
               b(2) = (  0.000000  0.998579  0.000000 )  
               b(3) = (  0.000000  0.000000  1.217175 )  


     PseudoPot. # 1 for C  read from file:
     ./pseudo/C.pbesol-nc.UPF
     MD5 check sum: ce26087537ded160c8d400e183a8bf42
     Pseudo is Norm-conserving, Zval =  4.0
     Generated using "atomic" code by A. Dal Corso v.6.5
     Using radial grid of 1073 points,  1 beta functions with: 
                l(1) =   1

     PseudoPot. # 2 for H  read from file:
     ./pseudo/H.pbesol-n-nc.UPF
     MD5 check sum: 7995ef24074557c85b430109caaacc09
     Pseudo is Norm-conserving, Zval =  1.0
     Generated using "atomic" code by A. Dal Corso v.6.5
     Using radial grid of  929 points,  0 beta functions with: 

     PseudoPot. # 3 for N  read from file:
     ./pseudo/N.pbesol-nc.UPF
     MD5 check sum: e18cc5e4b8a5600c1a19b30c2cab1ca0
     Pseudo is Norm-conserving, Zval =  5.0
     Generated using "atomic" code by A. Dal Corso v.6.5
     Using radial grid of 1085 points,  1 beta functions with: 
                l(1) =   1

     PseudoPot. # 4 for Ni read from file:
     ./pseudo/Ni.pbesol-n-nc.UPF
     MD5 check sum: 623411631e0c2eb7c0b2b9815547d2d9
     Pseudo is Norm-conserving + core correction, Zval = 10.0
     Generated using "atomic" code by A. Dal Corso v.6.5
     Using radial grid of 1195 points,  2 beta functions with: 
                l(1) =   1
                l(2) =   2

     PseudoPot. # 5 for O  read from file:
     ./pseudo/O.pbesol-nc.UPF
     MD5 check sum: 73d10e7e91dbfcbe8a7e362101007f84
     Pseudo is Norm-conserving, Zval =  6.0
     Generated using "atomic" code by A. Dal Corso v.6.5
     Using radial grid of 1095 points,  1 beta functions with: 
                l(1) =   1

     atomic species   valence    mass     pseudopotential
        C              4.00    12.01070     C ( 1.00)
        H              1.00     1.00794     H ( 1.00)
        N              5.00    14.00670     N ( 1.00)
        Ni            10.00    58.69340     Ni( 1.00)
        O              6.00    15.99940     O ( 1.00)

     Starting magnetic structure 
     atomic species   magnetization
        C            0.000
        H            0.000
        N            0.000
        Ni           0.250
        O            0.000

     No symmetry found



   Cartesian axes

     site n.     atom                  positions (alat units)
         1           C   tau(   1) = (   0.2787122   0.9714307   0.4288486  )
         2           C   tau(   2) = (   0.0379730   0.0311503   0.0183277  )
         3           C   tau(   3) = (   0.3806882   0.0117868   0.4489838  )
         4           C   tau(   4) = (   0.1394042   0.9891499   0.0379124  )
         5           C   tau(   5) = (   0.4400787   0.9715829   0.5343281  )
         6           C   tau(   6) = (   0.1997920   0.0283934   0.1231482  )
         7           C   tau(   7) = (   0.1986011   0.5304580   0.4324635  )
         8           C   tau(   8) = (   0.4580372   0.4720800   0.0229252  )
         9           C   tau(   9) = (   0.2341003   0.6142040   0.4982314  )
        10           C   tau(  10) = (   0.4948422   0.3892302   0.0892369  )
        11           C   tau(  11) = (   0.2384981   0.8904717   0.4955761  )
        12           C   tau(  12) = (  -0.0008282   0.1123917   0.0856467  )
        13           C   tau(  13) = (   0.3947360   0.8906489   0.5977380  )
        14           C   tau(  14) = (   0.1557890   0.1097029   0.1871645  )
        15           C   tau(  15) = (   0.0756247   0.6098498   0.5975737  )
        16           C   tau(  16) = (   0.3367152   0.3921904   0.1884642  )
        17           C   tau(  17) = (   0.0350715   0.5258264   0.5351012  )
        18           C   tau(  18) = (   0.2948780   0.4753867   0.1254988  )
        19           C   tau(  19) = (   0.0981522   0.4849593   0.4519611  )
        20           C   tau(  20) = (   0.3569104   0.5163900   0.0416029  )
        21           C   tau(  21) = (   0.4248178   0.0994604   0.3833638  )
        22           C   tau(  22) = (   0.1639424   0.9010006   0.7933713  )
        23           C   tau(  23) = (   0.0588120   0.3950355   0.3866953  )
        24           C   tau(  24) = (   0.2984059   0.6050320   0.7961934  )
        25           C   tau(  25) = (   0.7787122   0.9714307   0.4288486  )
        26           C   tau(  26) = (   0.5379730   0.0311503   0.0183277  )
        27           C   tau(  27) = (   0.8806882   0.0117868   0.4489838  )
        28           C   tau(  28) = (   0.6394042   0.9891499   0.0379124  )
        29           C   tau(  29) = (   0.9400787   0.9715829   0.5343281  )
        30           C   tau(  30) = (   0.6997920   0.0283934   0.1231482  )
        31           C   tau(  31) = (   0.6986021   0.5304580   0.4324635  )
        32           C   tau(  32) = (   0.9580382   0.4720800   0.0229252  )
        33           C   tau(  33) = (   0.7341003   0.6142040   0.4982314  )
        34           C   tau(  34) = (   0.9948422   0.3892302   0.0892369  )
        35           C   tau(  35) = (   0.7384981   0.8904717   0.4955761  )
        36           C   tau(  36) = (   0.4991718   0.1123917   0.0856467  )
        37           C   tau(  37) = (   0.8947360   0.8906489   0.5977380  )
        38           C   tau(  38) = (   0.6557880   0.1097029   0.1871645  )
        39           C   tau(  39) = (   0.5756247   0.6098498   0.5975737  )
        40           C   tau(  40) = (   0.8367152   0.3921904   0.1884642  )
        41           C   tau(  41) = (   0.5350715   0.5258264   0.5351012  )
        42           C   tau(  42) = (   0.7948780   0.4753867   0.1254988  )
        43           C   tau(  43) = (   0.5981522   0.4849593   0.4519611  )
        44           C   tau(  44) = (   0.8569104   0.5163900   0.0416029  )
        45           C   tau(  45) = (   0.9248178   0.0994604   0.3833638  )
        46           C   tau(  46) = (   0.6639424   0.9010006   0.7933713  )
        47           C   tau(  47) = (   0.5588110   0.3950355   0.3866953  )
        48           C   tau(  48) = (   0.7984059   0.6050320   0.7961934  )
        49           C   tau(  49) = (   0.4553681   0.8408171   0.6921262  )
        50           C   tau(  50) = (   0.2176556   0.1585133   0.2812594  )
        51           C   tau(  51) = (   0.3426653   0.6684541   0.4817079  )
        52           C   tau(  52) = (   0.2729839   0.3427582   0.2809735  )
        53           C   tau(  53) = (   0.9553681   0.8408171   0.6921262  )
        54           C   tau(  54) = (   0.7176546   0.1585133   0.2812602  )
        55           C   tau(  55) = (   0.5111864   0.6594904   0.6893172  )
        56           C   tau(  56) = (   0.1044628   0.3369019   0.0731390  )
        57           H   tau(  57) = (   0.2290596   1.0009978   0.3640502  )
        58           H   tau(  58) = (   0.4693669   0.0026958   0.7751545  )
        59           H   tau(  59) = (   0.0198054   1.0002267   0.5533467  )
        60           H   tau(  60) = (   0.2791988   1.0000865   0.1418054  )
        61           H   tau(  61) = (   0.2505234   0.5016080   0.3691185  )
        62           H   tau(  62) = (  -0.0086584   0.5011092   0.7809458  )
        63           H   tau(  63) = (   0.1594426   0.8563401   0.4835457  )
        64           H   tau(  64) = (   0.4206861   0.1479423   0.0738480  )
        65           H   tau(  65) = (   0.0290492   0.6438591   0.6626884  )
        66           H   tau(  66) = (   0.4564147   0.4939330   0.5533319  )
        67           H   tau(  67) = (   0.2157623   0.5059201   0.1439924  )
        68           H   tau(  68) = (   0.7290596   1.0009978   0.3640502  )
        69           H   tau(  69) = (   0.9693669   0.0026958   0.7751545  )
        70           H   tau(  70) = (   0.5198044   1.0002267   0.5533467  )
        71           H   tau(  71) = (   0.7791988   1.0000865   0.1418054  )
        72           H   tau(  72) = (   0.7505234   0.5016080   0.3691185  )
        73           H   tau(  73) = (   0.4913416   0.5011092   0.7809458  )
        74           H   tau(  74) = (   0.8118554   0.6514319   0.4868937  )
        75           H   tau(  75) = (   0.5732386   0.3533532   0.0780726  )
        76           H   tau(  76) = (   0.6594426   0.8563401   0.4835457  )
        77           H   tau(  77) = (   0.9206861   0.1479423   0.0738480  )
        78           H   tau(  78) = (   0.7907535   0.3580349   0.2539083  )
        79           H   tau(  79) = (   0.9564147   0.4939330   0.5533319  )
        80           H   tau(  80) = (   0.7157623   0.5059201   0.1439924  )
        81           H   tau(  81) = (   0.5346044   0.8644427   0.7148682  )
        82           H   tau(  82) = (   0.2967707   0.1339083   0.3033762  )
        83           H   tau(  83) = (   0.3974150   0.6459842   0.4196486  )
        84           H   tau(  84) = (   0.1940689   0.3683445   0.3026877  )
        85           H   tau(  85) = (   0.0346044   0.8644427   0.7148682  )
        86           H   tau(  86) = (   0.7967696   0.1339073   0.3033770  )
        87           H   tau(  87) = (   0.4324204   0.6333742   0.7109411  )
        88           H   tau(  88) = (   0.1589292   0.3600948   0.0110970  )
        89           N   tau(  89) = (   0.2956096   0.8524646   0.5790685  )
        90           N   tau(  90) = (   0.0569790   0.1490689   0.1692870  )
        91           N   tau(  91) = (   0.1736962   0.6512356   0.5798983  )
        92           N   tau(  92) = (   0.4350238   0.3514275   0.1709211  )
        93           N   tau(  93) = (   0.7956096   0.8524646   0.5790685  )
        94           N   tau(  94) = (   0.5569790   0.1490689   0.1692870  )
        95           N   tau(  95) = (   0.6736972   0.6512356   0.5798983  )
        96           N   tau(  96) = (   0.9350238   0.3514275   0.1709211  )
        97           Ni  tau(  97) = (   0.2317814   0.7525556   0.6871039  )
        98           Ni  tau(  98) = (   0.4937992   0.2483520   0.2786599  )
        99           Ni  tau(  99) = (   0.7317814   0.7525556   0.6871039  )
       100           Ni  tau( 100) = (   0.9937992   0.2483520   0.2786599  )
       101           O   tau( 101) = (   0.1158100   0.3481839   0.3145586  )
       102           O   tau( 102) = (   0.3551690   0.6519036   0.7240468  )
       103           O   tau( 103) = (   0.3707656   0.1477170   0.3098797  )
       104           O   tau( 104) = (   0.1091506   0.8535652   0.7199135  )
       105           O   tau( 105) = (   0.4642788   0.3566669   0.3968154  )
       106           O   tau( 106) = (   0.2033039   0.6423280   0.8050417  )
       107           O   tau( 107) = (   0.0200847   0.1353504   0.3952413  )
       108           O   tau( 108) = (   0.2588616   0.8639860   0.8046490  )
       109           O   tau( 109) = (   0.6158110   0.3481839   0.3145586  )
       110           O   tau( 110) = (   0.8551690   0.6519036   0.7240468  )
       111           O   tau( 111) = (   0.8707656   0.1477170   0.3098797  )
       112           O   tau( 112) = (   0.6091506   0.8535652   0.7199135  )
       113           O   tau( 113) = (   0.9642788   0.3566669   0.3968154  )
       114           O   tau( 114) = (   0.7033039   0.6423280   0.8050417  )
       115           O   tau( 115) = (   0.5200847   0.1353504   0.3952413  )
       116           O   tau( 116) = (   0.7588616   0.8639860   0.8046490  )
       117           O   tau( 117) = (   0.4131247   0.7706003   0.7453239  )
       118           O   tau( 118) = (   0.1765929   0.2290446   0.3349649  )
       119           O   tau( 119) = (   0.3702712   0.7410793   0.5409393  )
       120           O   tau( 120) = (   0.3122155   0.2705485   0.3338089  )
       121           O   tau( 121) = (   0.9131247   0.7706003   0.7453239  )
       122           O   tau( 122) = (   0.6765919   0.2290435   0.3349657  )
       123           O   tau( 123) = (   0.5495465   0.7325121   0.7416762  )
       124           O   tau( 124) = (   0.1332564   0.2650487   0.1327459  )

     number of k points=     1  Marzari-Vanderbilt smearing, width (Ry)=  0.2000
                       cart. coord. in units 2pi/alat
        k(    1) = (   0.0000000   0.0000000   0.0000000), wk =   1.0000000

     Dense  grid:   733509 G-vectors     FFT dimensions: ( 160, 160, 125)

     Estimated max dynamical RAM per process >     670.34 MB

     Estimated total dynamical RAM >      10.47 GB
     Generating pointlists ...
     new r_m :   0.0354 (alat units)  0.8360 (a.u.) for type    1
     new r_m :   0.0311 (alat units)  0.7360 (a.u.) for type    2
     new r_m :   0.0445 (alat units)  1.0514 (a.u.) for type    3
     new r_m :   0.0654 (alat units)  1.5454 (a.u.) for type    4
     new r_m :   0.0311 (alat units)  0.7360 (a.u.) for type    5

     Check: negative core charge=   -0.000145

     Initial potential from superposition of free atoms

     starting charge  479.99635, renormalised to  480.00000
     Starting wfcs are  420 randomized atomic wfcs

     total cpu time spent up to now is       95.6 secs

     Self-consistent Calculation

     iteration #  1     ecut=   100.00 Ry     beta= 0.70
     Davidson diagonalization with overlap
     ethr =  1.00E-02,  avg # of iterations =  4.5

     total cpu time spent up to now is      346.9 secs

     total energy              =   -1963.54848841 Ry
     Harris-Foulkes estimate   =   -1970.47103868 Ry
     estimated scf accuracy    <      17.80799013 Ry

     total magnetization       =     8.00 Bohr mag/cell
     absolute magnetization    =     8.42 Bohr mag/cell

     iteration #  2     ecut=   100.00 Ry     beta= 0.70
     Davidson diagonalization with overlap
     ethr =  3.71E-03,  avg # of iterations =  2.0

     total cpu time spent up to now is      498.7 secs

     total energy              =   -1965.31401018 Ry
     Harris-Foulkes estimate   =   -1968.49814291 Ry
     estimated scf accuracy    <      16.33123858 Ry

     total magnetization       =     8.00 Bohr mag/cell
     absolute magnetization    =     8.50 Bohr mag/cell

     iteration #  3     ecut=   100.00 Ry     beta= 0.70
     Davidson diagonalization with overlap
     ethr =  3.40E-03,  avg # of iterations =  1.0

     total cpu time spent up to now is      637.5 secs

     total energy              =   -1965.73563966 Ry
     Harris-Foulkes estimate   =   -1966.29201710 Ry
     estimated scf accuracy    <       1.45754251 Ry

     total magnetization       =     8.00 Bohr mag/cell
     absolute magnetization    =     8.15 Bohr mag/cell

     iteration #  4     ecut=   100.00 Ry     beta= 0.70
     Davidson diagonalization with overlap
     ethr =  3.04E-04,  avg # of iterations =  7.0

     total cpu time spent up to now is      829.6 secs

     total energy              =   -1965.71400471 Ry
     Harris-Foulkes estimate   =   -1965.88383800 Ry
     estimated scf accuracy    <       0.86462382 Ry

     total magnetization       =     8.00 Bohr mag/cell
     absolute magnetization    =     8.17 Bohr mag/cell

     iteration #  5     ecut=   100.00 Ry     beta= 0.70
     Davidson diagonalization with overlap
     ethr =  1.80E-04,  avg # of iterations =  2.0

     total cpu time spent up to now is      973.6 secs

     total energy              =   -1965.70296481 Ry
     Harris-Foulkes estimate   =   -1965.88653814 Ry
     estimated scf accuracy    <       2.29186063 Ry

     total magnetization       =     8.00 Bohr mag/cell
     absolute magnetization    =     8.18 Bohr mag/cell

     iteration #  6     ecut=   100.00 Ry     beta= 0.70
     Davidson diagonalization with overlap
     ethr =  1.80E-04,  avg # of iterations =  1.0

     total cpu time spent up to now is     1113.5 secs

     total energy              =   -1965.72767057 Ry
     Harris-Foulkes estimate   =   -1965.79380571 Ry
     estimated scf accuracy    <       0.55331462 Ry

     total magnetization       =     8.00 Bohr mag/cell
     absolute magnetization    =     8.17 Bohr mag/cell

     iteration #  7     ecut=   100.00 Ry     beta= 0.70
     Davidson diagonalization with overlap
     ethr =  1.15E-04,  avg # of iterations =  1.0

     total cpu time spent up to now is     1260.2 secs

     total energy              =   -1965.73034492 Ry
     Harris-Foulkes estimate   =   -1965.75767562 Ry
     estimated scf accuracy    <       0.14865751 Ry

     total magnetization       =     8.00 Bohr mag/cell
     absolute magnetization    =     8.17 Bohr mag/cell

     iteration #  8     ecut=   100.00 Ry     beta= 0.70
     Davidson diagonalization with overlap
     ethr =  3.10E-05,  avg # of iterations =  4.0

     total cpu time spent up to now is     1412.7 secs

     total energy              =   -1965.71843107 Ry
     Harris-Foulkes estimate   =   -1965.75328772 Ry
     estimated scf accuracy    <       0.40326611 Ry

     total magnetization       =     8.00 Bohr mag/cell
     absolute magnetization    =     8.17 Bohr mag/cell

     iteration #  9     ecut=   100.00 Ry     beta= 0.70
     Davidson diagonalization with overlap
     ethr =  3.10E-05,  avg # of iterations =  1.0

     total cpu time spent up to now is     1556.4 secs

     total energy              =   -1965.73400073 Ry
     Harris-Foulkes estimate   =   -1965.73429254 Ry
     estimated scf accuracy    <       0.03449935 Ry

     total magnetization       =     8.00 Bohr mag/cell
     absolute magnetization    =     8.17 Bohr mag/cell

     iteration # 10     ecut=   100.00 Ry     beta= 0.70
     Davidson diagonalization with overlap
     ethr =  7.19E-06,  avg # of iterations =  6.0

     total cpu time spent up to now is     1721.8 secs

     total energy              =   -1965.73781826 Ry
     Harris-Foulkes estimate   =   -1965.73541186 Ry
     estimated scf accuracy    <       0.01607097 Ry

     total magnetization       =     8.00 Bohr mag/cell
     absolute magnetization    =     8.16 Bohr mag/cell

     iteration # 11     ecut=   100.00 Ry     beta= 0.70
     Davidson diagonalization with overlap
     ethr =  3.35E-06,  avg # of iterations =  3.0

     total cpu time spent up to now is     1876.6 secs

     total energy              =   -1965.73996941 Ry
     Harris-Foulkes estimate   =   -1965.73847311 Ry
     estimated scf accuracy    <       0.00830744 Ry

     total magnetization       =     8.00 Bohr mag/cell
     absolute magnetization    =     8.16 Bohr mag/cell

     iteration # 12     ecut=   100.00 Ry     beta= 0.70
     Davidson diagonalization with overlap
     ethr =  1.73E-06,  avg # of iterations =  4.0

     total cpu time spent up to now is     2033.6 secs

     total energy              =   -1965.74058924 Ry
     Harris-Foulkes estimate   =   -1965.74050733 Ry
     estimated scf accuracy    <       0.00481003 Ry

     total magnetization       =     8.00 Bohr mag/cell
     absolute magnetization    =     8.16 Bohr mag/cell

     iteration # 13     ecut=   100.00 Ry     beta= 0.70
     Davidson diagonalization with overlap
     ethr =  1.00E-06,  avg # of iterations =  2.0

     total cpu time spent up to now is     2178.7 secs

     total energy              =   -1965.74142943 Ry
     Harris-Foulkes estimate   =   -1965.74113452 Ry
     estimated scf accuracy    <       0.00625164 Ry

     total magnetization       =     8.00 Bohr mag/cell
     absolute magnetization    =     8.16 Bohr mag/cell

     iteration # 14     ecut=   100.00 Ry     beta= 0.70
     Davidson diagonalization with overlap
     ethr =  1.00E-06,  avg # of iterations =  3.0

     total cpu time spent up to now is     2325.6 secs

     total energy              =   -1965.74199367 Ry
     Harris-Foulkes estimate   =   -1965.74165986 Ry
     estimated scf accuracy    <       0.00044540 Ry

     total magnetization       =     8.00 Bohr mag/cell
     absolute magnetization    =     8.16 Bohr mag/cell

     iteration # 15     ecut=   100.00 Ry     beta= 0.70
     Davidson diagonalization with overlap
     ethr =  9.28E-08,  avg # of iterations =  5.0

     total cpu time spent up to now is     2491.4 secs

     total energy              =   -1965.74205741 Ry
     Harris-Foulkes estimate   =   -1965.74202425 Ry
     estimated scf accuracy    <       0.00014271 Ry

     total magnetization       =     8.00 Bohr mag/cell
     absolute magnetization    =     8.16 Bohr mag/cell

     iteration # 16     ecut=   100.00 Ry     beta= 0.70
     Davidson diagonalization with overlap
     ethr =  2.97E-08,  avg # of iterations =  3.0

     total cpu time spent up to now is     2639.4 secs

     total energy              =   -1965.74206939 Ry
     Harris-Foulkes estimate   =   -1965.74207617 Ry
     estimated scf accuracy    <       0.00025859 Ry

     total magnetization       =     8.00 Bohr mag/cell
     absolute magnetization    =     8.16 Bohr mag/cell

     iteration # 17     ecut=   100.00 Ry     beta= 0.70
     Davidson diagonalization with overlap
     ethr =  2.97E-08,  avg # of iterations =  2.0

     total cpu time spent up to now is     2784.9 secs

     total energy              =   -1965.74208579 Ry
     Harris-Foulkes estimate   =   -1965.74208010 Ry
     estimated scf accuracy    <       0.00003661 Ry

     total magnetization       =     8.00 Bohr mag/cell
     absolute magnetization    =     8.16 Bohr mag/cell

     iteration # 18     ecut=   100.00 Ry     beta= 0.70
     Davidson diagonalization with overlap
     ethr =  7.63E-09,  avg # of iterations =  3.0

     total cpu time spent up to now is     2937.6 secs

     total energy              =   -1965.74208946 Ry
     Harris-Foulkes estimate   =   -1965.74208834 Ry
     estimated scf accuracy    <       0.00001608 Ry

     total magnetization       =     8.00 Bohr mag/cell
     absolute magnetization    =     8.16 Bohr mag/cell

     iteration # 19     ecut=   100.00 Ry     beta= 0.70
     Davidson diagonalization with overlap
     ethr =  3.35E-09,  avg # of iterations =  3.0

     total cpu time spent up to now is     3084.0 secs

     total energy              =   -1965.74209053 Ry
     Harris-Foulkes estimate   =   -1965.74209064 Ry
     estimated scf accuracy    <       0.00001704 Ry

     total magnetization       =     8.00 Bohr mag/cell
     absolute magnetization    =     8.16 Bohr mag/cell

     iteration # 20     ecut=   100.00 Ry     beta= 0.70
     Davidson diagonalization with overlap
     ethr =  3.35E-09,  avg # of iterations =  2.0

     total cpu time spent up to now is     3228.8 secs

     total energy              =   -1965.74209192 Ry
     Harris-Foulkes estimate   =   -1965.74209172 Ry
     estimated scf accuracy    <       0.00001336 Ry

     total magnetization       =     8.00 Bohr mag/cell
     absolute magnetization    =     8.16 Bohr mag/cell

     iteration # 21     ecut=   100.00 Ry     beta= 0.70
     Davidson diagonalization with overlap
     ethr =  2.78E-09,  avg # of iterations =  2.0

     total cpu time spent up to now is     3374.4 secs

     total energy              =   -1965.74209256 Ry
     Harris-Foulkes estimate   =   -1965.74209245 Ry
     estimated scf accuracy    <       0.00000332 Ry

     total magnetization       =     8.00 Bohr mag/cell
     absolute magnetization    =     8.16 Bohr mag/cell

     iteration # 22     ecut=   100.00 Ry     beta= 0.70
     Davidson diagonalization with overlap
     ethr =  6.91E-10,  avg # of iterations =  3.0

     total cpu time spent up to now is     3524.5 secs

     total energy              =   -1965.74209300 Ry
     Harris-Foulkes estimate   =   -1965.74209272 Ry
     estimated scf accuracy    <       0.00000176 Ry

     total magnetization       =     8.00 Bohr mag/cell
     absolute magnetization    =     8.16 Bohr mag/cell

     iteration # 23     ecut=   100.00 Ry     beta= 0.70
     Davidson diagonalization with overlap
     ethr =  3.67E-10,  avg # of iterations =  3.0
 
     Magnetic moment per site:
     atom:    1    charge:    0.8185    magn:    0.0048    constr:    0.0000
     atom:    2    charge:    0.8179    magn:    0.0048    constr:    0.0000
     atom:    3    charge:    0.8184    magn:    0.0032    constr:    0.0000
     atom:    4    charge:    0.8182    magn:    0.0027    constr:    0.0000
     atom:    5    charge:    0.8179    magn:    0.0042    constr:    0.0000
     atom:    6    charge:    0.8182    magn:    0.0044    constr:    0.0000
     atom:    7    charge:    0.8201    magn:    0.0057    constr:    0.0000
     atom:    8    charge:    0.8187    magn:    0.0053    constr:    0.0000
     atom:    9    charge:    0.8025    magn:    0.0043    constr:    0.0000
     atom:   10    charge:    0.8083    magn:    0.0037    constr:    0.0000
     atom:   11    charge:    0.8133    magn:    0.0048    constr:    0.0000
     atom:   12    charge:    0.8123    magn:    0.0045    constr:    0.0000
     atom:   13    charge:    0.8037    magn:    0.0081    constr:    0.0000
     atom:   14    charge:    0.8016    magn:    0.0075    constr:    0.0000
     atom:   15    charge:    0.8111    magn:    0.0035    constr:    0.0000
     atom:   16    charge:    0.8008    magn:    0.0055    constr:    0.0000
     atom:   17    charge:    0.8179    magn:    0.0054    constr:    0.0000
     atom:   18    charge:    0.8189    magn:    0.0054    constr:    0.0000
     atom:   19    charge:    0.8191    magn:    0.0023    constr:    0.0000
     atom:   20    charge:    0.8173    magn:    0.0021    constr:    0.0000
     atom:   21    charge:    0.7984    magn:    0.0008    constr:    0.0000
     atom:   22    charge:    0.7956    magn:    0.0020    constr:    0.0000
     atom:   23    charge:    0.7984    magn:    0.0008    constr:    0.0000
     atom:   24    charge:    0.7991    magn:    0.0008    constr:    0.0000
     atom:   25    charge:    0.8193    magn:    0.0053    constr:    0.0000
     atom:   26    charge:    0.8189    magn:    0.0053    constr:    0.0000
     atom:   27    charge:    0.8186    magn:    0.0018    constr:    0.0000
     atom:   28    charge:    0.8177    magn:    0.0022    constr:    0.0000
     atom:   29    charge:    0.8179    magn:    0.0051    constr:    0.0000
     atom:   30    charge:    0.8185    magn:    0.0051    constr:    0.0000
     atom:   31    charge:    0.8188    magn:    0.0052    constr:    0.0000
     atom:   32    charge:    0.8174    magn:    0.0055    constr:    0.0000
     atom:   33    charge:    0.8092    magn:    0.0040    constr:    0.0000
     atom:   34    charge:    0.8020    magn:    0.0048    constr:    0.0000
     atom:   35    charge:    0.8087    magn:    0.0037    constr:    0.0000
     atom:   36    charge:    0.8086    magn:    0.0038    constr:    0.0000
     atom:   37    charge:    0.8005    magn:    0.0062    constr:    0.0000
     atom:   38    charge:    0.7990    magn:    0.0063    constr:    0.0000
     atom:   39    charge:    0.8016    magn:    0.0057    constr:    0.0000
     atom:   40    charge:    0.8103    magn:    0.0038    constr:    0.0000
     atom:   41    charge:    0.8187    magn:    0.0054    constr:    0.0000
     atom:   42    charge:    0.8182    magn:    0.0055    constr:    0.0000
     atom:   43    charge:    0.8188    magn:    0.0029    constr:    0.0000
     atom:   44    charge:    0.8168    magn:    0.0031    constr:    0.0000
     atom:   45    charge:    0.7949    magn:    0.0021    constr:    0.0000
     atom:   46    charge:    0.7992    magn:    0.0010    constr:    0.0000
     atom:   47    charge:    0.7995    magn:   -0.0002    constr:    0.0000
     atom:   48    charge:    0.8001    magn:   -0.0004    constr:    0.0000
     atom:   49    charge:    0.8388    magn:    0.0179    constr:    0.0000
     atom:   50    charge:    0.8391    magn:    0.0176    constr:    0.0000
     atom:   51    charge:    0.8131    magn:    0.0057    constr:    0.0000
     atom:   52    charge:    0.8375    magn:    0.0148    constr:    0.0000
     atom:   53    charge:    0.8296    magn:    0.0139    constr:    0.0000
     atom:   54    charge:    0.8297    magn:    0.0136    constr:    0.0000
     atom:   55    charge:    0.8395    magn:    0.0158    constr:    0.0000
     atom:   56    charge:    0.8128    magn:    0.0047    constr:    0.0000
     atom:   57    charge:    0.3657    magn:   -0.0010    constr:    0.0000
     atom:   58    charge:    0.3657    magn:   -0.0010    constr:    0.0000
     atom:   59    charge:    0.3631    magn:   -0.0009    constr:    0.0000
     atom:   60    charge:    0.3636    magn:   -0.0010    constr:    0.0000
     atom:   61    charge:    0.3649    magn:   -0.0008    constr:    0.0000
     atom:   62    charge:    0.3641    magn:   -0.0009    constr:    0.0000
     atom:   63    charge:    0.3655    magn:   -0.0007    constr:    0.0000
     atom:   64    charge:    0.3665    magn:   -0.0006    constr:    0.0000
     atom:   65    charge:    0.3658    magn:   -0.0005    constr:    0.0000
     atom:   66    charge:    0.3638    magn:   -0.0008    constr:    0.0000
     atom:   67    charge:    0.3634    magn:   -0.0009    constr:    0.0000
     atom:   68    charge:    0.3667    magn:   -0.0010    constr:    0.0000
     atom:   69    charge:    0.3654    magn:   -0.0010    constr:    0.0000
     atom:   70    charge:    0.3628    magn:   -0.0010    constr:    0.0000
     atom:   71    charge:    0.3637    magn:   -0.0009    constr:    0.0000
     atom:   72    charge:    0.3655    magn:   -0.0011    constr:    0.0000
     atom:   73    charge:    0.3659    magn:   -0.0010    constr:    0.0000
     atom:   74    charge:    0.3664    magn:   -0.0006    constr:    0.0000
     atom:   75    charge:    0.3662    magn:   -0.0006    constr:    0.0000
     atom:   76    charge:    0.3667    magn:   -0.0006    constr:    0.0000
     atom:   77    charge:    0.3655    magn:   -0.0007    constr:    0.0000
     atom:   78    charge:    0.3660    magn:   -0.0004    constr:    0.0000
     atom:   79    charge:    0.3646    magn:   -0.0012    constr:    0.0000
     atom:   80    charge:    0.3652    magn:   -0.0011    constr:    0.0000
     atom:   81    charge:    0.4880    magn:    0.0033    constr:    0.0000
     atom:   82    charge:    0.4870    magn:    0.0032    constr:    0.0000
     atom:   83    charge:    0.3682    magn:    0.0019    constr:    0.0000
     atom:   84    charge:    0.4386    magn:    0.0031    constr:    0.0000
     atom:   85    charge:    0.4801    magn:    0.0031    constr:    0.0000
     atom:   86    charge:    0.4800    magn:    0.0031    constr:    0.0000
     atom:   87    charge:    0.4469    magn:    0.0031    constr:    0.0000
     atom:   88    charge:    0.3685    magn:    0.0023    constr:    0.0000
     atom:   89    charge:    2.4539    magn:    0.0255    constr:    0.0000
     atom:   90    charge:    2.4529    magn:    0.0255    constr:    0.0000
     atom:   91    charge:    2.4568    magn:    0.0160    constr:    0.0000
     atom:   92    charge:    2.4521    magn:    0.0172    constr:    0.0000
     atom:   93    charge:    2.4524    magn:    0.0166    constr:    0.0000
     atom:   94    charge:    2.4523    magn:    0.0165    constr:    0.0000
     atom:   95    charge:    2.4551    magn:    0.0171    constr:    0.0000
     atom:   96    charge:    2.4534    magn:    0.0164    constr:    0.0000
     atom:   97    charge:    7.4904    magn:    1.1282    constr:    0.0000
     atom:   98    charge:    7.4738    magn:    1.0742    constr:    0.0000
     atom:   99    charge:    7.4752    magn:    1.0733    constr:    0.0000
     atom:  100    charge:    7.4861    magn:    1.1318    constr:    0.0000
     atom:  101    charge:    1.8821    magn:    0.0283    constr:    0.0000
     atom:  102    charge:    1.8844    magn:    0.0283    constr:    0.0000
     atom:  103    charge:    1.8945    magn:    0.0253    constr:    0.0000
     atom:  104    charge:    1.8862    magn:    0.0172    constr:    0.0000
     atom:  105    charge:    1.8282    magn:    0.0307    constr:    0.0000
     atom:  106    charge:    1.8224    magn:    0.0225    constr:    0.0000
     atom:  107    charge:    1.8257    magn:    0.0201    constr:    0.0000
     atom:  108    charge:    1.8264    magn:    0.0202    constr:    0.0000
     atom:  109    charge:    1.8343    magn:    0.0375    constr:    0.0000
     atom:  110    charge:    1.8348    magn:    0.0379    constr:    0.0000
     atom:  111    charge:    1.8864    magn:    0.0171    constr:    0.0000
     atom:  112    charge:    1.8947    magn:    0.0259    constr:    0.0000
     atom:  113    charge:    1.8248    magn:    0.0228    constr:    0.0000
     atom:  114    charge:    1.8248    magn:    0.0313    constr:    0.0000
     atom:  115    charge:    1.8255    magn:    0.0223    constr:    0.0000
     atom:  116    charge:    1.8261    magn:    0.0222    constr:    0.0000
     atom:  117    charge:    1.8609    magn:    0.0368    constr:    0.0000
     atom:  118    charge:    1.8588    magn:    0.0348    constr:    0.0000
     atom:  119    charge:    1.8518    magn:    0.0254    constr:    0.0000
     atom:  120    charge:    1.8590    magn:    0.0352    constr:    0.0000
     atom:  121    charge:    1.8363    magn:    0.0237    constr:    0.0000
     atom:  122    charge:    1.8357    magn:    0.0235    constr:    0.0000
     atom:  123    charge:    1.8617    magn:    0.0356    constr:    0.0000
     atom:  124    charge:    1.8501    magn:    0.0266    constr:    0.0000

     total cpu time spent up to now is     3672.7 secs

     End of self-consistent calculation

 ------ SPIN UP ------------


          k = 0.0000 0.0000 0.0000 ( 91663 PWs)   bands (ev):

   -24.7639 -24.6098 -23.4723 -23.3810 -23.0997 -23.0723 -22.3247 -22.2740
   -22.1095 -22.0176 -21.8497 -21.5965 -20.9369 -20.9271 -20.5628 -20.5549
   -19.6490 -19.6419 -19.5371 -19.5334 -19.3970 -19.3739 -18.5924 -18.5118
   -18.5001 -18.4770 -18.1533 -18.1464 -18.0632 -18.0569 -18.0402 -17.9911
   -14.6388 -14.5681 -14.4678 -14.4631 -14.4351 -14.4084 -14.2747 -14.2040
   -13.9683 -13.8740 -13.6329 -13.5746 -13.5473 -13.5285 -13.3354 -13.2649
   -13.1319 -13.0843 -12.6861 -12.6657 -12.5075 -12.4122 -11.2836 -11.0227
   -10.9508 -10.8073 -10.7773 -10.7623 -10.6897 -10.6380 -10.5948 -10.5486
   -10.4075 -10.3226 -10.2750 -10.2237 -10.1554 -10.0427  -9.8456  -9.6256
    -9.4584  -9.3211  -9.1375  -9.0765  -8.9990  -8.9015  -8.8077  -8.6684
    -8.6409  -8.5403  -8.4196  -8.2369  -8.1608  -7.9835  -7.6484  -7.4852
    -7.3882  -7.3142  -7.1423  -7.0908  -6.9456  -6.8682  -6.7848  -6.7693
    -6.7146  -6.7098  -6.6124  -6.5931  -6.5338  -6.5218  -6.4733  -6.3758
    -6.3415  -6.2807  -6.2308  -6.2016  -6.1747  -6.0944  -6.0531  -6.0162
    -5.9956  -5.9472  -5.8985  -5.8493  -5.8448  -5.7693  -5.7632  -5.7303
    -5.6672  -5.6318  -5.5704  -5.4918  -5.3516  -5.3097  -5.2722  -5.2581
    -5.1781  -5.1633  -5.0366  -5.0300  -5.0261  -4.9819  -4.9308  -4.9221
    -4.8378  -4.8283  -4.7507  -4.7209  -4.6119  -4.5847  -4.5518  -4.5032
    -4.4139  -4.3842  -4.3503  -4.3076  -4.1781  -4.1420  -4.0788  -4.0255
    -3.9587  -3.8993  -3.7710  -3.6894  -3.6456  -3.5984  -3.5205  -3.4697
    -3.4281  -3.3771  -3.2964  -3.2799  -3.2300  -3.1886  -3.1780  -3.1176
    -3.1031  -3.0934  -3.0763  -2.9810  -2.9292  -2.8913  -2.8667  -2.8089
    -2.7456  -2.6584  -2.6435  -2.5305  -2.4800  -2.4755  -2.3658  -2.2521
    -2.1938  -2.1688  -2.1322  -2.0660  -2.0157  -1.9094  -1.8814  -1.8343
    -1.7881  -1.7772  -1.7016  -1.6897  -1.6205  -1.6003  -1.5355  -1.4834
    -1.4589  -1.3707  -1.3536  -1.3181  -1.2840  -1.2551  -1.2487  -1.1671
    -1.1534  -1.1321  -1.1056  -1.0836  -1.0569  -1.0261  -0.9977  -0.9877
    -0.9454  -0.9092  -0.8762  -0.8389  -0.8046  -0.7356  -0.7094  -0.6403
    -0.5314  -0.5130  -0.3694  -0.3303  -0.1451  -0.0833   0.2962   0.3318
     0.4830   0.5180   1.0234   1.0328   1.3066   1.3329   1.3891   1.4095
     1.6380   1.7106   1.9529   1.9974   2.0647   2.1523   2.3274   2.3761
     2.5453   2.5824   2.8728   2.9345   3.0500   3.1702   3.1968   3.2501
     3.4571   3.5791   3.7155   3.7808   4.5631   4.6024   4.6520   4.6832
     4.7985   4.8564   4.9288   5.0180   5.1385   5.4015   5.4146   5.4358
     5.6743   5.7844   5.8290   5.8999   5.9801   6.0419   6.1863   6.2125
     6.2924   6.3851   6.4542   6.4914   6.5555   6.5753   6.7192   6.8911
     7.0572   7.0684   7.2189   7.4233   7.4660

 ------ SPIN DOWN ----------


          k = 0.0000 0.0000 0.0000 ( 91663 PWs)   bands (ev):

   -24.6499 -24.5001 -23.3810 -23.2919 -23.0399 -23.0118 -22.2323 -22.1827
   -22.0064 -21.9156 -21.7665 -21.5109 -20.8505 -20.8428 -20.4478 -20.4425
   -19.5660 -19.5588 -19.4599 -19.4572 -19.3137 -19.2891 -18.5346 -18.4315
   -18.3803 -18.3787 -18.1124 -18.1040 -18.0262 -18.0175 -18.0003 -17.9534
   -14.6047 -14.5354 -14.4372 -14.4296 -14.4051 -14.3760 -14.2406 -14.1693
   -13.8918 -13.7998 -13.5776 -13.5225 -13.4961 -13.4763 -13.2965 -13.2217
   -13.0789 -13.0319 -12.6171 -12.5947 -12.4179 -12.3217 -11.2309 -10.9752
   -10.8969 -10.7630 -10.7293 -10.7213 -10.6432 -10.5938 -10.5494 -10.5044
   -10.3609 -10.2823 -10.2338 -10.1836 -10.1185 -10.0056  -9.7808  -9.5654
    -9.3960  -9.2664  -9.0669  -9.0077  -8.9150  -8.8255  -8.7179  -8.5986
    -8.5740  -8.4742  -8.3277  -8.1674  -8.0946  -7.9235  -7.5820  -7.4046
    -7.2885  -7.2425  -7.0693  -7.0258  -6.8828  -6.8085  -6.7219  -6.7008
    -6.6654  -6.6392  -6.5628  -6.5470  -6.4689  -6.4517  -6.4121  -6.3160
    -6.2659  -6.2168  -6.1619  -6.1326  -6.1118  -6.0374  -6.0000  -5.9549
    -5.9283  -5.8799  -5.8400  -5.7848  -5.7814  -5.7144  -5.7014  -5.6749
    -5.5844  -5.5513  -5.5019  -5.4391  -5.2812  -5.2488  -5.1737  -5.1698
    -5.1075  -5.0836  -5.0056  -4.9908  -4.9804  -4.9277  -4.8872  -4.8544
    -4.7984  -4.7783  -4.6874  -4.6606  -4.5325  -4.5031  -4.4751  -4.4279
    -4.3298  -4.2969  -4.2533  -4.2254  -4.0985  -4.0472  -3.9816  -3.9402
    -3.8672  -3.8164  -3.6186  -3.5629  -3.4959  -3.4229  -3.3805  -3.3295
    -3.3015  -3.2712  -3.2032  -3.1761  -3.1237  -3.1147  -3.0998  -3.0695
    -3.0089  -2.9818  -2.9224  -2.8669  -2.7600  -2.6911  -2.6494  -2.5678
    -2.5162  -2.4880  -2.3768  -2.3521  -2.2886  -2.2403  -2.1435  -2.0127
    -1.9831  -1.9580  -1.9022  -1.8482  -1.7998  -1.6578  -1.6415  -1.6207
    -1.5620  -1.5275  -1.4926  -1.4718  -1.4469  -1.3885  -1.3211  -1.2223
    -1.1940  -1.1825  -1.1251  -1.1179  -1.0662  -1.0300  -0.8933  -0.8828
    -0.8186  -0.7667  -0.7367  -0.6509  -0.5458  -0.5342  -0.3992  -0.3577
    -0.3398  -0.2117  -0.1641  -0.1010  -0.0735  -0.0641  -0.0480  -0.0355
    -0.0248   0.0473   0.0632   0.0906   0.2248   0.2768   1.0175   1.0364
     1.1059   1.1236   1.5268   1.5638   1.7796   1.8021   2.0077   2.0533
     2.1112   2.1660   2.1824   2.2380   2.3256   2.3593   2.4873   2.5246
     2.6634   2.6994   2.9895   3.0449   3.1466   3.2650   3.3018   3.3491
     3.5569   3.6923   3.8164   3.8848   4.6329   4.6838   4.7322   4.7551
     4.8666   4.9393   5.0150   5.1140   5.2321   5.4540   5.4618   5.4891
     5.7567   5.8688   5.9057   5.9680   6.0458   6.1047   6.2496   6.2660
     6.3455   6.4499   6.5208   6.5705   6.6095   6.6439   6.7565   6.9268
     7.0909   7.1026   7.2522   7.4700   7.5070

     the spin up/dw Fermi energies are     1.6498    1.3280 ev

!    total energy              =   -1965.74209291 Ry
     Harris-Foulkes estimate   =   -1965.74209306 Ry
     estimated scf accuracy    <       0.00000081 Ry

     The total energy is the sum of the following terms:

     one-electron contribution =   -3368.12787052 Ry
     hartree contribution      =    1867.21457115 Ry
     xc contribution           =    -579.18193440 Ry
     ewald contribution        =     112.58185777 Ry
     Dispersion Correction     =      -0.60290428 Ry
     smearing contrib. (-TS)   =       2.37418736 Ry

     total magnetization       =     8.00 Bohr mag/cell
     absolute magnetization    =     8.16 Bohr mag/cell

     convergence has been achieved in  23 iterations

     Forces acting on atoms (cartesian axes, Ry/au):

     atom    1 type  1   force =    -0.00380241   -0.02199774    0.01998648
     atom    2 type  1   force =    -0.00335348    0.01840307    0.01688490
     atom    3 type  1   force =    -0.00207287    0.02348599   -0.01481110
     atom    4 type  1   force =     0.00281421   -0.01963079   -0.01903624
     atom    5 type  1   force =    -0.00335550   -0.01628819    0.02499810
     atom    6 type  1   force =    -0.00439519    0.01534332    0.02283066
     atom    7 type  1   force =    -0.00233552    0.00442407    0.00712631
     atom    8 type  1   force =    -0.00087933   -0.01105790    0.01246904
     atom    9 type  1   force =     0.06644353    0.02274282   -0.03094578
     atom   10 type  1   force =    -0.01279566    0.01196631   -0.00205977
     atom   11 type  1   force =    -0.00533924    0.03842214   -0.01523581
     atom   12 type  1   force =    -0.00024712   -0.03279482   -0.01101273
     atom   13 type  1   force =     0.10718231    0.09232623    0.06566230
     atom   14 type  1   force =     0.09602148   -0.07855860    0.05825062
     atom   15 type  1   force =     0.00007417   -0.01170429   -0.01511171
     atom   16 type  1   force =    -0.05063890   -0.00490901    0.04129262
     atom   17 type  1   force =    -0.00069051    0.00878977    0.00501422
     atom   18 type  1   force =    -0.00204823   -0.00420202    0.00691561
     atom   19 type  1   force =     0.00877146   -0.01638870   -0.00908036
     atom   20 type  1   force =     0.00437008    0.01813823   -0.00880732
     atom   21 type  1   force =     0.10209813   -0.06855115    0.10115280
     atom   22 type  1   force =     0.11110000    0.06144396    0.11838193
     atom   23 type  1   force =    -0.09098291    0.05754858    0.08889806
     atom   24 type  1   force =    -0.09687019   -0.05974254    0.09375267
     atom   25 type  1   force =    -0.00055646   -0.01164138    0.01140146
     atom   26 type  1   force =    -0.00045192    0.01116306    0.01152153
     atom   27 type  1   force =    -0.00139945    0.01488671   -0.01409236
     atom   28 type  1   force =    -0.00579166   -0.01789818   -0.00766636
     atom   29 type  1   force =     0.00360077   -0.00685015    0.00791306
     atom   30 type  1   force =     0.00279016    0.00763003    0.00747527
     atom   31 type  1   force =     0.00508272    0.00463245    0.00474400
     atom   32 type  1   force =     0.00507207    0.00145507   -0.00132544
     atom   33 type  1   force =    -0.01502508   -0.01187677   -0.00024642
     atom   34 type  1   force =     0.06171242   -0.01980632   -0.02877863
     atom   35 type  1   force =     0.01718641    0.01530671   -0.00155535
     atom   36 type  1   force =     0.01748814   -0.01591550   -0.00203225
     atom   37 type  1   force =     0.05949170    0.00290233    0.01673822
     atom   38 type  1   force =     0.05828874   -0.00499984    0.01348662
     atom   39 type  1   force =    -0.05048046    0.00647381    0.04237885
     atom   40 type  1   force =     0.00111920    0.00891354   -0.01308018
     atom   41 type  1   force =    -0.00076946    0.00425398    0.00418722
     atom   42 type  1   force =    -0.00033123   -0.00798214    0.00195936
     atom   43 type  1   force =     0.00049132   -0.00950531   -0.00385976
     atom   44 type  1   force =     0.00585692    0.00926392   -0.00588932
     atom   45 type  1   force =     0.11369600   -0.06023006    0.11768407
     atom   46 type  1   force =     0.10127758    0.06635550    0.09902396
     atom   47 type  1   force =    -0.03052342    0.01599179    0.04312050
     atom   48 type  1   force =    -0.03637619   -0.01751955    0.04818466
     atom   49 type  1   force =    -0.51170901    0.07957211   -0.20728065
     atom   50 type  1   force =    -0.51945152   -0.06835941   -0.20092787
     atom   51 type  1   force =    -0.13854497   -0.09301771   -0.01733369
     atom   52 type  1   force =     0.45315893    0.08895129   -0.18758776
     atom   53 type  1   force =    -0.48149291   -0.08444488   -0.15182673
     atom   54 type  1   force =    -0.48921826    0.09210098   -0.14513103
     atom   55 type  1   force =     0.46592759   -0.09283907   -0.19816408
     atom   56 type  1   force =    -0.13164393    0.07462367   -0.00678511
     atom   57 type  2   force =    -0.00686751   -0.00389779   -0.00178270
     atom   58 type  2   force =    -0.00507821    0.00339691   -0.00254088
     atom   59 type  2   force =     0.00359265    0.00439587   -0.00272486
     atom   60 type  2   force =     0.00310083   -0.00406273   -0.00244412
     atom   61 type  2   force =     0.00765532    0.00315965   -0.00455184
     atom   62 type  2   force =     0.00262033    0.00159107   -0.00423685
     atom   63 type  2   force =    -0.00034969   -0.00441106    0.00120337
     atom   64 type  2   force =    -0.00201270    0.00199252    0.00137052
     atom   65 type  2   force =     0.00554397   -0.00384274   -0.00063950
     atom   66 type  2   force =    -0.00393420   -0.00507965   -0.00186005
     atom   67 type  2   force =    -0.00373500    0.00630892   -0.00254026
     atom   68 type  2   force =    -0.00531007   -0.00482665   -0.00127968
     atom   69 type  2   force =    -0.00525622    0.00399015   -0.00101095
     atom   70 type  2   force =     0.00266903    0.00393241   -0.00200443
     atom   71 type  2   force =     0.00374098   -0.00467124   -0.00295365
     atom   72 type  2   force =    -0.00055009   -0.00040982   -0.00081191
     atom   73 type  2   force =     0.00660593   -0.00335926   -0.00238636
     atom   74 type  2   force =     0.00065259    0.00178328    0.00283174
     atom   75 type  2   force =     0.00098040   -0.00202097    0.00231279
     atom   76 type  2   force =    -0.00208849   -0.00249414    0.00104464
     atom   77 type  2   force =    -0.00029024    0.00366915    0.00137531
     atom   78 type  2   force =     0.00448005    0.00402013   -0.00047038
     atom   79 type  2   force =    -0.00007818   -0.00155873   -0.00283177
     atom   80 type  2   force =    -0.00049340    0.00207017   -0.00238879
     atom   81 type  2   force =    -0.10122004    0.13408154    0.01555528
     atom   82 type  2   force =    -0.09919075   -0.13240499    0.00783728
     atom   83 type  2   force =     0.01741424   -0.02679923   -0.03700637
     atom   84 type  2   force =     0.02641935    0.11191264   -0.00538937
     atom   85 type  2   force =    -0.07008908    0.10359064    0.03690943
     atom   86 type  2   force =    -0.06563426   -0.11302872    0.02883395
     atom   87 type  2   force =     0.04023624   -0.11920664   -0.00874597
     atom   88 type  2   force =     0.01640423    0.02768037   -0.03860522
     atom   89 type  3   force =    -0.11397574    0.07659045    0.03340938
     atom   90 type  3   force =    -0.10357143   -0.07210605    0.02856941
     atom   91 type  3   force =    -0.00271095    0.02074037    0.01757188
     atom   92 type  3   force =     0.02084822   -0.02554749    0.00482137
     atom   93 type  3   force =    -0.02220061   -0.02497634    0.01282409
     atom   94 type  3   force =    -0.02202994    0.02577071    0.01236485
     atom   95 type  3   force =     0.02035082    0.02620968    0.00400502
     atom   96 type  3   force =    -0.00194848   -0.02098345    0.01963170
     atom   97 type  4   force =    -0.01408134   -0.00782971    0.00035831
     atom   98 type  4   force =     0.02161548    0.02575330   -0.01732982
     atom   99 type  4   force =     0.02719796   -0.02716429   -0.01880888
     atom  100 type  4   force =    -0.01677560    0.00600003   -0.00615307
     atom  101 type  5   force =    -0.41826616    0.20949460   -0.02848787
     atom  102 type  5   force =    -0.43586704   -0.21970479   -0.03171989
     atom  103 type  5   force =     0.52509793   -0.19691679   -0.05094676
     atom  104 type  5   force =     0.37810613   -0.05014506   -0.02346825
     atom  105 type  5   force =     0.03336626    0.01760445    0.01165013
     atom  106 type  5   force =     0.04011654   -0.00578656   -0.01347147
     atom  107 type  5   force =    -0.08045383   -0.02484654   -0.01020431
     atom  108 type  5   force =    -0.08120340    0.02820494   -0.00781888
     atom  109 type  5   force =    -0.06733426    0.20508576   -0.09445702
     atom  110 type  5   force =    -0.06179379   -0.21030737   -0.10258955
     atom  111 type  5   force =     0.37710213    0.06112403   -0.01498001
     atom  112 type  5   force =     0.53681711    0.22676384   -0.05667371
     atom  113 type  5   force =     0.04028949    0.00528060   -0.01508213
     atom  114 type  5   force =     0.03284017   -0.01575208    0.00892072
     atom  115 type  5   force =    -0.07330712   -0.01954415   -0.01186847
     atom  116 type  5   force =    -0.07479069    0.02191337   -0.01049443
     atom  117 type  5   force =    -0.08305033    0.39515656    0.14671144
     atom  118 type  5   force =    -0.06180054   -0.39157243    0.12464801
     atom  119 type  5   force =     0.12797686   -0.12256335   -0.02142678
     atom  120 type  5   force =     0.06842238    0.38147991    0.10283892
     atom  121 type  5   force =     0.17340512    0.21933983    0.08633652
     atom  122 type  5   force =     0.17517454   -0.21774951    0.07567128
     atom  123 type  5   force =     0.07527173   -0.40416550    0.10354980
     atom  124 type  5   force =     0.11368129    0.11084851   -0.02174119

     Total force =     2.149334     Total SCF correction =     0.002058

     BFGS Geometry Optimization

     number of scf cycles    =   1
     number of bfgs steps    =   0

     energy   new            =   -1965.7420929088 Ry

     new trust radius        =       0.5000000000 bohr
     new conv_thr            =       0.0000010000 Ry


ATOMIC_POSITIONS (crystal)
C             0.2880905942        0.9692562155        0.5228630865
C             0.0382713342        0.0317700711        0.0230506667
C             0.3905472385        0.0126174875        0.5458405475
C             0.1403304567        0.9870356267        0.0453087090
C             0.4518137557        0.9696142438        0.6514705178
C             0.2023794503        0.0289066607        0.1508971852
C             0.2081023076        0.5298636417        0.5266974443
C             0.4585232056        0.4710099779        0.0284524389
C             0.2475132433        0.6141516705        0.6050738789
C             0.4963549649        0.3891088022        0.1085264029
C             0.2492708644        0.8905924557        0.6025328670
C             0.0010512544        0.1110486050        0.1037626155
C             0.4119027201        0.8927145747        0.7304400946
C             0.1634514776        0.1067122276        0.2303740989
C             0.0888525837        0.6085606528        0.7266873256
C             0.3390931578        0.3914558594        0.2312102172
C             0.0469040613        0.5253961773        0.6515325460
C             0.2975895208        0.4745593709        0.1530581764
C             0.1084736985        0.4836786169        0.5497166088
C             0.3579828677        0.5163105147        0.0502506183
C             0.4370804067        0.0968453447        0.4710701110
C             0.1856264915        0.9019371939        0.9708789185
C             0.0641613872        0.3965506297        0.4745860977
C             0.3126175295        0.6020162016        0.9732306233
C             0.7882010184        0.9696299229        0.5224854824
C             0.5383718922        0.0315088171        0.0228147638
C             0.8905721485        0.0123071842        0.5458721606
C             0.6400285747        0.9870981477        0.0458088024
C             0.9520514525        0.9699548138        0.6507190484
C             0.7026268095        0.0286283282        0.1502217929
C             0.7083694674        0.5298711610        0.5265926604
C             0.9587282243        0.4714615061        0.0278457018
C             0.7445938538        0.6129024290        0.6064241615
C             0.9990260138        0.3879622928        0.1073511990
C             0.7500958062        0.8897583398        0.6031345894
C             0.5016993278        0.1116576921        0.1041576135
C             0.9101402010        0.8894877299        0.7282882148
C             0.6620511277        0.1093665817        0.2284051961
C             0.5870717528        0.6092166061        0.7292159940
C             0.8409199731        0.3919546433        0.2288186806
C             0.5469005466        0.5252325039        0.6514961707
C             0.7976475991        0.4744229660        0.1528401805
C             0.6081786647        0.4839270025        0.5499462322
C             0.8580389324        0.5159902867        0.0503789637
C             0.9375127426        0.0971456095        0.4717972234
C             0.6852560510        0.9021144259        0.9700274760
C             0.5663085176        0.3950510609        0.4725726148
C             0.8147670746        0.6035398104        0.9712263571
C             0.4520428700        0.8424933447        0.8333219548
C             0.2049541704        0.1558212636        0.3335043760
C             0.3483156395        0.6641474733        0.5855605938
C             0.2954332692        0.3454807905        0.3337431281
C             0.9531791541        0.8365748223        0.8357610438
C             0.7060903491        0.1616114466        0.3359595478
C             0.5431342135        0.6552029195        0.8303039385
C             0.1013204608        0.3391157811        0.0887245635
H             0.2368744073        0.9994343490        0.4430345896
H             0.4863524589        0.0028145769        0.9433872417
H             0.0321906436        0.9989636243        0.6734001497
H             0.2824500956        0.9985183971        0.1724944975
H             0.2589729902        0.5010090154        0.4490817914
H             0.0087322970        0.5004544136        0.9503616460
H             0.1701423268        0.8549638277        0.5886129292
H             0.4222503657        0.1478038996        0.0899462809
H             0.0439288260        0.6428053354        0.8065798721
H             0.4685283440        0.4930477017        0.6734201874
H             0.2188149980        0.5054286560        0.1751522690
H             0.7369310899        0.9994008312        0.4430567144
H             0.9863472511        0.0028359836        0.9434545343
H             0.5321568442        0.9989469003        0.6734318372
H             0.7824728204        0.9984964392        0.1724720863
H             0.7586794718        0.5008802116        0.4492462887
H             0.5088778029        0.5002757818        0.9504430383
H             0.8226668489        0.6505703494        0.5927595516
H             0.5750052793        0.3527780737        0.0951297259
H             0.6700793662        0.8550329994        0.5886059476
H             0.9223126129        0.1478644005        0.0899464919
H             0.7965395154        0.3576710657        0.3090303108
H             0.9686669082        0.4931747537        0.6733774473
H             0.7189322583        0.5052757018        0.1751589314
H             0.5467947466        0.8680523073        0.8708041843
H             0.2999128995        0.1289401909        0.3696067153
H             0.4073106610        0.6440989550        0.5091583093
H             0.2017243802        0.3718593466        0.3681869534
H             0.0479367941        0.8669520488        0.8717434268
H             0.8011413099        0.1296383798        0.3705312342
H             0.4496159827        0.6281724507        0.8649553166
H             0.1597368833        0.3605818410        0.0118089854
N             0.3043450966        0.8540167520        0.7062974803
N             0.0570091942        0.1462550666        0.2073085985
N             0.1864581028        0.6510584125        0.7066108828
N             0.4395672344        0.3500061236        0.2082530636
N             0.8076450203        0.8503517336        0.7053920554
N             0.5599428200        0.1497869312        0.2065958564
N             0.6872816066        0.6512557715        0.7060141570
N             0.9387553041        0.3501708163        0.2089044819
Ni            0.2464934410        0.7512034664        0.8363417597
Ni            0.5007392287        0.2489283031        0.3384157642
Ni            0.7479697739        0.7505057816        0.8354987090
Ni            0.9993608687        0.2482155100        0.3389073628
O             0.1076406575        0.3552485734        0.3816199877
O             0.3554320418        0.6430489939        0.8798968302
O             0.3965642479        0.1404012946        0.3749371544
O             0.1387425229        0.8505425250        0.8752287712
O             0.4742840546        0.3567952532        0.4835064199
O             0.2225758748        0.6412061929        0.9792844702
O             0.0259245380        0.1342614174        0.4806291730
O             0.2737453608        0.8637757701        0.9790550941
O             0.6202701864        0.3550894812        0.3787183967
O             0.8688928879        0.6433880980        0.8767796946
O             0.8912450370        0.1497126492        0.3765191182
O             0.6444511502        0.8605347306        0.8737682600
O             0.9745128351        0.3563505496        0.4823306265
O             0.7223308590        0.6408465893        0.9802693696
O             0.5261814607        0.1344527532        0.4805559766
O             0.7739749500        0.8635487397        0.9789374123
O             0.4267513188        0.7837641500        0.9136429653
O             0.1818795435        0.2145891824        0.4131935261
O             0.3868614422        0.7356033245        0.6574755634
O             0.3221648436        0.2839296307        0.4108272735
O             0.9359703083        0.7774198367        0.9109874310
O             0.6904027111        0.2208605497        0.4110403305
O             0.5687789222        0.7168867638        0.9073045409
O             0.1402876035        0.2686719477        0.1606187341



     Writing output data file /nfs/hpc/share/gantzlen/NiPyC2_relax_sc211_ortho_functionalized_CH-O_pbesol_relax.save/
     NEW-OLD atomic charge density approx. for the potential

     Check: negative core charge=   -0.000145

     total cpu time spent up to now is     3725.7 secs

     Self-consistent Calculation

     iteration #  1     ecut=   100.00 Ry     beta= 0.70
     Davidson diagonalization with overlap
     ethr =  1.00E-06,  avg # of iterations = 16.5

     total cpu time spent up to now is     4530.0 secs

     total energy              =   -1967.13369998 Ry
     Harris-Foulkes estimate   =   -1967.43601310 Ry
     estimated scf accuracy    <       0.82144522 Ry

     total magnetization       =     8.00 Bohr mag/cell
     absolute magnetization    =     8.19 Bohr mag/cell

     iteration #  2     ecut=   100.00 Ry     beta= 0.70
     Davidson diagonalization with overlap
     ethr =  1.71E-04,  avg # of iterations =  2.0

     total cpu time spent up to now is     4679.9 secs

     total energy              =   -1967.12407207 Ry
     Harris-Foulkes estimate   =   -1967.27044367 Ry
     estimated scf accuracy    <       0.70343336 Ry

     total magnetization       =     8.00 Bohr mag/cell
     absolute magnetization    =     8.19 Bohr mag/cell

     iteration #  3     ecut=   100.00 Ry     beta= 0.70
     Davidson diagonalization with overlap
     ethr =  1.47E-04,  avg # of iterations =  2.0

     total cpu time spent up to now is     4825.4 secs

     total energy              =   -1967.16377788 Ry
     Harris-Foulkes estimate   =   -1967.25583615 Ry
     estimated scf accuracy    <       0.69313034 Ry

     total magnetization       =     8.00 Bohr mag/cell
     absolute magnetization    =     8.20 Bohr mag/cell

     iteration #  4     ecut=   100.00 Ry     beta= 0.70
     Davidson diagonalization with overlap
     ethr =  1.44E-04,  avg # of iterations =  1.0

     total cpu time spent up to now is     4966.0 secs

     total energy              =   -1967.20359366 Ry
     Harris-Foulkes estimate   =   -1967.21540091 Ry
     estimated scf accuracy    <       0.09145475 Ry

     total magnetization       =     8.00 Bohr mag/cell
     absolute magnetization    =     8.20 Bohr mag/cell

     iteration #  5     ecut=   100.00 Ry     beta= 0.70
     Davidson diagonalization with overlap
     ethr =  1.91E-05,  avg # of iterations =  1.5

     total cpu time spent up to now is     5111.1 secs

     total energy              =   -1967.20720272 Ry
     Harris-Foulkes estimate   =   -1967.21523963 Ry
     estimated scf accuracy    <       0.09739351 Ry

     total magnetization       =     8.00 Bohr mag/cell
     absolute magnetization    =     8.20 Bohr mag/cell

     iteration #  6     ecut=   100.00 Ry     beta= 0.70
     Davidson diagonalization with overlap
     ethr =  1.91E-05,  avg # of iterations =  1.0

     total cpu time spent up to now is     5255.0 secs

     total energy              =   -1967.21081820 Ry
     Harris-Foulkes estimate   =   -1967.21118615 Ry
     estimated scf accuracy    <       0.00344692 Ry

     total magnetization       =     8.00 Bohr mag/cell
     absolute magnetization    =     8.20 Bohr mag/cell

     iteration #  7     ecut=   100.00 Ry     beta= 0.70
     Davidson diagonalization with overlap
     ethr =  7.18E-07,  avg # of iterations =  6.0

     total cpu time spent up to now is     5458.1 secs

     total energy              =   -1967.21079771 Ry
     Harris-Foulkes estimate   =   -1967.21105498 Ry
     estimated scf accuracy    <       0.00155053 Ry

     total magnetization       =     8.00 Bohr mag/cell
     absolute magnetization    =     8.20 Bohr mag/cell

     iteration #  8     ecut=   100.00 Ry     beta= 0.70
     Davidson diagonalization with overlap
     ethr =  3.23E-07,  avg # of iterations =  1.0

     total cpu time spent up to now is     5600.7 secs

     total energy              =   -1967.21075148 Ry
     Harris-Foulkes estimate   =   -1967.21097651 Ry
     estimated scf accuracy    <       0.00258055 Ry

     total magnetization       =     8.00 Bohr mag/cell
     absolute magnetization    =     8.20 Bohr mag/cell

     iteration #  9     ecut=   100.00 Ry     beta= 0.70
     Davidson diagonalization with overlap
     ethr =  3.23E-07,  avg # of iterations =  1.0

     total cpu time spent up to now is     5743.0 secs

     total energy              =   -1967.21084191 Ry
     Harris-Foulkes estimate   =   -1967.21090243 Ry
     estimated scf accuracy    <       0.00068324 Ry

     total magnetization       =     8.00 Bohr mag/cell
     absolute magnetization    =     8.20 Bohr mag/cell

     iteration # 10     ecut=   100.00 Ry     beta= 0.70
     Davidson diagonalization with overlap
     ethr =  1.42E-07,  avg # of iterations =  1.5

     total cpu time spent up to now is     5887.1 secs

     total energy              =   -1967.21085595 Ry
     Harris-Foulkes estimate   =   -1967.21086601 Ry
     estimated scf accuracy    <       0.00011264 Ry

     total magnetization       =     8.00 Bohr mag/cell
     absolute magnetization    =     8.20 Bohr mag/cell

     iteration # 11     ecut=   100.00 Ry     beta= 0.70
     Davidson diagonalization with overlap
     ethr =  2.35E-08,  avg # of iterations =  3.0

     total cpu time spent up to now is     6036.9 secs

     total energy              =   -1967.21085862 Ry
     Harris-Foulkes estimate   =   -1967.21086281 Ry
     estimated scf accuracy    <       0.00006577 Ry

     total magnetization       =     8.00 Bohr mag/cell
     absolute magnetization    =     8.20 Bohr mag/cell

     iteration # 12     ecut=   100.00 Ry     beta= 0.70
     Davidson diagonalization with overlap
     ethr =  1.37E-08,  avg # of iterations =  2.0

     total cpu time spent up to now is     6182.5 secs

     total energy              =   -1967.21085690 Ry
     Harris-Foulkes estimate   =   -1967.21086687 Ry
     estimated scf accuracy    <       0.00014160 Ry

     total magnetization       =     8.00 Bohr mag/cell
     absolute magnetization    =     8.20 Bohr mag/cell

     iteration # 13     ecut=   100.00 Ry     beta= 0.70
     Davidson diagonalization with overlap
     ethr =  1.37E-08,  avg # of iterations =  1.0

     total cpu time spent up to now is     6325.6 secs

     total energy              =   -1967.21086201 Ry
     Harris-Foulkes estimate   =   -1967.21086373 Ry
     estimated scf accuracy    <       0.00003362 Ry

     total magnetization       =     8.00 Bohr mag/cell
     absolute magnetization    =     8.20 Bohr mag/cell

     iteration # 14     ecut=   100.00 Ry     beta= 0.70
     Davidson diagonalization with overlap
     ethr =  7.00E-09,  avg # of iterations =  3.0

     total cpu time spent up to now is     6472.8 secs

     total energy              =   -1967.21086273 Ry
     Harris-Foulkes estimate   =   -1967.21086373 Ry
     estimated scf accuracy    <       0.00001309 Ry

     total magnetization       =     8.00 Bohr mag/cell
     absolute magnetization    =     8.20 Bohr mag/cell

     iteration # 15     ecut=   100.00 Ry     beta= 0.70
     Davidson diagonalization with overlap
     ethr =  2.73E-09,  avg # of iterations =  2.5

     total cpu time spent up to now is     6605.2 secs

     total energy              =   -1967.21086268 Ry
     Harris-Foulkes estimate   =   -1967.21086404 Ry
     estimated scf accuracy    <       0.00001552 Ry

     total magnetization       =     8.00 Bohr mag/cell
     absolute magnetization    =     8.20 Bohr mag/cell

     iteration # 16     ecut=   100.00 Ry     beta= 0.70
     Davidson diagonalization with overlap
     ethr =  2.73E-09,  avg # of iterations =  2.0

     total cpu time spent up to now is     6748.5 secs

     total energy              =   -1967.21086349 Ry
     Harris-Foulkes estimate   =   -1967.21086381 Ry
     estimated scf accuracy    <       0.00000744 Ry

     total magnetization       =     8.00 Bohr mag/cell
     absolute magnetization    =     8.20 Bohr mag/cell

     iteration # 17     ecut=   100.00 Ry     beta= 0.70
     Davidson diagonalization with overlap
     ethr =  1.55E-09,  avg # of iterations =  2.0

     total cpu time spent up to now is     6891.4 secs

     total energy              =   -1967.21086387 Ry
     Harris-Foulkes estimate   =   -1967.21086385 Ry
     estimated scf accuracy    <       0.00000207 Ry

     total magnetization       =     8.00 Bohr mag/cell
     absolute magnetization    =     8.20 Bohr mag/cell

     iteration # 18     ecut=   100.00 Ry     beta= 0.70
     Davidson diagonalization with overlap
     ethr =  4.31E-10,  avg # of iterations =  3.0
 
     Magnetic moment per site:
     atom:    1    charge:    0.8205    magn:    0.0056    constr:    0.0000
     atom:    2    charge:    0.8194    magn:    0.0059    constr:    0.0000
     atom:    3    charge:    0.8218    magn:    0.0041    constr:    0.0000
     atom:    4    charge:    0.8213    magn:    0.0036    constr:    0.0000
     atom:    5    charge:    0.8222    magn:    0.0044    constr:    0.0000
     atom:    6    charge:    0.8215    magn:    0.0047    constr:    0.0000
     atom:    7    charge:    0.8168    magn:    0.0064    constr:    0.0000
     atom:    8    charge:    0.8186    magn:    0.0061    constr:    0.0000
     atom:    9    charge:    0.8093    magn:    0.0046    constr:    0.0000
     atom:   10    charge:    0.8097    magn:    0.0033    constr:    0.0000
     atom:   11    charge:    0.8208    magn:    0.0036    constr:    0.0000
     atom:   12    charge:    0.8198    magn:    0.0032    constr:    0.0000
     atom:   13    charge:    0.8254    magn:    0.0067    constr:    0.0000
     atom:   14    charge:    0.8266    magn:    0.0064    constr:    0.0000
     atom:   15    charge:    0.8118    magn:    0.0033    constr:    0.0000
     atom:   16    charge:    0.8325    magn:    0.0054    constr:    0.0000
     atom:   17    charge:    0.8181    magn:    0.0064    constr:    0.0000
     atom:   18    charge:    0.8157    magn:    0.0063    constr:    0.0000
     atom:   19    charge:    0.8252    magn:    0.0026    constr:    0.0000
     atom:   20    charge:    0.8230    magn:    0.0024    constr:    0.0000
     atom:   21    charge:    0.8488    magn:   -0.0001    constr:    0.0000
     atom:   22    charge:    0.8172    magn:    0.0009    constr:    0.0000
     atom:   23    charge:    0.8435    magn:    0.0000    constr:    0.0000
     atom:   24    charge:    0.8459    magn:   -0.0001    constr:    0.0000
     atom:   25    charge:    0.8197    magn:    0.0058    constr:    0.0000
     atom:   26    charge:    0.8194    magn:    0.0057    constr:    0.0000
     atom:   27    charge:    0.8227    magn:    0.0023    constr:    0.0000
     atom:   28    charge:    0.8231    magn:    0.0026    constr:    0.0000
     atom:   29    charge:    0.8167    magn:    0.0057    constr:    0.0000
     atom:   30    charge:    0.8176    magn:    0.0055    constr:    0.0000
     atom:   31    charge:    0.8195    magn:    0.0062    constr:    0.0000
     atom:   32    charge:    0.8149    magn:    0.0063    constr:    0.0000
     atom:   33    charge:    0.8100    magn:    0.0036    constr:    0.0000
     atom:   34    charge:    0.8074    magn:    0.0052    constr:    0.0000
     atom:   35    charge:    0.8095    magn:    0.0031    constr:    0.0000
     atom:   36    charge:    0.8094    magn:    0.0032    constr:    0.0000
     atom:   37    charge:    0.8209    magn:    0.0048    constr:    0.0000
     atom:   38    charge:    0.8197    magn:    0.0050    constr:    0.0000
     atom:   39    charge:    0.8360    magn:    0.0056    constr:    0.0000
     atom:   40    charge:    0.8108    magn:    0.0036    constr:    0.0000
     atom:   41    charge:    0.8160    magn:    0.0062    constr:    0.0000
     atom:   42    charge:    0.8185    magn:    0.0066    constr:    0.0000
     atom:   43    charge:    0.8208    magn:    0.0037    constr:    0.0000
     atom:   44    charge:    0.8193    magn:    0.0040    constr:    0.0000
     atom:   45    charge:    0.8153    magn:    0.0011    constr:    0.0000
     atom:   46    charge:    0.8536    magn:    0.0000    constr:    0.0000
     atom:   47    charge:    0.8091    magn:   -0.0014    constr:    0.0000
     atom:   48    charge:    0.8082    magn:   -0.0016    constr:    0.0000
     atom:   49    charge:    0.7819    magn:    0.0109    constr:    0.0000
     atom:   50    charge:    0.7850    magn:    0.0107    constr:    0.0000
     atom:   51    charge:    0.8141    magn:    0.0044    constr:    0.0000
     atom:   52    charge:    0.8026    magn:    0.0102    constr:    0.0000
     atom:   53    charge:    0.7944    magn:    0.0121    constr:    0.0000
     atom:   54    charge:    0.7924    magn:    0.0118    constr:    0.0000
     atom:   55    charge:    0.8028    magn:    0.0102    constr:    0.0000
     atom:   56    charge:    0.8144    magn:    0.0037    constr:    0.0000
     atom:   57    charge:    0.3636    magn:   -0.0011    constr:    0.0000
     atom:   58    charge:    0.3641    magn:   -0.0011    constr:    0.0000
     atom:   59    charge:    0.3629    magn:   -0.0010    constr:    0.0000
     atom:   60    charge:    0.3629    magn:   -0.0010    constr:    0.0000
     atom:   61    charge:    0.3644    magn:   -0.0009    constr:    0.0000
     atom:   62    charge:    0.3653    magn:   -0.0009    constr:    0.0000
     atom:   63    charge:    0.3648    magn:   -0.0006    constr:    0.0000
     atom:   64    charge:    0.3620    magn:   -0.0007    constr:    0.0000
     atom:   65    charge:    0.3627    magn:   -0.0005    constr:    0.0000
     atom:   66    charge:    0.3640    magn:   -0.0009    constr:    0.0000
     atom:   67    charge:    0.3640    magn:   -0.0010    constr:    0.0000
     atom:   68    charge:    0.3649    magn:   -0.0012    constr:    0.0000
     atom:   69    charge:    0.3636    magn:   -0.0011    constr:    0.0000
     atom:   70    charge:    0.3627    magn:   -0.0009    constr:    0.0000
     atom:   71    charge:    0.3633    magn:   -0.0010    constr:    0.0000
     atom:   72    charge:    0.3651    magn:   -0.0012    constr:    0.0000
     atom:   73    charge:    0.3641    magn:   -0.0011    constr:    0.0000
     atom:   74    charge:    0.3629    magn:   -0.0006    constr:    0.0000
     atom:   75    charge:    0.3631    magn:   -0.0007    constr:    0.0000
     atom:   76    charge:    0.3622    magn:   -0.0007    constr:    0.0000
     atom:   77    charge:    0.3637    magn:   -0.0006    constr:    0.0000
     atom:   78    charge:    0.3634    magn:   -0.0004    constr:    0.0000
     atom:   79    charge:    0.3642    magn:   -0.0013    constr:    0.0000
     atom:   80    charge:    0.3647    magn:   -0.0012    constr:    0.0000
     atom:   81    charge:    0.3069    magn:    0.0036    constr:    0.0000
     atom:   82    charge:    0.3092    magn:    0.0036    constr:    0.0000
     atom:   83    charge:    0.3541    magn:    0.0031    constr:    0.0000
     atom:   84    charge:    0.3099    magn:    0.0038    constr:    0.0000
     atom:   85    charge:    0.3242    magn:    0.0038    constr:    0.0000
     atom:   86    charge:    0.3236    magn:    0.0040    constr:    0.0000
     atom:   87    charge:    0.3103    magn:    0.0037    constr:    0.0000
     atom:   88    charge:    0.3535    magn:    0.0035    constr:    0.0000
     atom:   89    charge:    2.4000    magn:    0.0326    constr:    0.0000
     atom:   90    charge:    2.4084    magn:    0.0323    constr:    0.0000
     atom:   91    charge:    2.4423    magn:    0.0216    constr:    0.0000
     atom:   92    charge:    2.4410    magn:    0.0229    constr:    0.0000
     atom:   93    charge:    2.4400    magn:    0.0231    constr:    0.0000
     atom:   94    charge:    2.4400    magn:    0.0229    constr:    0.0000
     atom:   95    charge:    2.4448    magn:    0.0227    constr:    0.0000
     atom:   96    charge:    2.4400    magn:    0.0217    constr:    0.0000
     atom:   97    charge:    7.4891    magn:    1.0733    constr:    0.0000
     atom:   98    charge:    7.4743    magn:    1.0843    constr:    0.0000
     atom:   99    charge:    7.4741    magn:    1.0866    constr:    0.0000
     atom:  100    charge:    7.4881    magn:    1.0734    constr:    0.0000
     atom:  101    charge:    1.5972    magn:    0.0211    constr:    0.0000
     atom:  102    charge:    1.5764    magn:    0.0210    constr:    0.0000
     atom:  103    charge:    1.4935    magn:    0.0200    constr:    0.0000
     atom:  104    charge:    1.6672    magn:    0.0173    constr:    0.0000
     atom:  105    charge:    1.8352    magn:    0.0339    constr:    0.0000
     atom:  106    charge:    1.8395    magn:    0.0279    constr:    0.0000
     atom:  107    charge:    1.8445    magn:    0.0220    constr:    0.0000
     atom:  108    charge:    1.8442    magn:    0.0227    constr:    0.0000
     atom:  109    charge:    1.7588    magn:    0.0393    constr:    0.0000
     atom:  110    charge:    1.7535    magn:    0.0415    constr:    0.0000
     atom:  111    charge:    1.6673    magn:    0.0170    constr:    0.0000
     atom:  112    charge:    1.4697    magn:    0.0199    constr:    0.0000
     atom:  113    charge:    1.8410    magn:    0.0277    constr:    0.0000
     atom:  114    charge:    1.8323    magn:    0.0344    constr:    0.0000
     atom:  115    charge:    1.8444    magn:    0.0274    constr:    0.0000
     atom:  116    charge:    1.8446    magn:    0.0274    constr:    0.0000
     atom:  117    charge:    1.6280    magn:    0.0245    constr:    0.0000
     atom:  118    charge:    1.6450    magn:    0.0234    constr:    0.0000
     atom:  119    charge:    1.7932    magn:    0.0364    constr:    0.0000
     atom:  120    charge:    1.6579    magn:    0.0246    constr:    0.0000
     atom:  121    charge:    1.7496    magn:    0.0202    constr:    0.0000
     atom:  122    charge:    1.7541    magn:    0.0196    constr:    0.0000
     atom:  123    charge:    1.6378    magn:    0.0242    constr:    0.0000
     atom:  124    charge:    1.8039    magn:    0.0369    constr:    0.0000

     total cpu time spent up to now is     7034.4 secs

[...]
     atom   21 type  1   force =     0.00209968    0.00101122    0.00107702
     atom   22 type  1   force =     0.00042733   -0.00076407    0.00090266
     atom   23 type  1   force =     0.00106121   -0.00061215   -0.00000634
     atom   24 type  1   force =    -0.00094399    0.00088819    0.00298272
     atom   25 type  1   force =    -0.00173822   -0.00158867   -0.00065410
     atom   26 type  1   force =     0.00010889   -0.00001104   -0.00226996
     atom   27 type  1   force =    -0.00019986   -0.00116106    0.00019362
     atom   28 type  1   force =     0.00013730   -0.00072981   -0.00008447
     atom   29 type  1   force =     0.00012032   -0.00068824    0.00129797
     atom   30 type  1   force =     0.00004593   -0.00090820   -0.00133681
     atom   31 type  1   force =     0.00074295   -0.00380566    0.00139779
     atom   32 type  1   force =    -0.00005147    0.00167854    0.00053773
     atom   33 type  1   force =     0.00150223    0.00301758   -0.00059352
     atom   34 type  1   force =    -0.00089654    0.00059456   -0.00034492
     atom   35 type  1   force =     0.00110617    0.00019974    0.00172298
     atom   36 type  1   force =     0.00107712   -0.00095386   -0.00068843
     atom   37 type  1   force =    -0.00068275    0.00032451    0.00198099
     atom   38 type  1   force =    -0.00022002   -0.00017662   -0.00032099
     atom   39 type  1   force =     0.00047618   -0.00088330   -0.00015980
     atom   40 type  1   force =    -0.00001953    0.00115593    0.00006536
     atom   41 type  1   force =     0.00288277    0.00118583   -0.00137017
     atom   42 type  1   force =    -0.00013211    0.00118339    0.00164283
     atom   43 type  1   force =    -0.00125121    0.00170289    0.00024526
     atom   44 type  1   force =    -0.00083878    0.00051677   -0.00062612
     atom   45 type  1   force =     0.00050131   -0.00113417   -0.00003557
     atom   46 type  1   force =     0.00089495   -0.00067143   -0.00266384
     atom   47 type  1   force =     0.00015123   -0.00235565    0.00118812
     atom   48 type  1   force =    -0.00025837   -0.00059289    0.00247481
     atom   49 type  1   force =     0.00061566   -0.00076486    0.00097599
     atom   50 type  1   force =     0.00109528    0.00134566    0.00162987
     atom   51 type  1   force =     0.00000336   -0.00064973    0.00053057
     atom   52 type  1   force =     0.00215771   -0.00049163    0.00185936
     atom   53 type  1   force =    -0.00121113    0.00130695   -0.00196901
     atom   54 type  1   force =     0.00035562   -0.00000517   -0.00091899
     atom   55 type  1   force =     0.00186073    0.00044390   -0.00088443
     atom   56 type  1   force =     0.00012659    0.00050850   -0.00011511
     atom   57 type  2   force =    -0.00094777    0.00119637   -0.00078596
     atom   58 type  2   force =     0.00006786    0.00055698   -0.00152982
     atom   59 type  2   force =    -0.00033557    0.00034023    0.00021031
     atom   60 type  2   force =    -0.00043993    0.00116280    0.00044612
     atom   61 type  2   force =    -0.00039736   -0.00146143    0.00070777
     atom   62 type  2   force =     0.00049129    0.00055077   -0.00158519
     atom   63 type  2   force =     0.00002990    0.00092957    0.00005502
     atom   64 type  2   force =     0.00187257    0.00028507    0.00058210
     atom   65 type  2   force =    -0.00048247    0.00049636   -0.00016064
     atom   66 type  2   force =    -0.00060883    0.00115213    0.00049077
     atom   67 type  2   force =    -0.00048151   -0.00100330    0.00121452
     atom   68 type  2   force =    -0.00135956   -0.00044448   -0.00082774
     atom   69 type  2   force =    -0.00167532    0.00130750   -0.00007553
     atom   70 type  2   force =    -0.00099848   -0.00111181   -0.00095475
     atom   71 type  2   force =    -0.00237627    0.00023588    0.00044298
     atom   72 type  2   force =    -0.00206188   -0.00046761    0.00060595
     atom   73 type  2   force =    -0.00344560    0.00073116   -0.00096354
     atom   74 type  2   force =     0.00038636   -0.00038560    0.00076041
     atom   75 type  2   force =    -0.00141952    0.00188108   -0.00119735
     atom   76 type  2   force =     0.00173043   -0.00175601   -0.00184074
     atom   77 type  2   force =     0.00076283    0.00057806    0.00060615
     atom   78 type  2   force =     0.00030863   -0.00016817   -0.00107761
     atom   79 type  2   force =    -0.00152789   -0.00073429    0.00045641
     atom   80 type  2   force =    -0.00083283    0.00049282    0.00007896
     atom   81 type  2   force =     0.00309363   -0.00037426    0.00137028
     atom   82 type  2   force =    -0.00118939   -0.00287190   -0.00074569
     atom   83 type  2   force =    -0.00037318   -0.00035689    0.00113841
     atom   84 type  2   force =    -0.00011088   -0.00034383    0.00112503
     atom   85 type  2   force =    -0.00070916   -0.00140401   -0.00235236
     atom   86 type  2   force =     0.00304394    0.00264586    0.00024792
     atom   87 type  2   force =    -0.00117613    0.00505812    0.00106768
     atom   88 type  2   force =     0.00044113    0.00124781   -0.00191355
     atom   89 type  3   force =    -0.00062998    0.00012590    0.00005566
     atom   90 type  3   force =     0.00070590   -0.00094538   -0.00077060
     atom   91 type  3   force =     0.00014004    0.00034296   -0.00103381
     atom   92 type  3   force =    -0.00106001    0.00122254    0.00264356
     atom   93 type  3   force =    -0.00046541   -0.00071695   -0.00060792
     atom   94 type  3   force =     0.00024336    0.00003646    0.00169935
     atom   95 type  3   force =     0.00017007    0.00153092    0.00037108
     atom   96 type  3   force =     0.00000759    0.00080714    0.00115025
     atom   97 type  4   force =     0.00115531   -0.00105602    0.00202501
     atom   98 type  4   force =     0.00097841    0.00314987   -0.00043213
     atom   99 type  4   force =    -0.00034898    0.00251006   -0.00023933
     atom  100 type  4   force =     0.00267671   -0.00112839   -0.00040541
     atom  101 type  5   force =    -0.00235967    0.00024233   -0.00003077
     atom  102 type  5   force =     0.00214144   -0.00334240   -0.00023621
     atom  103 type  5   force =     0.00055772    0.00053087   -0.00034031
     atom  104 type  5   force =     0.00060076    0.00010129    0.00041086
     atom  105 type  5   force =     0.00106492   -0.00165984   -0.00179707
     atom  106 type  5   force =     0.00022768   -0.00184126    0.00071573
     atom  107 type  5   force =    -0.00033413   -0.00044320   -0.00126757
     atom  108 type  5   force =    -0.00037161    0.00139878    0.00125205
     atom  109 type  5   force =     0.00063398   -0.00025206    0.00117541
     atom  110 type  5   force =    -0.00291681   -0.00002705   -0.00042349
     atom  111 type  5   force =    -0.00039858   -0.00076867   -0.00121742
     atom  112 type  5   force =     0.00010987    0.00032197    0.00049844
     atom  113 type  5   force =     0.00117661   -0.00046515   -0.00065743
     atom  114 type  5   force =    -0.00025914   -0.00115613   -0.00087078
     atom  115 type  5   force =    -0.00170650   -0.00158907   -0.00011345
     atom  116 type  5   force =    -0.00084896   -0.00136037    0.00012884
     atom  117 type  5   force =    -0.00107338    0.00153251   -0.00025845
     atom  118 type  5   force =     0.00011015   -0.00033990   -0.00160196
     atom  119 type  5   force =    -0.00327675    0.00025747    0.00021045
     atom  120 type  5   force =     0.00067351    0.00080527   -0.00129364
     atom  121 type  5   force =     0.00184344    0.00126259    0.00145053
     atom  122 type  5   force =     0.00061802   -0.00210992   -0.00144303
     atom  123 type  5   force =    -0.00077414    0.00019774   -0.00138853
     atom  124 type  5   force =    -0.00106697   -0.00046292    0.00038298

     Total force =     0.023907     Total SCF correction =     0.000377

     number of scf cycles    =  95
     number of bfgs steps    =  94

     energy   old            =   -1968.8710641544 Ry
     energy   new            =   -1968.8718682999 Ry

     CASE: energy  _new < energy  _old

     new trust radius        =       0.0509148283 bohr
     new conv_thr            =       0.0000000506 Ry


ATOMIC_POSITIONS (crystal)
C             0.2920156624        0.9259169199        0.4984264195
C             0.0371282941        0.0730638276        0.0096969711
C             0.3826308431       -0.0129667315        0.5304169487
C             0.1302157954        1.0158858111        0.0408117072
C             0.4254418458        0.9821134077        0.6565772574
C             0.1748849747        0.0212288500        0.1651771055
C             0.1649785349        0.5655572979        0.5046563027
C             0.4559507207        0.4411719961        0.0327382111
C             0.2208342297        0.6271230657        0.5959456505
C             0.5028996626        0.3786543622        0.1295268311
C             0.2468090883        0.8614968082        0.5918200831
C            -0.0069130879        0.1382615068        0.1030159043
C             0.3806488379        0.9086482672        0.7431786683
C             0.1318207132        0.0964852179        0.2507871835
C             0.0790423620        0.6133688805        0.7392125542
C             0.3666645021        0.4186748595        0.2728642478
C             0.0262528750        0.5392140157        0.6592875200
C             0.3190110719        0.4904966982        0.1829176019
C             0.0714129548        0.5130968729        0.5399701919
C             0.3606472967        0.4953199166        0.0585441108
C             0.4271700319        0.0611463436        0.4363792017
C             0.1775185416        0.9513124260        0.9392750647
C             0.0340449293        0.4230918717        0.4625503657
C             0.3073604036        0.5539201825        0.9514040664
C             0.7966814380        0.9297659584        0.5235690472
C             0.5534687380        0.0842546950        0.0089267619
C             0.8961231997       -0.0203790015        0.5430805487
C             0.6500045687        1.0287889117        0.0254788446
C             0.9579720705        0.9575720240        0.6537701296
C             0.7127038393        0.0454337488        0.1372519942
C             0.7315304009        0.5285463130        0.5451087795
C             0.9545034591        0.4690426181        0.0278091677
C             0.7619415833        0.6119984636        0.6273697411
C             0.9964172215        0.3881723623        0.1068440626
C             0.7601072232        0.8589889702        0.6156070513
C             0.5173799236        0.1486304932        0.1083701738
C             0.9162950681        0.8832484666        0.7419361007
C             0.6732329200        0.1153901428        0.2316832710
C             0.6066220298        0.5927170534        0.7481143313
C             0.8342192642        0.3789817847        0.2181421593
C             0.5706696850        0.5073463210        0.6710149158
C             0.7885243728        0.4602184232        0.1429084650
C             0.6353074851        0.4764047580        0.5692103995
C             0.8522001275        0.5076988307        0.0495463176
C             0.9282064071        0.0558393984        0.4446148740
C             0.6789523668        0.9458323838        0.9325952837
C             0.5976832555        0.3898043002        0.4864865703
C             0.8162521427        0.6011882733        0.9782541937
C             0.4224762688        0.8927192352        0.8682495773
C             0.1804124223        0.1222571520        0.3696620671
C             0.3336036526        0.6474605760        0.5698968703
C             0.3225121464        0.4007683893        0.3950295665
C             0.9683212334        0.8561264941        0.8584681892
C             0.7259732323        0.1379551868        0.3499390616
C             0.5467108790        0.6320292350        0.8499901784
C             0.1086814257        0.3612474692        0.0830183815
H             0.2511290679        0.9290858173        0.4034717813
H             0.5005924467        0.0738567515        0.9242807418
H             0.0362166725        0.9928387052        0.6711271680
H             0.2429936338        0.9707410456        0.1898836825
H             0.2026133295        0.5550749362        0.4104726197
H             0.0046738685        0.5039286131        0.9540305838
H             0.1733967148        0.8173102457        0.5718785038
H             0.4391930402        0.1866105433        0.1029559078
H             0.0455271037        0.6375654647        0.8314541103
H             0.4945978986        0.4682016793        0.6880846762
H             0.2476195816        0.5358735381        0.2072411382
H             0.7432438816        0.9495068567        0.4420404269
H             0.9956281075        0.0640339111        0.9159184566
H             0.4912487523        1.0348671824        0.6841482464
H             0.7896634939        1.0064537349        0.1489343417
H             0.7830705202        0.5039626870        0.4671083810
H             0.4980451565        0.4487760835        0.9412728917
H             0.8368988057        0.6546806248        0.6170295277
H             0.5795295391        0.3400562212        0.1161730288
H             0.6811703454        0.8227313769        0.6079814912
H             0.9182009370        0.1803001454        0.0857767648
H             0.7905594306        0.3440875546        0.2981118668
H             0.9530991409        0.5022837136        0.6917790318
H             0.7080410749        0.4874081760        0.1620402613
H             0.6037927665        1.0189033163        0.7996895781
H             0.3525730130       -0.0081173202        0.3014023705
H             0.3563564522        0.6290592318        0.4673925005
H             0.1697031621        0.4145294466        0.3672627432
H             0.1410465255        1.0633067101        0.8280240901
H             0.8619333203       -0.0372494637        0.3247853219
H             0.3427352555        0.4393694537        0.8436762574
H             0.1379565221        0.4036196089       -0.0052053809
N             0.2916890187        0.8484777303        0.7103964497
N             0.0414726342        0.1547839549        0.2190055530
N             0.1753511668        0.6545223999        0.7106499738
N             0.4558472297        0.3594124407        0.2436657561
N             0.8184253292        0.8343895527        0.7223457605
N             0.5753583982        0.1654527901        0.2181315955
N             0.7011952950        0.6447005802        0.7259908782
N             0.9353444067        0.3456617860        0.2025235653
Ni            0.2375366657        0.7492284652        0.8365340729
Ni            0.5200633270        0.2516689773        0.3572866164
Ni            0.7560187163        0.7457917830        0.8529153863
Ni            0.9837537531        0.2551916335        0.3412187266
O             0.0963118784        0.3867764309        0.3667440750
O             0.3106172174        0.5101345429        0.8336415075
O             0.3934927184        0.0575376096        0.3125917117
O             0.1678124429        0.9903283268        0.8186721782
O             0.5104613270        0.3402865285        0.5124121847
O             0.2637158174        0.6426134397        0.9693901016
O            -0.0237016349        0.1411031964        0.4701049363
O             0.2195314512        0.8624537984        0.9630100464
O             0.6453190684        0.3585494389        0.3846336411
O             0.8779523394        0.6488531195        0.8982157295
O             0.8929109784        0.0345826792        0.3231859663
O             0.6371857828        0.9491290030        0.8122389033
O             0.9512098361        0.3688785464        0.4761316241
O             0.7228056281        0.6425723506        0.9913590663
O             0.4932680583        0.1314894198        0.4708956607
O             0.7364665603        0.8681894179        0.9666644813
O             0.4549973457        0.8781981303        0.9737977946
O             0.2134257838        0.1557743936        0.4684376157
O             0.4022566226        0.6760538392        0.6493147073
O             0.3044994437        0.3704069244        0.5003494965
O             0.9963001276        0.8254775607        0.9606870318
O             0.7450935932        0.1704089740        0.4541794055
O             0.4950966265        0.6654052508        0.9331086727
O             0.1718293514        0.3053032886        0.1450977713



     Writing output data file /nfs/hpc/share/gantzlen/NiPyC2_relax_sc211_ortho_functionalized_CH-O_pbesol_relax.save/
     NEW-OLD atomic charge density approx. for the potential

     Check: negative core charge=   -0.000145

     total cpu time spent up to now is   257638.2 secs

     Self-consistent Calculation

     iteration #  1     ecut=   100.00 Ry     beta= 0.70
     Davidson diagonalization with overlap
     ethr =  1.00E-06,  avg # of iterations =  5.0

     total cpu time spent up to now is   258098.4 secs

     total energy              =   -1968.87245041 Ry
     Harris-Foulkes estimate   =   -1968.87320733 Ry
     estimated scf accuracy    <       0.00340806 Ry

     total magnetization       =     8.00 Bohr mag/cell
     absolute magnetization    =     8.27 Bohr mag/cell

     iteration #  2     ecut=   100.00 Ry     beta= 0.70
     Davidson diagonalization with overlap
     ethr =  7.10E-07,  avg # of iterations =  2.0

     total cpu time spent up to now is   258223.3 secs

     total energy              =   -1968.87243644 Ry
     Harris-Foulkes estimate   =   -1968.87268172 Ry
     estimated scf accuracy    <       0.00099434 Ry

     total magnetization       =     8.00 Bohr mag/cell
     absolute magnetization    =     8.27 Bohr mag/cell

     iteration #  3     ecut=   100.00 Ry     beta= 0.70
     Davidson diagonalization with overlap
     ethr =  2.07E-07,  avg # of iterations =  3.0

     total cpu time spent up to now is   258392.3 secs

     total energy              =   -1968.87231254 Ry
     Harris-Foulkes estimate   =   -1968.87293213 Ry
     estimated scf accuracy    <       0.00920558 Ry

     total magnetization       =     8.00 Bohr mag/cell
     absolute magnetization    =     8.27 Bohr mag/cell

     iteration #  4     ecut=   100.00 Ry     beta= 0.70
     Davidson diagonalization with overlap
     ethr =  2.07E-07,  avg # of iterations =  2.0

     total cpu time spent up to now is   258535.1 secs

     total energy              =   -1968.87260866 Ry
     Harris-Foulkes estimate   =   -1968.87261591 Ry
     estimated scf accuracy    <       0.00003459 Ry

     total magnetization       =     8.00 Bohr mag/cell
     absolute magnetization    =     8.27 Bohr mag/cell

     iteration #  5     ecut=   100.00 Ry     beta= 0.70
     Davidson diagonalization with overlap
     ethr =  7.21E-09,  avg # of iterations =  4.0

     total cpu time spent up to now is   258722.6 secs

     total energy              =   -1968.87261083 Ry
     Harris-Foulkes estimate   =   -1968.87261566 Ry
     estimated scf accuracy    <       0.00003601 Ry

     total magnetization       =     8.00 Bohr mag/cell
     absolute magnetization    =     8.27 Bohr mag/cell

     iteration #  6     ecut=   100.00 Ry     beta= 0.70
     Davidson diagonalization with overlap
     ethr =  7.21E-09,  avg # of iterations =  2.0

     total cpu time spent up to now is   258867.9 secs

     total energy              =   -1968.87261212 Ry
     Harris-Foulkes estimate   =   -1968.87261553 Ry
     estimated scf accuracy    <       0.00004044 Ry

     total magnetization       =     8.00 Bohr mag/cell
     absolute magnetization    =     8.27 Bohr mag/cell

     iteration #  7     ecut=   100.00 Ry     beta= 0.70
     Davidson diagonalization with overlap
