/apps/openmpi/3.1_intel-19/bin/mpiexec
starting QE Wed Jun 24 14:19:31 PDT 2020

     Program PWSCF v.6.5 starts on 24Jun2020 at 14:19:32 

     This program is part of the open-source Quantum ESPRESSO suite
     for quantum simulation of materials; please cite
         "P. Giannozzi et al., J. Phys.:Condens. Matter 21 395502 (2009);
         "P. Giannozzi et al., J. Phys.:Condens. Matter 29 465901 (2017);
          URL http://www.quantum-espresso.org", 
     in publications or presentations arising from this work. More details at
     http://www.quantum-espresso.org/quote

     Parallel version (MPI), running on    32 processors

     MPI processes distributed on     1 nodes
     K-points division:     npool     =       2
     R & G space division:  proc/nbgrp/npool/nimage =      16
     Reading input from QE_input_scripts/pw.NiPyC2_relax_sc211_meta_functionalized_PH2_pbesol_relax.in
Warning: card &CELL ignored
Warning: card    CELL_DYNAMICS = 'BFGS' ignored
Warning: card    CELL_DOFREE = 'XYZ' ignored
Warning: card / ignored

     Current dimensions of program PWSCF are:
     Max number of different atomic species (ntypx) = 10
     Max number of k-points (npk) =  40000
     Max angular momentum in pseudopotentials (lmaxx) =  3

     -------------------------------------------------
     Parameters for Dispersion (Grimme-D2) Correction:
     -------------------------------------------------
       atom      VdW radius       C_6     

        C          2.744         60.710
        H          1.892          4.857
        N          2.640         42.670
        Ni         2.952        374.666
        O          2.536         24.284
        P          3.222        271.980

     gamma-point specific algorithms are used

     Subspace diagonalization in iterative solution of the eigenvalue problem:
     a serial algorithm will be used

 
     Parallelization info
     --------------------
     sticks:   dense  smooth     PW     G-vecs:    dense   smooth      PW
     Min        1113    1113    277                91686    91686   11456
     Max        1116    1116    280                91692    91692   11460
     Sum       17829   17829   4453              1467017  1467017  183325
 


     bravais-lattice index     =            0
     lattice parameter (alat)  =      23.6322  a.u.
     unit-cell volume          =   10858.6228 (a.u.)^3
     number of atoms/cell      =          124
     number of atomic types    =            6
     number of electrons       =       448.00 (up: 228.00, down: 220.00)
     number of Kohn-Sham states=          274
     kinetic-energy cutoff     =     100.0000  Ry
     charge density cutoff     =     400.0000  Ry
     convergence threshold     =      1.0E-06
     mixing beta               =       0.7000
     number of iterations used =            8  local-TF  mixing
     Exchange-correlation= PBESOL
                           (   1   4  10   8   0   0   0)
     nstep                     =          200


     celldm(1)=  23.632159  celldm(2)=   0.000000  celldm(3)=   0.000000
     celldm(4)=   0.000000  celldm(5)=   0.000000  celldm(6)=   0.000000

     crystal axes: (cart. coord. in units of alat)
               a(1) = (   1.000000   0.000000   0.000000 )  
               a(2) = (   0.000000   1.001423   0.000000 )  
               a(3) = (  -0.018199   0.000000   0.821574 )  

     reciprocal axes: (cart. coord. in units 2 pi/alat)
               b(1) = (  1.000000  0.000000  0.022152 )  
               b(2) = (  0.000000  0.998579  0.000000 )  
               b(3) = (  0.000000  0.000000  1.217175 )  


     PseudoPot. # 1 for C  read from file:
     ./pseudo/C.pbesol-nc.UPF
     MD5 check sum: ce26087537ded160c8d400e183a8bf42
     Pseudo is Norm-conserving, Zval =  4.0
     Generated using "atomic" code by A. Dal Corso v.6.5
     Using radial grid of 1073 points,  1 beta functions with: 
                l(1) =   1

     PseudoPot. # 2 for H  read from file:
     ./pseudo/H.pbesol-n-nc.UPF
     MD5 check sum: 7995ef24074557c85b430109caaacc09
     Pseudo is Norm-conserving, Zval =  1.0
     Generated using "atomic" code by A. Dal Corso v.6.5
     Using radial grid of  929 points,  0 beta functions with: 

     PseudoPot. # 3 for N  read from file:
     ./pseudo/N.pbesol-nc.UPF
     MD5 check sum: e18cc5e4b8a5600c1a19b30c2cab1ca0
     Pseudo is Norm-conserving, Zval =  5.0
     Generated using "atomic" code by A. Dal Corso v.6.5
     Using radial grid of 1085 points,  1 beta functions with: 
                l(1) =   1

     PseudoPot. # 4 for Ni read from file:
     ./pseudo/Ni.pbesol-n-nc.UPF
     MD5 check sum: 623411631e0c2eb7c0b2b9815547d2d9
     Pseudo is Norm-conserving + core correction, Zval = 10.0
     Generated using "atomic" code by A. Dal Corso v.6.5
     Using radial grid of 1195 points,  2 beta functions with: 
                l(1) =   1
                l(2) =   2

     PseudoPot. # 5 for O  read from file:
     ./pseudo/O.pbesol-nc.UPF
     MD5 check sum: 73d10e7e91dbfcbe8a7e362101007f84
     Pseudo is Norm-conserving, Zval =  6.0
     Generated using "atomic" code by A. Dal Corso v.6.5
     Using radial grid of 1095 points,  1 beta functions with: 
                l(1) =   1

     PseudoPot. # 6 for P  read from file:
     ./pseudo/P.pbesol-n-nc.UPF
     MD5 check sum: e00c8da3232db503c3f0050d0cc69157
     Pseudo is Norm-conserving + core correction, Zval =  5.0
     Generated using "atomic" code by A. Dal Corso v.6.5
     Using radial grid of 1147 points,  2 beta functions with: 
                l(1) =   0
                l(2) =   1

     atomic species   valence    mass     pseudopotential
        C              4.00    12.01070     C ( 1.00)
        H              1.00     1.00794     H ( 1.00)
        N              5.00    14.00670     N ( 1.00)
        Ni            10.00    58.69340     Ni( 1.00)
        O              6.00    15.99940     O ( 1.00)
        P              5.00    30.97376     P ( 1.00)

     Starting magnetic structure 
     atomic species   magnetization
        C            0.000
        H            0.000
        N            0.000
        Ni           0.250
        O            0.000
        P            0.000

     No symmetry found



   Cartesian axes

     site n.     atom                  positions (alat units)
         1           C   tau(   1) = (   0.2787122   0.9714307   0.4288486  )
         2           C   tau(   2) = (   0.0379730   0.0311503   0.0183277  )
         3           C   tau(   3) = (   0.3806882   0.0117868   0.4489838  )
         4           C   tau(   4) = (   0.1394042   0.9891499   0.0379124  )
         5           C   tau(   5) = (   0.4400787   0.9715829   0.5343281  )
         6           C   tau(   6) = (   0.1997920   0.0283934   0.1231482  )
         7           C   tau(   7) = (   0.1986011   0.5304580   0.4324635  )
         8           C   tau(   8) = (   0.4580372   0.4720800   0.0229252  )
         9           C   tau(   9) = (   0.2341003   0.6142040   0.4982314  )
        10           C   tau(  10) = (   0.4948422   0.3892302   0.0892369  )
        11           C   tau(  11) = (   0.2384981   0.8904717   0.4955761  )
        12           C   tau(  12) = (  -0.0008282   0.1123917   0.0856467  )
        13           C   tau(  13) = (   0.3947360   0.8906489   0.5977380  )
        14           C   tau(  14) = (   0.1557890   0.1097029   0.1871645  )
        15           C   tau(  15) = (   0.0756247   0.6098498   0.5975737  )
        16           C   tau(  16) = (   0.3367152   0.3921904   0.1884642  )
        17           C   tau(  17) = (   0.0350715   0.5258264   0.5351012  )
        18           C   tau(  18) = (   0.2948780   0.4753867   0.1254988  )
        19           C   tau(  19) = (   0.0981522   0.4849593   0.4519611  )
        20           C   tau(  20) = (   0.3569104   0.5163900   0.0416029  )
        21           C   tau(  21) = (   0.4248178   0.0994604   0.3833638  )
        22           C   tau(  22) = (   0.1639424   0.9010006   0.7933713  )
        23           C   tau(  23) = (   0.0588120   0.3950355   0.3866953  )
        24           C   tau(  24) = (   0.2984059   0.6050320   0.7961934  )
        25           C   tau(  25) = (   0.7787122   0.9714307   0.4288486  )
        26           C   tau(  26) = (   0.5379730   0.0311503   0.0183277  )
        27           C   tau(  27) = (   0.8806882   0.0117868   0.4489838  )
        28           C   tau(  28) = (   0.6394042   0.9891499   0.0379124  )
        29           C   tau(  29) = (   0.9400787   0.9715829   0.5343281  )
        30           C   tau(  30) = (   0.6997920   0.0283934   0.1231482  )
        31           C   tau(  31) = (   0.6986021   0.5304580   0.4324635  )
        32           C   tau(  32) = (   0.9580382   0.4720800   0.0229252  )
        33           C   tau(  33) = (   0.7341003   0.6142040   0.4982314  )
        34           C   tau(  34) = (   0.9948422   0.3892302   0.0892369  )
        35           C   tau(  35) = (   0.7384981   0.8904717   0.4955761  )
        36           C   tau(  36) = (   0.4991718   0.1123917   0.0856467  )
        37           C   tau(  37) = (   0.8947360   0.8906489   0.5977380  )
        38           C   tau(  38) = (   0.6557880   0.1097029   0.1871645  )
        39           C   tau(  39) = (   0.5756247   0.6098498   0.5975737  )
        40           C   tau(  40) = (   0.8367152   0.3921904   0.1884642  )
        41           C   tau(  41) = (   0.5350715   0.5258264   0.5351012  )
        42           C   tau(  42) = (   0.7948780   0.4753867   0.1254988  )
        43           C   tau(  43) = (   0.5981522   0.4849593   0.4519611  )
        44           C   tau(  44) = (   0.8569104   0.5163900   0.0416029  )
        45           C   tau(  45) = (   0.9248178   0.0994604   0.3833638  )
        46           C   tau(  46) = (   0.6639424   0.9010006   0.7933713  )
        47           C   tau(  47) = (   0.5588110   0.3950355   0.3866953  )
        48           C   tau(  48) = (   0.7984059   0.6050320   0.7961934  )
        49           H   tau(  49) = (   0.4693669   0.0026958   0.7751545  )
        50           H   tau(  50) = (   0.0198054   1.0002267   0.5533467  )
        51           H   tau(  51) = (   0.3118554   0.6514319   0.4868937  )
        52           H   tau(  52) = (   0.0732386   0.3533532   0.0780726  )
        53           H   tau(  53) = (   0.1594426   0.8563401   0.4835457  )
        54           H   tau(  54) = (   0.4206861   0.1479423   0.0738480  )
        55           H   tau(  55) = (   0.4386511   0.8563902   0.6644572  )
        56           H   tau(  56) = (   0.2006191   0.1433067   0.2536997  )
        57           H   tau(  57) = (   0.0290492   0.6438591   0.6626884  )
        58           H   tau(  58) = (   0.2907535   0.3580349   0.2539083  )
        59           H   tau(  59) = (   0.9693669   0.0026958   0.7751545  )
        60           H   tau(  60) = (   0.5198044   1.0002267   0.5533467  )
        61           H   tau(  61) = (   0.7505234   0.5016080   0.3691185  )
        62           H   tau(  62) = (   0.4913416   0.5011092   0.7809458  )
        63           H   tau(  63) = (   0.8118554   0.6514319   0.4868937  )
        64           H   tau(  64) = (   0.5732386   0.3533532   0.0780726  )
        65           H   tau(  65) = (   0.6594426   0.8563401   0.4835457  )
        66           H   tau(  66) = (   0.9206861   0.1479423   0.0738480  )
        67           H   tau(  67) = (   0.9386511   0.8563902   0.6644572  )
        68           H   tau(  68) = (   0.7006201   0.1433067   0.2536997  )
        69           H   tau(  69) = (   0.5290492   0.6438591   0.6626884  )
        70           H   tau(  70) = (   0.7907535   0.3580349   0.2539083  )
        71           H   tau(  71) = (   0.9564147   0.4939330   0.5533319  )
        72           H   tau(  72) = (   0.7157623   0.5059201   0.1439924  )
        73           H   tau(  73) = (   0.0939234   0.9645369   0.3493441  )
        74           H   tau(  74) = (   0.1714149   0.1198153   0.3647165  )
        75           H   tau(  75) = (   0.3472445   0.0331491   0.2599099  )
        76           H   tau(  76) = (   0.2999975   0.8786398   0.1947230  )
        77           H   tau(  77) = (   0.3841567   0.5435866   0.3557836  )
        78           H   tau(  78) = (   0.3130172   0.3840949   0.3730530  )
        79           H   tau(  79) = (   0.1284632   0.4415015   0.2332901  )
        80           H   tau(  80) = (   0.1101725   0.4811288   0.0633138  )
        81           H   tau(  81) = (   0.5939234   0.9645369   0.3493441  )
        82           H   tau(  82) = (   0.6714149   0.1198153   0.3647165  )
        83           H   tau(  83) = (   0.8472445   0.0331501   0.2599099  )
        84           H   tau(  84) = (   0.7999975   0.8786408   0.1947230  )
        85           H   tau(  85) = (   0.3852637   0.5295397   0.6692117  )
        86           H   tau(  86) = (   0.4382016   0.3735219   0.6087734  )
        87           H   tau(  87) = (   0.1259163   0.4612185   0.7683666  )
        88           H   tau(  88) = (   0.0523848   0.6197549   0.7843668  )
        89           N   tau(  89) = (   0.2956096   0.8524646   0.5790685  )
        90           N   tau(  90) = (   0.0569790   0.1490689   0.1692870  )
        91           N   tau(  91) = (   0.1736962   0.6512356   0.5798983  )
        92           N   tau(  92) = (   0.4350238   0.3514275   0.1709211  )
        93           N   tau(  93) = (   0.7956096   0.8524646   0.5790685  )
        94           N   tau(  94) = (   0.5569790   0.1490689   0.1692870  )
        95           N   tau(  95) = (   0.6736972   0.6512356   0.5798983  )
        96           N   tau(  96) = (   0.9350238   0.3514275   0.1709211  )
        97           Ni  tau(  97) = (   0.2317814   0.7525556   0.6871039  )
        98           Ni  tau(  98) = (   0.4937992   0.2483520   0.2786599  )
        99           Ni  tau(  99) = (   0.7317814   0.7525556   0.6871039  )
       100           Ni  tau( 100) = (   0.9937992   0.2483520   0.2786599  )
       101           O   tau( 101) = (   0.1158100   0.3481839   0.3145586  )
       102           O   tau( 102) = (   0.3551690   0.6519036   0.7240468  )
       103           O   tau( 103) = (   0.3707656   0.1477170   0.3098797  )
       104           O   tau( 104) = (   0.1091506   0.8535652   0.7199135  )
       105           O   tau( 105) = (   0.4642788   0.3566669   0.3968154  )
       106           O   tau( 106) = (   0.2033039   0.6423280   0.8050417  )
       107           O   tau( 107) = (   0.0200847   0.1353504   0.3952413  )
       108           O   tau( 108) = (   0.2588616   0.8639860   0.8046490  )
       109           O   tau( 109) = (   0.6158110   0.3481839   0.3145586  )
       110           O   tau( 110) = (   0.8551690   0.6519036   0.7240468  )
       111           O   tau( 111) = (   0.8707656   0.1477170   0.3098797  )
       112           O   tau( 112) = (   0.6091506   0.8535652   0.7199135  )
       113           O   tau( 113) = (   0.9642788   0.3566669   0.3968154  )
       114           O   tau( 114) = (   0.7033039   0.6423280   0.8050417  )
       115           O   tau( 115) = (   0.5200847   0.1353504   0.3952413  )
       116           O   tau( 116) = (   0.7588616   0.8639860   0.8046490  )
       117           P   tau( 117) = (   0.1922283   0.0159106   0.3170693  )
       118           P   tau( 118) = (   0.3363373   0.9822671   0.1567687  )
       119           P   tau( 119) = (   0.2886792   0.4861019   0.3230348  )
       120           P   tau( 120) = (   0.1591588   0.5253187   0.1589557  )
       121           P   tau( 121) = (   0.6922283   0.0159106   0.3170693  )
       122           P   tau( 122) = (   0.8363363   0.9822681   0.1567687  )
       123           P   tau( 123) = (   0.3994782   0.4750432   0.5676191  )
       124           P   tau( 124) = (   0.0297076   0.5170749   0.7349475  )

     number of k points=     1  Marzari-Vanderbilt smearing, width (Ry)=  0.2000
                       cart. coord. in units 2pi/alat
        k(    1) = (   0.0000000   0.0000000   0.0000000), wk =   1.0000000

     Dense  grid:   733509 G-vectors     FFT dimensions: ( 160, 160, 125)

     Estimated max dynamical RAM per process >     335.26 MB

     Estimated total dynamical RAM >      10.48 GB
     Generating pointlists ...
     new r_m :   0.0358 (alat units)  0.8461 (a.u.) for type    1
     new r_m :   0.0358 (alat units)  0.8461 (a.u.) for type    2
     new r_m :   0.0445 (alat units)  1.0514 (a.u.) for type    3
     new r_m :   0.0654 (alat units)  1.5454 (a.u.) for type    4
     new r_m :   0.0423 (alat units)  0.9991 (a.u.) for type    5
     new r_m :   0.0479 (alat units)  1.1323 (a.u.) for type    6

     Check: negative core charge=   -0.000142

     Initial potential from superposition of free atoms

     starting charge  447.99538, renormalised to  448.00000
     Starting wfcs are  396 randomized atomic wfcs

     total cpu time spent up to now is       20.9 secs

     Self-consistent Calculation

     iteration #  1     ecut=   100.00 Ry     beta= 0.70
     Davidson diagonalization with overlap
     ethr =  1.00E-02,  avg # of iterations =  3.0

     total cpu time spent up to now is       70.1 secs

     total energy              =   -1752.99860848 Ry
     Harris-Foulkes estimate   =   -1759.36497595 Ry
     estimated scf accuracy    <      16.67754031 Ry

     total magnetization       =     8.00 Bohr mag/cell
     absolute magnetization    =     8.21 Bohr mag/cell

     iteration #  2     ecut=   100.00 Ry     beta= 0.70
     Davidson diagonalization with overlap
     ethr =  3.72E-03,  avg # of iterations =  2.0

     total cpu time spent up to now is       99.8 secs

     total energy              =   -1753.93012845 Ry
     Harris-Foulkes estimate   =   -1756.72006437 Ry
     estimated scf accuracy    <      13.78635974 Ry

     total magnetization       =     8.00 Bohr mag/cell
     absolute magnetization    =     8.26 Bohr mag/cell

     iteration #  3     ecut=   100.00 Ry     beta= 0.70
     Davidson diagonalization with overlap
     ethr =  3.08E-03,  avg # of iterations =  2.0

     total cpu time spent up to now is      127.8 secs

     total energy              =   -1754.54743229 Ry
     Harris-Foulkes estimate   =   -1755.36151605 Ry
     estimated scf accuracy    <       3.40485605 Ry

     total magnetization       =     8.00 Bohr mag/cell
     absolute magnetization    =     8.12 Bohr mag/cell

     iteration #  4     ecut=   100.00 Ry     beta= 0.70
     Davidson diagonalization with overlap
     ethr =  7.60E-04,  avg # of iterations =  6.0

     total cpu time spent up to now is      160.7 secs

     total energy              =   -1754.75208034 Ry
     Harris-Foulkes estimate   =   -1754.99016080 Ry
     estimated scf accuracy    <       1.78079300 Ry

     total magnetization       =     8.00 Bohr mag/cell
     absolute magnetization    =     8.11 Bohr mag/cell

     iteration #  5     ecut=   100.00 Ry     beta= 0.70
     Davidson diagonalization with overlap
     ethr =  3.97E-04,  avg # of iterations =  1.0

     total cpu time spent up to now is      187.8 secs

     total energy              =   -1754.76074927 Ry
     Harris-Foulkes estimate   =   -1754.83379085 Ry
     estimated scf accuracy    <       0.23952309 Ry

     total magnetization       =     8.00 Bohr mag/cell
     absolute magnetization    =     8.13 Bohr mag/cell

     iteration #  6     ecut=   100.00 Ry     beta= 0.70
     Davidson diagonalization with overlap
     ethr =  5.35E-05,  avg # of iterations =  6.5

     total cpu time spent up to now is      224.2 secs

     total energy              =   -1754.73537935 Ry
     Harris-Foulkes estimate   =   -1754.80142264 Ry
     estimated scf accuracy    <       0.77676735 Ry

     total magnetization       =     8.00 Bohr mag/cell
     absolute magnetization    =     8.14 Bohr mag/cell

     iteration #  7     ecut=   100.00 Ry     beta= 0.70
     Davidson diagonalization with overlap
     ethr =  5.35E-05,  avg # of iterations =  1.5

     total cpu time spent up to now is      251.4 secs

     total energy              =   -1754.74821200 Ry
     Harris-Foulkes estimate   =   -1754.76749783 Ry
     estimated scf accuracy    <       0.10199775 Ry

     total magnetization       =     8.00 Bohr mag/cell
     absolute magnetization    =     8.14 Bohr mag/cell

     iteration #  8     ecut=   100.00 Ry     beta= 0.70
     Davidson diagonalization with overlap
     ethr =  2.28E-05,  avg # of iterations =  4.5

     total cpu time spent up to now is      280.8 secs

     total energy              =   -1754.74289799 Ry
     Harris-Foulkes estimate   =   -1754.75561916 Ry
     estimated scf accuracy    <       0.14307392 Ry

     total magnetization       =     8.00 Bohr mag/cell
     absolute magnetization    =     8.14 Bohr mag/cell

     iteration #  9     ecut=   100.00 Ry     beta= 0.70
     Davidson diagonalization with overlap
     ethr =  2.28E-05,  avg # of iterations =  1.5

     total cpu time spent up to now is      308.0 secs

     total energy              =   -1754.74789176 Ry
     Harris-Foulkes estimate   =   -1754.75120581 Ry
     estimated scf accuracy    <       0.05728048 Ry

     total magnetization       =     8.00 Bohr mag/cell
     absolute magnetization    =     8.14 Bohr mag/cell

     iteration # 10     ecut=   100.00 Ry     beta= 0.70
     Davidson diagonalization with overlap
     ethr =  1.28E-05,  avg # of iterations =  4.5

     total cpu time spent up to now is      337.3 secs

     total energy              =   -1754.75283898 Ry
     Harris-Foulkes estimate   =   -1754.75048069 Ry
     estimated scf accuracy    <       0.01341661 Ry

     total magnetization       =     8.00 Bohr mag/cell
     absolute magnetization    =     8.14 Bohr mag/cell

     iteration # 11     ecut=   100.00 Ry     beta= 0.70
     Davidson diagonalization with overlap
     ethr =  2.99E-06,  avg # of iterations =  7.5

     total cpu time spent up to now is      373.8 secs

     total energy              =   -1754.75429203 Ry
     Harris-Foulkes estimate   =   -1754.75355486 Ry
     estimated scf accuracy    <       0.00481351 Ry

     total magnetization       =     8.00 Bohr mag/cell
     absolute magnetization    =     8.13 Bohr mag/cell

     iteration # 12     ecut=   100.00 Ry     beta= 0.70
     Davidson diagonalization with overlap
     ethr =  1.07E-06,  avg # of iterations =  3.0

     total cpu time spent up to now is      402.7 secs

     total energy              =   -1754.75521212 Ry
     Harris-Foulkes estimate   =   -1754.75513437 Ry
     estimated scf accuracy    <       0.01493036 Ry

     total magnetization       =     8.00 Bohr mag/cell
     absolute magnetization    =     8.13 Bohr mag/cell

     iteration # 13     ecut=   100.00 Ry     beta= 0.70
     Davidson diagonalization with overlap
     ethr =  1.07E-06,  avg # of iterations =  3.0

     total cpu time spent up to now is      431.8 secs

     total energy              =   -1754.75624459 Ry
     Harris-Foulkes estimate   =   -1754.75575518 Ry
     estimated scf accuracy    <       0.00104462 Ry

     total magnetization       =     8.00 Bohr mag/cell
     absolute magnetization    =     8.13 Bohr mag/cell

     iteration # 14     ecut=   100.00 Ry     beta= 0.70
     Davidson diagonalization with overlap
     ethr =  2.33E-07,  avg # of iterations =  4.0

     total cpu time spent up to now is      462.6 secs

     total energy              =   -1754.75628264 Ry
     Harris-Foulkes estimate   =   -1754.75640686 Ry
     estimated scf accuracy    <       0.00179408 Ry

     total magnetization       =     8.00 Bohr mag/cell
     absolute magnetization    =     8.13 Bohr mag/cell

     iteration # 15     ecut=   100.00 Ry     beta= 0.70
     Davidson diagonalization with overlap
     ethr =  2.33E-07,  avg # of iterations =  3.0

     total cpu time spent up to now is      491.1 secs

     total energy              =   -1754.75650093 Ry
     Harris-Foulkes estimate   =   -1754.75640428 Ry
     estimated scf accuracy    <       0.00032829 Ry

     total magnetization       =     8.00 Bohr mag/cell
     absolute magnetization    =     8.13 Bohr mag/cell

     iteration # 16     ecut=   100.00 Ry     beta= 0.70
     Davidson diagonalization with overlap
     ethr =  7.33E-08,  avg # of iterations =  3.5

     total cpu time spent up to now is      520.6 secs

     total energy              =   -1754.75652753 Ry
     Harris-Foulkes estimate   =   -1754.75651945 Ry
     estimated scf accuracy    <       0.00018304 Ry

     total magnetization       =     8.00 Bohr mag/cell
     absolute magnetization    =     8.13 Bohr mag/cell

     iteration # 17     ecut=   100.00 Ry     beta= 0.70
     Davidson diagonalization with overlap
     ethr =  4.09E-08,  avg # of iterations =  2.0

     total cpu time spent up to now is      548.3 secs

     total energy              =   -1754.75653463 Ry
     Harris-Foulkes estimate   =   -1754.75653753 Ry
     estimated scf accuracy    <       0.00019520 Ry

     total magnetization       =     8.00 Bohr mag/cell
     absolute magnetization    =     8.13 Bohr mag/cell

     iteration # 18     ecut=   100.00 Ry     beta= 0.70
     Davidson diagonalization with overlap
     ethr =  4.09E-08,  avg # of iterations =  3.0

     total cpu time spent up to now is      576.9 secs

     total energy              =   -1754.75654018 Ry
     Harris-Foulkes estimate   =   -1754.75654267 Ry
     estimated scf accuracy    <       0.00007523 Ry

     total magnetization       =     8.00 Bohr mag/cell
     absolute magnetization    =     8.13 Bohr mag/cell

     iteration # 19     ecut=   100.00 Ry     beta= 0.70
     Davidson diagonalization with overlap
     ethr =  1.68E-08,  avg # of iterations =  3.0

     total cpu time spent up to now is      605.3 secs

     total energy              =   -1754.75653679 Ry
     Harris-Foulkes estimate   =   -1754.75654246 Ry
     estimated scf accuracy    <       0.00005850 Ry

     total magnetization       =     8.00 Bohr mag/cell
     absolute magnetization    =     8.14 Bohr mag/cell

     iteration # 20     ecut=   100.00 Ry     beta= 0.70
     Davidson diagonalization with overlap
     ethr =  1.31E-08,  avg # of iterations =  2.0

     total cpu time spent up to now is      633.0 secs

     total energy              =   -1754.75654247 Ry
     Harris-Foulkes estimate   =   -1754.75654136 Ry
     estimated scf accuracy    <       0.00006736 Ry

     total magnetization       =     8.00 Bohr mag/cell
     absolute magnetization    =     8.14 Bohr mag/cell

     iteration # 21     ecut=   100.00 Ry     beta= 0.70
     Davidson diagonalization with overlap
     ethr =  1.31E-08,  avg # of iterations =  3.0

     total cpu time spent up to now is      661.4 secs

     total energy              =   -1754.75654502 Ry
     Harris-Foulkes estimate   =   -1754.75654512 Ry
     estimated scf accuracy    <       0.00001186 Ry

     total magnetization       =     8.00 Bohr mag/cell
     absolute magnetization    =     8.14 Bohr mag/cell

     iteration # 22     ecut=   100.00 Ry     beta= 0.70
     Davidson diagonalization with overlap
     ethr =  2.65E-09,  avg # of iterations =  4.0

     total cpu time spent up to now is      692.7 secs

     total energy              =   -1754.75654592 Ry
     Harris-Foulkes estimate   =   -1754.75654640 Ry
     estimated scf accuracy    <       0.00001334 Ry

     total magnetization       =     8.00 Bohr mag/cell
     absolute magnetization    =     8.14 Bohr mag/cell

     iteration # 23     ecut=   100.00 Ry     beta= 0.70
     Davidson diagonalization with overlap
     ethr =  2.65E-09,  avg # of iterations =  2.0

     total cpu time spent up to now is      720.5 secs

     total energy              =   -1754.75654663 Ry
     Harris-Foulkes estimate   =   -1754.75654711 Ry
     estimated scf accuracy    <       0.00001002 Ry

     total magnetization       =     8.00 Bohr mag/cell
     absolute magnetization    =     8.14 Bohr mag/cell

     iteration # 24     ecut=   100.00 Ry     beta= 0.70
     Davidson diagonalization with overlap
     ethr =  2.24E-09,  avg # of iterations =  2.0

     total cpu time spent up to now is      748.3 secs

     total energy              =   -1754.75654689 Ry
     Harris-Foulkes estimate   =   -1754.75654697 Ry
     estimated scf accuracy    <       0.00000212 Ry

     total magnetization       =     8.00 Bohr mag/cell
     absolute magnetization    =     8.14 Bohr mag/cell

     iteration # 25     ecut=   100.00 Ry     beta= 0.70
     Davidson diagonalization with overlap
     ethr =  4.73E-10,  avg # of iterations =  3.0

     total cpu time spent up to now is      776.8 secs

     total energy              =   -1754.75654692 Ry
     Harris-Foulkes estimate   =   -1754.75654710 Ry
     estimated scf accuracy    <       0.00000168 Ry

     total magnetization       =     8.00 Bohr mag/cell
     absolute magnetization    =     8.14 Bohr mag/cell

     iteration # 26     ecut=   100.00 Ry     beta= 0.70
     Davidson diagonalization with overlap
     ethr =  3.74E-10,  avg # of iterations =  2.0
 
     Magnetic moment per site:
     atom:    1    charge:    0.8344    magn:    0.0086    constr:    0.0000
     atom:    2    charge:    0.8458    magn:    0.0058    constr:    0.0000
     atom:    3    charge:    0.8475    magn:    0.0031    constr:    0.0000
     atom:    4    charge:    0.8477    magn:    0.0041    constr:    0.0000
     atom:    5    charge:    0.8456    magn:    0.0058    constr:    0.0000
     atom:    6    charge:    0.8342    magn:    0.0070    constr:    0.0000
     atom:    7    charge:    0.8351    magn:    0.0090    constr:    0.0000
     atom:    8    charge:    0.8465    magn:    0.0056    constr:    0.0000
     atom:    9    charge:    0.8369    magn:    0.0055    constr:    0.0000
     atom:   10    charge:    0.8366    magn:    0.0045    constr:    0.0000
     atom:   11    charge:    0.8374    magn:    0.0058    constr:    0.0000
     atom:   12    charge:    0.8368    magn:    0.0042    constr:    0.0000
     atom:   13    charge:    0.8404    magn:    0.0048    constr:    0.0000
     atom:   14    charge:    0.8555    magn:    0.0050    constr:    0.0000
     atom:   15    charge:    0.8507    magn:    0.0050    constr:    0.0000
     atom:   16    charge:    0.8519    magn:    0.0062    constr:    0.0000
     atom:   17    charge:    0.8465    magn:    0.0063    constr:    0.0000
     atom:   18    charge:    0.8330    magn:    0.0066    constr:    0.0000
     atom:   19    charge:    0.8500    magn:    0.0038    constr:    0.0000
     atom:   20    charge:    0.8480    magn:    0.0039    constr:    0.0000
     atom:   21    charge:    0.8244    magn:    0.0008    constr:    0.0000
     atom:   22    charge:    0.8229    magn:   -0.0011    constr:    0.0000
     atom:   23    charge:    0.8241    magn:    0.0003    constr:    0.0000
     atom:   24    charge:    0.8250    magn:    0.0003    constr:    0.0000
     atom:   25    charge:    0.8343    magn:    0.0087    constr:    0.0000
     atom:   26    charge:    0.8458    magn:    0.0058    constr:    0.0000
     atom:   27    charge:    0.8475    magn:    0.0032    constr:    0.0000
     atom:   28    charge:    0.8476    magn:    0.0042    constr:    0.0000
     atom:   29    charge:    0.8456    magn:    0.0058    constr:    0.0000
     atom:   30    charge:    0.8342    magn:    0.0069    constr:    0.0000
     atom:   31    charge:    0.8467    magn:    0.0055    constr:    0.0000
     atom:   32    charge:    0.8351    magn:    0.0091    constr:    0.0000
     atom:   33    charge:    0.8381    magn:    0.0051    constr:    0.0000
     atom:   34    charge:    0.8399    magn:    0.0065    constr:    0.0000
     atom:   35    charge:    0.8373    magn:    0.0058    constr:    0.0000
     atom:   36    charge:    0.8367    magn:    0.0042    constr:    0.0000
     atom:   37    charge:    0.8404    magn:    0.0048    constr:    0.0000
     atom:   38    charge:    0.8553    magn:    0.0051    constr:    0.0000
     atom:   39    charge:    0.8394    magn:    0.0060    constr:    0.0000
     atom:   40    charge:    0.8396    magn:    0.0050    constr:    0.0000
     atom:   41    charge:    0.8320    magn:    0.0053    constr:    0.0000
     atom:   42    charge:    0.8456    magn:    0.0057    constr:    0.0000
     atom:   43    charge:    0.8490    magn:    0.0045    constr:    0.0000
     atom:   44    charge:    0.8462    magn:    0.0039    constr:    0.0000
     atom:   45    charge:    0.8243    magn:    0.0007    constr:    0.0000
     atom:   46    charge:    0.8229    magn:   -0.0013    constr:    0.0000
     atom:   47    charge:    0.8228    magn:   -0.0004    constr:    0.0000
     atom:   48    charge:    0.8236    magn:   -0.0013    constr:    0.0000
     atom:   49    charge:    0.4849    magn:   -0.0013    constr:    0.0000
     atom:   50    charge:    0.4862    magn:   -0.0011    constr:    0.0000
     atom:   51    charge:    0.4887    magn:   -0.0006    constr:    0.0000
     atom:   52    charge:    0.4919    magn:   -0.0004    constr:    0.0000
     atom:   53    charge:    0.4895    magn:   -0.0009    constr:    0.0000
     atom:   54    charge:    0.4895    magn:   -0.0005    constr:    0.0000
     atom:   55    charge:    0.4871    magn:   -0.0009    constr:    0.0000
     atom:   56    charge:    0.4931    magn:    0.0018    constr:    0.0000
     atom:   57    charge:    0.4911    magn:    0.0013    constr:    0.0000
     atom:   58    charge:    0.4929    magn:    0.0016    constr:    0.0000
     atom:   59    charge:    0.4849    magn:   -0.0013    constr:    0.0000
     atom:   60    charge:    0.4862    magn:   -0.0011    constr:    0.0000
     atom:   61    charge:    0.4867    magn:   -0.0011    constr:    0.0000
     atom:   62    charge:    0.4866    magn:   -0.0010    constr:    0.0000
     atom:   63    charge:    0.4908    magn:   -0.0010    constr:    0.0000
     atom:   64    charge:    0.4890    magn:   -0.0010    constr:    0.0000
     atom:   65    charge:    0.4894    magn:   -0.0009    constr:    0.0000
     atom:   66    charge:    0.4893    magn:   -0.0005    constr:    0.0000
     atom:   67    charge:    0.4874    magn:   -0.0009    constr:    0.0000
     atom:   68    charge:    0.4923    magn:    0.0019    constr:    0.0000
     atom:   69    charge:    0.4872    magn:   -0.0008    constr:    0.0000
     atom:   70    charge:    0.4864    magn:   -0.0009    constr:    0.0000
     atom:   71    charge:    0.4820    magn:   -0.0003    constr:    0.0000
     atom:   72    charge:    0.4866    magn:   -0.0012    constr:    0.0000
     atom:   73    charge:    0.4065    magn:    0.0015    constr:    0.0000
     atom:   74    charge:    0.4155    magn:    0.0059    constr:    0.0000
     atom:   75    charge:    0.4051    magn:    0.0026    constr:    0.0000
     atom:   76    charge:    0.4065    magn:    0.0023    constr:    0.0000
     atom:   77    charge:    0.4079    magn:    0.0009    constr:    0.0000
     atom:   78    charge:    0.4124    magn:    0.0049    constr:    0.0000
     atom:   79    charge:    0.4016    magn:    0.0040    constr:    0.0000
     atom:   80    charge:    0.4151    magn:    0.0060    constr:    0.0000
     atom:   81    charge:    0.4065    magn:    0.0015    constr:    0.0000
     atom:   82    charge:    0.4143    magn:    0.0060    constr:    0.0000
     atom:   83    charge:    0.4049    magn:    0.0026    constr:    0.0000
     atom:   84    charge:    0.4063    magn:    0.0024    constr:    0.0000
     atom:   85    charge:    0.4042    magn:    0.0039    constr:    0.0000
     atom:   86    charge:    0.4064    magn:    0.0031    constr:    0.0000
     atom:   87    charge:    0.4100    magn:    0.0011    constr:    0.0000
     atom:   88    charge:    0.4116    magn:    0.0040    constr:    0.0000
     atom:   89    charge:    2.4478    magn:    0.0150    constr:    0.0000
     atom:   90    charge:    2.4542    magn:    0.0187    constr:    0.0000
     atom:   91    charge:    2.4552    magn:    0.0169    constr:    0.0000
     atom:   92    charge:    2.4509    magn:    0.0173    constr:    0.0000
     atom:   93    charge:    2.4474    magn:    0.0149    constr:    0.0000
     atom:   94    charge:    2.4537    magn:    0.0189    constr:    0.0000
     atom:   95    charge:    2.4506    magn:    0.0144    constr:    0.0000
     atom:   96    charge:    2.4503    magn:    0.0147    constr:    0.0000
     atom:   97    charge:    7.4456    magn:    1.1282    constr:    0.0000
     atom:   98    charge:    7.4520    magn:    1.1177    constr:    0.0000
     atom:   99    charge:    7.4360    magn:    1.1329    constr:    0.0000
     atom:  100    charge:    7.4534    magn:    1.1287    constr:    0.0000
     atom:  101    charge:    3.2786    magn:    0.0384    constr:    0.0000
     atom:  102    charge:    3.2674    magn:    0.0467    constr:    0.0000
     atom:  103    charge:    3.2806    magn:    0.0390    constr:    0.0000
     atom:  104    charge:    3.2589    magn:    0.0528    constr:    0.0000
     atom:  105    charge:    3.2687    magn:    0.0461    constr:    0.0000
     atom:  106    charge:    3.2703    magn:    0.0434    constr:    0.0000
     atom:  107    charge:    3.2697    magn:    0.0451    constr:    0.0000
     atom:  108    charge:    3.2608    magn:    0.0485    constr:    0.0000
     atom:  109    charge:    3.2610    magn:    0.0504    constr:    0.0000
     atom:  110    charge:    3.2621    magn:    0.0478    constr:    0.0000
     atom:  111    charge:    3.2793    magn:    0.0400    constr:    0.0000
     atom:  112    charge:    3.2577    magn:    0.0545    constr:    0.0000
     atom:  113    charge:    3.2581    magn:    0.0459    constr:    0.0000
     atom:  114    charge:    3.2585    magn:    0.0564    constr:    0.0000
     atom:  115    charge:    3.2696    magn:    0.0447    constr:    0.0000
     atom:  116    charge:    3.2604    magn:    0.0495    constr:    0.0000
     atom:  117    charge:    0.6783    magn:    0.0098    constr:    0.0000
     atom:  118    charge:    0.6803    magn:    0.0091    constr:    0.0000
     atom:  119    charge:    0.6794    magn:    0.0103    constr:    0.0000
     atom:  120    charge:    0.6840    magn:    0.0121    constr:    0.0000
     atom:  121    charge:    0.6781    magn:    0.0098    constr:    0.0000
     atom:  122    charge:    0.6803    magn:    0.0091    constr:    0.0000
     atom:  123    charge:    0.6753    magn:    0.0114    constr:    0.0000
     atom:  124    charge:    0.6813    magn:    0.0110    constr:    0.0000

     total cpu time spent up to now is      804.1 secs

     End of self-consistent calculation

 ------ SPIN UP ------------


          k = 0.0000 0.0000 0.0000 ( 91663 PWs)   bands (ev):

   -21.3985 -21.3908 -21.2741 -21.2423 -21.0509 -21.0005 -20.9556 -20.8743
   -18.4653 -18.4311 -18.3341 -18.3147 -18.2113 -18.1875 -18.1395 -18.1033
   -18.0270 -17.9954 -17.9780 -17.9608 -17.8428 -17.7538 -17.7243 -17.6465
   -14.7203 -14.7006 -14.5864 -14.4170 -14.3210 -14.2862 -14.2603 -14.0975
   -13.9729 -13.9526 -13.8988 -13.6987 -13.1957 -12.9343 -12.8813 -12.8314
   -11.6158 -11.5469 -11.3818 -11.0663 -10.9803 -10.9480 -10.8467 -10.5347
   -10.4885 -10.4567 -10.4505 -10.2942 -10.2255 -10.2201 -10.1725 -10.0010
    -9.6549  -9.4673  -9.4252  -9.3734  -9.1103  -9.0836  -8.8506  -8.7587
    -8.3850  -8.2662  -8.2017  -8.0158  -7.6370  -7.6112  -7.5445  -7.4478
    -7.0922  -7.0621  -6.9195  -6.7672  -6.7536  -6.7070  -6.6298  -6.5846
    -6.5054  -6.4632  -6.4223  -6.4154  -6.3616  -6.2970  -6.2152  -6.1362
    -6.0144  -5.9914  -5.8854  -5.7935  -5.7312  -5.7059  -5.6543  -5.6223
    -5.4724  -5.4667  -5.3964  -5.3727  -5.3554  -5.3198  -5.2959  -5.2414
    -5.2104  -5.1637  -5.1469  -5.1340  -5.0838  -5.0581  -5.0365  -4.9925
    -4.9855  -4.9345  -4.8748  -4.8519  -4.8076  -4.7664  -4.7301  -4.6766
    -4.5818  -4.5395  -4.5138  -4.4616  -4.3855  -4.3603  -4.2685  -4.2304
    -4.0633  -4.0580  -3.9886  -3.8973  -3.8722  -3.8195  -3.7686  -3.6544
    -3.5787  -3.5084  -3.4891  -3.4770  -3.3782  -3.3208  -3.2497  -3.2433
    -3.1862  -3.1451  -3.1097  -3.0104  -2.9573  -2.7561  -2.7300  -2.6666
    -2.6348  -2.6024  -2.5818  -2.5194  -2.5055  -2.4465  -2.3989  -2.3608
    -2.3280  -2.2154  -2.1684  -2.1425  -2.0704  -2.0232  -1.9497  -1.9189
    -1.8956  -1.8728  -1.8080  -1.7819  -1.7558  -1.6867  -1.6490  -1.6161
    -1.5973  -1.5906  -1.5264  -1.4668  -1.4506  -1.4335  -1.3567  -1.3350
    -1.2714  -1.1956  -1.1790  -1.1279  -1.1099  -1.0825  -1.0180  -0.9906
    -0.9427  -0.9099  -0.8844  -0.8571  -0.8253  -0.8108  -0.7498  -0.7371
    -0.6919  -0.6270  -0.6019  -0.5807  -0.5507  -0.5073  -0.4583  -0.4463
    -0.3546  -0.3429  -0.2622  -0.1765  -0.1020   0.1569   0.3932   0.4351
     0.7452   1.0558   1.1124   1.1571   1.2760   1.3834   1.4101   1.5141
     1.5672   1.6604   1.6757   1.9766   2.9755   3.0273   3.0332   3.1217
     3.3084   3.3340   3.3755   3.3975   3.6000   3.6369   3.6634   3.8620
     4.3220   4.3730   4.4423   4.5795   4.6294   4.7645   4.8937   5.0783
     5.1290   5.1325   5.2800   5.3234   5.4387   5.5082   5.6263   5.6815
     5.7159   5.8652   5.8884   5.9710   5.9875   6.0754   6.0983   6.1967
     6.2179   6.2837   6.3788   6.4444   6.5018   6.6844   6.7041   6.8790
     6.9158   6.9481

 ------ SPIN DOWN ----------


          k = 0.0000 0.0000 0.0000 ( 91663 PWs)   bands (ev):

   -21.3194 -21.3121 -21.1962 -21.1579 -20.9620 -20.9039 -20.8625 -20.7785
   -18.3708 -18.3322 -18.2354 -18.2109 -18.1700 -18.1440 -18.0981 -18.0067
   -17.9698 -17.8756 -17.8541 -17.8382 -17.8050 -17.7174 -17.6880 -17.6100
   -14.6758 -14.6563 -14.5431 -14.3778 -14.2782 -14.2486 -14.2224 -14.0602
   -13.9349 -13.9147 -13.8567 -13.6572 -13.1539 -12.8934 -12.8405 -12.7917
   -11.5691 -11.5052 -11.3387 -11.0212 -10.9386 -10.9014 -10.8061 -10.4933
   -10.4454 -10.4149 -10.4098 -10.2525 -10.1857 -10.1787 -10.1320  -9.9606
    -9.6119  -9.4299  -9.3887  -9.3348  -9.0700  -9.0435  -8.8112  -8.7154
    -8.3512  -8.2334  -8.1632  -7.9813  -7.5953  -7.5696  -7.5042  -7.4103
    -7.0372  -7.0106  -6.8675  -6.7248  -6.7058  -6.6563  -6.5798  -6.5346
    -6.4553  -6.4117  -6.3675  -6.3599  -6.3118  -6.2376  -6.1681  -6.0713
    -5.9502  -5.9192  -5.8173  -5.7325  -5.6559  -5.6326  -5.5784  -5.5415
    -5.4014  -5.3833  -5.3113  -5.2967  -5.2733  -5.2464  -5.2051  -5.1759
    -5.1326  -5.0898  -5.0551  -5.0267  -4.9967  -4.9702  -4.9402  -4.9220
    -4.9013  -4.8689  -4.8085  -4.7566  -4.7367  -4.6779  -4.6345  -4.5915
    -4.5178  -4.4853  -4.4612  -4.3878  -4.3321  -4.2912  -4.2110  -4.1606
    -4.0134  -3.9891  -3.9294  -3.8391  -3.8041  -3.7396  -3.7041  -3.5976
    -3.4961  -3.4368  -3.3992  -3.3954  -3.2940  -3.2104  -3.1797  -3.0993
    -3.0736  -2.9439  -2.8934  -2.8361  -2.6642  -2.6508  -2.6257  -2.5171
    -2.4841  -2.4692  -2.4063  -2.3681  -2.3381  -2.2416  -2.1679  -2.1216
    -2.0735  -2.0152  -1.9831  -1.9538  -1.8704  -1.8356  -1.7509  -1.7386
    -1.7318  -1.6618  -1.6101  -1.5309  -1.4636  -1.4102  -1.3869  -1.3822
    -1.3541  -1.3193  -1.2645  -1.2623  -1.1564  -1.1310  -1.0914  -1.0681
    -1.0325  -0.9936  -0.9528  -0.8941  -0.8915  -0.8105  -0.7831  -0.7295
    -0.6935  -0.5950  -0.5414  -0.4764  -0.4350  -0.3275  -0.2452  -0.1531
    -0.1431  -0.0457   0.0665   0.1009   0.1799   0.2449   0.2477   0.2748
     0.2997   0.3184   0.3323   0.3795   0.3851   0.4552   0.5784   0.6525
     0.9506   1.3174   1.4795   1.8754   1.9337   2.0063   2.1053   2.1094
     2.2329   2.3152   2.3280   2.3926   3.0918   3.1407   3.1522   3.2238
     3.3968   3.4351   3.4707   3.5009   3.6919   3.7222   3.7495   3.9484
     4.4050   4.4580   4.5268   4.6608   4.6941   4.8306   4.9589   5.1440
     5.1976   5.2057   5.3523   5.3920   5.5019   5.5711   5.7026   5.7483
     5.7838   5.9326   5.9628   6.0414   6.0574   6.1467   6.1626   6.2491
     6.2775   6.3453   6.4376   6.5009   6.5534   6.7374   6.7594   6.9286
     6.9665   6.9965

     the spin up/dw Fermi energies are     1.8818    1.5343 ev

!    total energy              =   -1754.75654694 Ry
     Harris-Foulkes estimate   =   -1754.75654706 Ry
     estimated scf accuracy    <       0.00000067 Ry

     The total energy is the sum of the following terms:

     one-electron contribution =   -2396.79919381 Ry
     hartree contribution      =    1372.85998893 Ry
     xc contribution           =    -547.09381097 Ry
     ewald contribution        =    -185.78037719 Ry
     Dispersion Correction     =      -0.62787843 Ry
     smearing contrib. (-TS)   =       2.68472453 Ry

     total magnetization       =     8.00 Bohr mag/cell
     absolute magnetization    =     8.14 Bohr mag/cell

     convergence has been achieved in  26 iterations

     Forces acting on atoms (cartesian axes, Ry/au):

     atom    1 type  1   force =    -0.01760892   -0.01466069   -0.01581750
     atom    2 type  1   force =     0.00286560    0.00262687    0.00182285
     atom    3 type  1   force =     0.01285154    0.01910800   -0.01624246
     atom    4 type  1   force =    -0.00040256   -0.01415702   -0.01668802
     atom    5 type  1   force =    -0.00832918   -0.01308943    0.00449407
     atom    6 type  1   force =     0.06063477   -0.00998633   -0.03609499
     atom    7 type  1   force =     0.01183345    0.00858528   -0.02801696
     atom    8 type  1   force =     0.00389638   -0.00966666    0.01447280
     atom    9 type  1   force =    -0.01081695    0.00155907    0.00878499
     atom   10 type  1   force =    -0.01000953    0.01098052   -0.00121258
     atom   11 type  1   force =     0.00095766   -0.00047005   -0.00032138
     atom   12 type  1   force =     0.01608603   -0.01015000    0.00404172
     atom   13 type  1   force =     0.00634647    0.00652012   -0.00458713
     atom   14 type  1   force =    -0.01687728    0.01445516   -0.06466640
     atom   15 type  1   force =     0.00733936    0.00843722   -0.05931996
     atom   16 type  1   force =     0.01994100   -0.01509179   -0.05277500
     atom   17 type  1   force =    -0.00453099    0.00238798   -0.02950468
     atom   18 type  1   force =    -0.06178094    0.01981130   -0.02772191
     atom   19 type  1   force =    -0.00640708   -0.02569132   -0.01970723
     atom   20 type  1   force =    -0.00027427    0.01751655   -0.02027274
     atom   21 type  1   force =     0.03159634   -0.00318740    0.04890521
     atom   22 type  1   force =    -0.01091885   -0.00331167   -0.00721159
     atom   23 type  1   force =    -0.05899711    0.00938133    0.05474970
     atom   24 type  1   force =     0.00316762   -0.00112184    0.02115350
     atom   25 type  1   force =    -0.01685115   -0.01443470   -0.01586106
     atom   26 type  1   force =     0.00299714    0.00249853    0.00171134
     atom   27 type  1   force =     0.01295633    0.01886205   -0.01592658
     atom   28 type  1   force =    -0.00063553   -0.01393423   -0.01636306
     atom   29 type  1   force =    -0.00845854   -0.01318546    0.00436024
     atom   30 type  1   force =     0.06016422   -0.00972842   -0.03570070
     atom   31 type  1   force =     0.00282724    0.00601730    0.00959236
     atom   32 type  1   force =    -0.00616769   -0.01519892   -0.03529613
     atom   33 type  1   force =    -0.00693709   -0.00936126   -0.00299864
     atom   34 type  1   force =    -0.03747047   -0.03117900    0.00729532
     atom   35 type  1   force =     0.00053400   -0.00093088    0.00025411
     atom   36 type  1   force =     0.01698408   -0.00972066    0.00493687
     atom   37 type  1   force =     0.00561132    0.00619526   -0.00497893
     atom   38 type  1   force =    -0.01776516    0.01484286   -0.06467068
     atom   39 type  1   force =     0.00016110    0.00776475   -0.00007808
     atom   40 type  1   force =    -0.00701409    0.01009147   -0.00689336
     atom   41 type  1   force =    -0.05484501   -0.00484293    0.00914692
     atom   42 type  1   force =     0.00909053   -0.01059297    0.00452923
     atom   43 type  1   force =    -0.00050287   -0.01315112   -0.01559855
     atom   44 type  1   force =    -0.00521198    0.01220729   -0.00988414
     atom   45 type  1   force =     0.02842594   -0.00167953    0.04640294
     atom   46 type  1   force =    -0.01300376   -0.00419779   -0.00909030
     atom   47 type  1   force =     0.03229643    0.00625260   -0.01252487
     atom   48 type  1   force =    -0.01544682    0.00238257    0.00574127
     atom   49 type  2   force =     0.00092003   -0.00347018   -0.00270890
     atom   50 type  2   force =     0.00110241    0.00315635   -0.00160831
     atom   51 type  2   force =    -0.00014719    0.01019813   -0.00284624
     atom   52 type  2   force =    -0.00614277   -0.02140748   -0.00538758
     atom   53 type  2   force =    -0.00343935   -0.00228574   -0.00010021
     atom   54 type  2   force =     0.00193438    0.01216322   -0.00507394
     atom   55 type  2   force =    -0.00100171   -0.00023988    0.00019010
     atom   56 type  2   force =     0.02268722    0.07788185   -0.06676748
     atom   57 type  2   force =    -0.01462349    0.06462713   -0.05805016
     atom   58 type  2   force =    -0.01366041   -0.06623377   -0.05793468
     atom   59 type  2   force =     0.00087120   -0.00340718   -0.00272921
     atom   60 type  2   force =     0.00109248    0.00311813   -0.00161752
     atom   61 type  2   force =    -0.00092655   -0.00261722   -0.00221592
     atom   62 type  2   force =     0.00443622    0.00304415    0.00165554
     atom   63 type  2   force =     0.00002095    0.00109220    0.00155074
     atom   64 type  2   force =     0.00045369   -0.00208040    0.00244182
     atom   65 type  2   force =    -0.00312271   -0.00235452   -0.00002095
     atom   66 type  2   force =     0.00194039    0.01223104   -0.00497801
     atom   67 type  2   force =    -0.00122370    0.00001602    0.00023081
     atom   68 type  2   force =     0.02280563    0.07875674   -0.06666181
     atom   69 type  2   force =     0.00265193    0.00214523    0.00089164
     atom   70 type  2   force =     0.00087796   -0.00005393    0.00054934
     atom   71 type  2   force =    -0.01096571   -0.00085926   -0.01340955
     atom   72 type  2   force =    -0.00133490    0.00370748   -0.00371098
     atom   73 type  2   force =     0.01813668    0.00118898   -0.02244794
     atom   74 type  2   force =     0.01189807   -0.04741773    0.03376882
     atom   75 type  2   force =    -0.00244326    0.00148169   -0.03549197
     atom   76 type  2   force =     0.01800564    0.00954586   -0.01204467
     atom   77 type  2   force =    -0.01850012   -0.00586595   -0.02012130
     atom   78 type  2   force =    -0.01339013    0.04313197    0.01653759
     atom   79 type  2   force =    -0.00006937   -0.00564617   -0.00675179
     atom   80 type  2   force =     0.02686223    0.03622034    0.01516340
     atom   81 type  2   force =     0.01822896    0.00106795   -0.02260222
     atom   82 type  2   force =     0.01179868   -0.04713639    0.03372888
     atom   83 type  2   force =    -0.00220658    0.00241815   -0.03489664
     atom   84 type  2   force =     0.01828396    0.00979102   -0.01221658
     atom   85 type  2   force =    -0.00104782   -0.00107114   -0.03941778
     atom   86 type  2   force =    -0.02164321    0.01172473   -0.01587268
     atom   87 type  2   force =    -0.01426334    0.00182117   -0.02160861
     atom   88 type  2   force =    -0.01234760   -0.04731244    0.01157791
     atom   89 type  3   force =    -0.00152063   -0.00482362    0.00426637
     atom   90 type  3   force =    -0.02890471    0.02834858    0.01404037
     atom   91 type  3   force =     0.01802677    0.01863978    0.01187750
     atom   92 type  3   force =     0.02251811   -0.01916954    0.00880983
     atom   93 type  3   force =    -0.00146182   -0.00365122    0.00424345
     atom   94 type  3   force =    -0.02914044    0.02638041    0.01413708
     atom   95 type  3   force =     0.00193971    0.00517735    0.00206137
     atom   96 type  3   force =     0.00425258   -0.01070648    0.00503598
     atom   97 type  4   force =     0.00836911    0.00707625   -0.00632426
     atom   98 type  4   force =     0.01419683    0.01172320   -0.00343508
     atom   99 type  4   force =     0.00557817   -0.00547143   -0.00034861
     atom  100 type  4   force =    -0.00458262    0.00721181   -0.00187125
     atom  101 type  5   force =     0.04259914   -0.02149827   -0.01662148
     atom  102 type  5   force =     0.01147791    0.00943840    0.00915541
     atom  103 type  5   force =    -0.03160213    0.03209595    0.00407926
     atom  104 type  5   force =    -0.00485541    0.00253842    0.00314941
     atom  105 type  5   force =    -0.00820925   -0.01089513    0.01719764
     atom  106 type  5   force =     0.00944697    0.01078724    0.02140709
     atom  107 type  5   force =    -0.02123210    0.01216245    0.01221465
     atom  108 type  5   force =     0.01368513    0.01035030    0.01367497
     atom  109 type  5   force =    -0.00044311    0.00192058    0.00601629
     atom  110 type  5   force =     0.02564125   -0.00990256   -0.00660623
     atom  111 type  5   force =    -0.02809665    0.02826280    0.00536816
     atom  112 type  5   force =    -0.00169032    0.00561030    0.00433142
     atom  113 type  5   force =     0.01745933    0.00883272    0.00090332
     atom  114 type  5   force =     0.00091972   -0.00308598    0.00250965
     atom  115 type  5   force =    -0.02286453    0.01164549    0.01214727
     atom  116 type  5   force =     0.01394144    0.01046008    0.01359503
     atom  117 type  6   force =    -0.01420759   -0.04901662    0.18317306
     atom  118 type  6   force =    -0.06780022   -0.06896882   -0.01546322
     atom  119 type  6   force =     0.00086114    0.04708197    0.17349303
     atom  120 type  6   force =     0.07247626    0.02398659   -0.01224523
     atom  121 type  6   force =    -0.01434502   -0.04835325    0.18299395
     atom  122 type  6   force =    -0.06840482   -0.06927155   -0.01544185
     atom  123 type  6   force =     0.08929499   -0.03826314    0.02287654
     atom  124 type  6   force =    -0.01813274   -0.02348518    0.14023626

     Total force =     0.553396     Total SCF correction =     0.001809

     BFGS Geometry Optimization

     number of scf cycles    =   1
     number of bfgs steps    =   0

     energy   new            =   -1754.7565469370 Ry

     new trust radius        =       0.1901495575 bohr
     new conv_thr            =       0.0000010000 Ry


ATOMIC_POSITIONS (crystal)
C             0.2874520480        0.9694305114        0.5211693189
C             0.0385019672        0.0312169984        0.0224018858
C             0.3911625909        0.0125774099        0.5456554312
C             0.1402113230        0.9871457942        0.0452864827
C             0.4515667617        0.9696489054        0.6506024674
C             0.2050519395        0.0279310269        0.1480339261
C             0.2086554731        0.5300667715        0.5249409854
C             0.4587234426        0.4710005346        0.0286494223
C             0.2446875129        0.6133968788        0.6068874711
C             0.4963943078        0.3891409826        0.1085545460
C             0.2495162223        0.8891861379        0.6031864473
C             0.0017534723        0.1118031108        0.1044551690
C             0.4082412527        0.8896585082        0.7273157394
C             0.1591602186        0.1101578041        0.2244813539
C             0.0891169624        0.6093395153        0.7242967227
C             0.3416843388        0.3909952951        0.2266758215
C             0.0467056137        0.5251799041        0.6497923602
C             0.2950177406        0.4755481281        0.1513261817
C             0.1078744104        0.4831844114        0.5491009784
C             0.3578013914        0.5163961631        0.0495938517
C             0.4346928478        0.0991843161        0.4691398650
C             0.1810482067        0.8995800651        0.9653005666
C             0.0649328446        0.3948704087        0.4734958856
C             0.3161968669        0.6041245966        0.9701965120
C             0.7874840726        0.9694400607        0.5211670756
C             0.5385074288        0.0312115754        0.0223961427
C             0.8911673210        0.0125670175        0.5456717009
C             0.6402017692        0.9871552080        0.0453032199
C             0.9515611621        0.9696448474        0.6505955743
C             0.7050323977        0.0279419249        0.1480542340
C             0.7083106268        0.5299582615        0.5268780549
C             0.9582519275        0.4707667685        0.0260860714
C             0.7448406445        0.6129354391        0.6062805550
C             0.9952402670        0.3873595289        0.1089927455
C             0.7494988343        0.8891666656        0.6032160880
C             0.5017923127        0.1118212529        0.1045012735
C             0.9082097773        0.8896447813        0.7272955602
C             0.6591216438        0.1101741861        0.2244811337
C             0.5888687437        0.6093111001        0.7273479787
C             0.8405867358        0.3920594157        0.2290389573
C             0.5446127954        0.5248743617        0.6517831123
C             0.7980469134        0.4742633931        0.1529872781
C             0.6081280996        0.4837142985        0.5493125962
C             0.8576021891        0.5161718201        0.0501289168
C             0.9345563459        0.0992480314        0.4690109856
C             0.6809582220        0.8995426221        0.9652038039
C             0.5687318903        0.3947382039        0.4700309062
C             0.8153947459        0.6042726758        0.9694027045
H             0.4865743921        0.0025453671        0.9433594781
H             0.0321081410        0.9989383716        0.6734371637
H             0.3226321038        0.6509369226        0.5924884041
H             0.0747030172        0.3519464254        0.0947505125
H             0.1700083691        0.8550264160        0.5885548387
H             0.4223990975        0.1482459578        0.0896246665
H             0.4533277905        0.8551628640        0.8087707911
H             0.2071364295        0.1463939033        0.3053581377
H             0.0430557899        0.6456748241        0.8036181239
H             0.2957456512        0.3547272870        0.3060670718
H             0.9865723068        0.0025480296        0.9433584319
H             0.5321067123        0.9989367568        0.6734366898
H             0.7586587159        0.5007844090        0.4491678691
H             0.5088302714        0.5005256306        0.9506332687
H             0.8226433399        0.6505521509        0.5927148708
H             0.5749894869        0.3527630924        0.0951537661
H             0.6700218423        0.8550235095        0.5885589209
H             0.9223994417        0.1482488236        0.0896296076
H             0.9533184351        0.8551736771        0.8087728878
H             0.7071425393        0.1464308718        0.3053635807
H             0.5438420529        0.6430346467        0.8066539238
H             0.7964156661        0.3575237210        0.3090792940
H             0.9681954139        0.4931946917        0.6728113407
H             0.7188920347        0.5053576600        0.1750728657
H             0.1024084160        0.9632162404        0.4240568181
H             0.1800291230        0.1176413601        0.4456632647
H             0.3528653443        0.0331646089        0.3145279847
H             0.3050616225        0.8777943609        0.2363916387
H             0.3912363024        0.5425661337        0.4320146516
H             0.3207298955        0.3853715446        0.4549227692
H             0.1336217356        0.4406354206        0.2836072487
H             0.1127258949        0.4819754931        0.0778449917
H             0.6024121760        0.9632111263        0.4240488718
H             0.6800248797        0.1176532485        0.4456612077
H             0.8528759174        0.0332051792        0.3145586467
H             0.8050732383        0.8778057202        0.2363827846
H             0.4000067127        0.5287417391        0.8125177853
H             0.4507562846        0.3734864294        0.7401664768
H             0.1423131885        0.4606399536        0.9341240476
H             0.0692483612        0.6168748091        0.9553083206
N             0.3083766535        0.8510491777        0.7050477394
N             0.0595190517        0.1500548712        0.2067751498
N             0.1873159404        0.6510976252        0.7064497511
N             0.4397711167        0.3501179896        0.2084947506
N             0.8083791203        0.8510987175        0.7050465592
N             0.5595091673        0.1499717060        0.2067801310
N             0.6866270115        0.6505287695        0.7059441712
N             0.9389946695        0.3504755970        0.2083003784
Ni            0.2473502127        0.7517850076        0.8360002686
Ni            0.5005695220        0.2484943649        0.3390010761
Ni            0.7472377147        0.7512548041        0.8363080447
Ni            0.9997763314        0.2483037358        0.3390816214
O             0.1245650118        0.3467805889        0.3820169100
O             0.3717022720        0.6513758204        0.8817635497
O             0.3762965725        0.1488632168        0.3773881023
O             0.1248954943        0.8524592613        0.8764232107
O             0.4727377441        0.3556996255        0.4838797654
O             0.2215568166        0.6418708154        0.9809795734
O             0.0279530086        0.1356719251        0.4817071163
O             0.2772779078        0.8631953525        0.9801033297
O             0.6227658891        0.3477701543        0.3831828693
O             0.8722868229        0.6505585666        0.8809517461
O             0.8764461161        0.1487012466        0.3774544876
O             0.6250305337        0.8525890638        0.8764840902
O             0.9738086421        0.3565332273        0.4830405257
O             0.7211782708        0.6412846019        0.9800062595
O             0.5278838688        0.1356500813        0.4817036455
O             0.7772886787        0.8631999915        0.9800992125
P             0.1988225019        0.0138167991        0.3953633368
P             0.3369265244        0.9779567173        0.1900185664
P             0.2960340648        0.4874004521        0.4021257663
P             0.1657353708        0.5255855553        0.1928463090
P             0.6988165185        0.0138448297        0.3953541118
P             0.8368999604        0.9779449253        0.1900196668
P             0.4158519808        0.4727511881        0.6920702575
P             0.0453521608        0.5153476320        0.9017828752



     Writing output data file ./QE_relaxation_results/pbesol_relax/NiPyC2_relax_sc211_meta_functionalized_PH2_pbesol_relax.save/
     NEW-OLD atomic charge density approx. for the potential

     Check: negative core charge=   -0.000143

     total cpu time spent up to now is      817.7 secs

     Self-consistent Calculation

     iteration #  1     ecut=   100.00 Ry     beta= 0.70
     Davidson diagonalization with overlap
     ethr =  1.00E-06,  avg # of iterations = 12.5

     total cpu time spent up to now is      955.6 secs

     total energy              =   -1754.96220448 Ry
     Harris-Foulkes estimate   =   -1754.97169964 Ry
     estimated scf accuracy    <       0.03117147 Ry

     total magnetization       =     8.00 Bohr mag/cell
     absolute magnetization    =     8.15 Bohr mag/cell

     iteration #  2     ecut=   100.00 Ry     beta= 0.70
     Davidson diagonalization with overlap
     ethr =  6.96E-06,  avg # of iterations =  2.0

     total cpu time spent up to now is      983.4 secs

     total energy              =   -1754.96188219 Ry
     Harris-Foulkes estimate   =   -1754.96496305 Ry
     estimated scf accuracy    <       0.01274250 Ry

     total magnetization       =     8.00 Bohr mag/cell
     absolute magnetization    =     8.15 Bohr mag/cell

     iteration #  3     ecut=   100.00 Ry     beta= 0.70
     Davidson diagonalization with overlap
     ethr =  2.84E-06,  avg # of iterations =  2.0

     total cpu time spent up to now is     1011.8 secs

     total energy              =   -1754.96109787 Ry
     Harris-Foulkes estimate   =   -1754.96575936 Ry
     estimated scf accuracy    <       0.04116254 Ry

     total magnetization       =     8.00 Bohr mag/cell
     absolute magnetization    =     8.15 Bohr mag/cell

     iteration #  4     ecut=   100.00 Ry     beta= 0.70
     Davidson diagonalization with overlap
     ethr =  2.84E-06,  avg # of iterations =  2.0

     total cpu time spent up to now is     1039.6 secs

     total energy              =   -1754.96318142 Ry
     Harris-Foulkes estimate   =   -1754.96380882 Ry
     estimated scf accuracy    <       0.00681142 Ry

     total magnetization       =     8.00 Bohr mag/cell
     absolute magnetization    =     8.15 Bohr mag/cell

     iteration #  5     ecut=   100.00 Ry     beta= 0.70
     Davidson diagonalization with overlap
     ethr =  1.52E-06,  avg # of iterations =  1.0

     total cpu time spent up to now is     1066.7 secs

     total energy              =   -1754.96330488 Ry
     Harris-Foulkes estimate   =   -1754.96371631 Ry
     estimated scf accuracy    <       0.00390823 Ry

     total magnetization       =     8.00 Bohr mag/cell
     absolute magnetization    =     8.15 Bohr mag/cell

     iteration #  6     ecut=   100.00 Ry     beta= 0.70
     Davidson diagonalization with overlap
     ethr =  8.72E-07,  avg # of iterations =  2.0

     total cpu time spent up to now is     1094.1 secs

     total energy              =   -1754.96342361 Ry
     Harris-Foulkes estimate   =   -1754.96350280 Ry
     estimated scf accuracy    <       0.00050784 Ry

     total magnetization       =     8.00 Bohr mag/cell
     absolute magnetization    =     8.15 Bohr mag/cell

     iteration #  7     ecut=   100.00 Ry     beta= 0.70
     Davidson diagonalization with overlap
     ethr =  1.13E-07,  avg # of iterations =  4.0

     total cpu time spent up to now is     1124.5 secs

     total energy              =   -1754.96342912 Ry
     Harris-Foulkes estimate   =   -1754.96345057 Ry
     estimated scf accuracy    <       0.00016011 Ry

     total magnetization       =     8.00 Bohr mag/cell
     absolute magnetization    =     8.15 Bohr mag/cell

     iteration #  8     ecut=   100.00 Ry     beta= 0.70
     Davidson diagonalization with overlap
     ethr =  3.57E-08,  avg # of iterations =  2.0

     total cpu time spent up to now is     1152.2 secs

     total energy              =   -1754.96341567 Ry
     Harris-Foulkes estimate   =   -1754.96345307 Ry
     estimated scf accuracy    <       0.00043189 Ry

     total magnetization       =     8.00 Bohr mag/cell
     absolute magnetization    =     8.15 Bohr mag/cell

     iteration #  9     ecut=   100.00 Ry     beta= 0.70
     Davidson diagonalization with overlap
     ethr =  3.57E-08,  avg # of iterations =  2.0

     total cpu time spent up to now is     1179.8 secs

     total energy              =   -1754.96343412 Ry
     Harris-Foulkes estimate   =   -1754.96343884 Ry
     estimated scf accuracy    <       0.00007537 Ry

     total magnetization       =     8.00 Bohr mag/cell
     absolute magnetization    =     8.15 Bohr mag/cell

     iteration # 10     ecut=   100.00 Ry     beta= 0.70
     Davidson diagonalization with overlap
     ethr =  1.68E-08,  avg # of iterations =  3.0

     total cpu time spent up to now is     1208.4 secs

     total energy              =   -1754.96343873 Ry
     Harris-Foulkes estimate   =   -1754.96343769 Ry
     estimated scf accuracy    <       0.00001244 Ry

     total magnetization       =     8.00 Bohr mag/cell
     absolute magnetization    =     8.15 Bohr mag/cell

     iteration # 11     ecut=   100.00 Ry     beta= 0.70
     Davidson diagonalization with overlap
     ethr =  2.78E-09,  avg # of iterations =  3.0

     total cpu time spent up to now is     1239.2 secs

     total energy              =   -1754.96344000 Ry
     Harris-Foulkes estimate   =   -1754.96343932 Ry
     estimated scf accuracy    <       0.00000630 Ry

     total magnetization       =     8.00 Bohr mag/cell
     absolute magnetization    =     8.15 Bohr mag/cell

     iteration # 12     ecut=   100.00 Ry     beta= 0.70
     Davidson diagonalization with overlap
     ethr =  1.41E-09,  avg # of iterations =  4.0

     total cpu time spent up to now is     1269.4 secs

     total energy              =   -1754.96343987 Ry
     Harris-Foulkes estimate   =   -1754.96344079 Ry
     estimated scf accuracy    <       0.00001310 Ry

     total magnetization       =     8.00 Bohr mag/cell
     absolute magnetization    =     8.15 Bohr mag/cell

     iteration # 13     ecut=   100.00 Ry     beta= 0.70
     Davidson diagonalization with overlap
     ethr =  1.41E-09,  avg # of iterations =  2.0

     total cpu time spent up to now is     1297.3 secs

     total energy              =   -1754.96344038 Ry
     Harris-Foulkes estimate   =   -1754.96344060 Ry
     estimated scf accuracy    <       0.00000290 Ry

     total magnetization       =     8.00 Bohr mag/cell
     absolute magnetization    =     8.15 Bohr mag/cell

     iteration # 14     ecut=   100.00 Ry     beta= 0.70
     Davidson diagonalization with overlap
     ethr =  6.46E-10,  avg # of iterations =  3.0

     total cpu time spent up to now is     1326.0 secs

     total energy              =   -1754.96344043 Ry
     Harris-Foulkes estimate   =   -1754.96344055 Ry
     estimated scf accuracy    <       0.00000116 Ry

     total magnetization       =     8.00 Bohr mag/cell
     absolute magnetization    =     8.15 Bohr mag/cell

     iteration # 15     ecut=   100.00 Ry     beta= 0.70
     Davidson diagonalization with overlap
     ethr =  2.59E-10,  avg # of iterations =  2.5

     total cpu time spent up to now is     1354.3 secs

     total energy              =   -1754.96344045 Ry
     Harris-Foulkes estimate   =   -1754.96344057 Ry
     estimated scf accuracy    <       0.00000133 Ry

     total magnetization       =     8.00 Bohr mag/cell
     absolute magnetization    =     8.15 Bohr mag/cell

     iteration # 16     ecut=   100.00 Ry     beta= 0.70
     Davidson diagonalization with overlap
     ethr =  2.59E-10,  avg # of iterations =  3.0
 
     Magnetic moment per site:
     atom:    1    charge:    0.8409    magn:    0.0069    constr:    0.0000
     atom:    2    charge:    0.8465    magn:    0.0057    constr:    0.0000
     atom:    3    charge:    0.8456    magn:    0.0037    constr:    0.0000
     atom:    4    charge:    0.8474    magn:    0.0044    constr:    0.0000
     atom:    5    charge:    0.8454    magn:    0.0055    constr:    0.0000
     atom:    6    charge:    0.8340    magn:    0.0068    constr:    0.0000
     atom:    7    charge:    0.8413    magn:    0.0075    constr:    0.0000
     atom:    8    charge:    0.8471    magn:    0.0055    constr:    0.0000
     atom:    9    charge:    0.8360    magn:    0.0056    constr:    0.0000
     atom:   10    charge:    0.8390    magn:    0.0047    constr:    0.0000
     atom:   11    charge:    0.8377    magn:    0.0056    constr:    0.0000
     atom:   12    charge:    0.8366    magn:    0.0045    constr:    0.0000
     atom:   13    charge:    0.8417    magn:    0.0048    constr:    0.0000
     atom:   14    charge:    0.8404    magn:    0.0055    constr:    0.0000
     atom:   15    charge:    0.8434    magn:    0.0051    constr:    0.0000
     atom:   16    charge:    0.8397    magn:    0.0067    constr:    0.0000
     atom:   17    charge:    0.8457    magn:    0.0059    constr:    0.0000
     atom:   18    charge:    0.8319    magn:    0.0062    constr:    0.0000
     atom:   19    charge:    0.8513    magn:    0.0041    constr:    0.0000
     atom:   20    charge:    0.8478    magn:    0.0043    constr:    0.0000
     atom:   21    charge:    0.8225    magn:    0.0005    constr:    0.0000
     atom:   22    charge:    0.8236    magn:   -0.0011    constr:    0.0000
     atom:   23    charge:    0.8194    magn:    0.0004    constr:    0.0000
     atom:   24    charge:    0.8267    magn:    0.0001    constr:    0.0000
     atom:   25    charge:    0.8408    magn:    0.0070    constr:    0.0000
     atom:   26    charge:    0.8465    magn:    0.0057    constr:    0.0000
     atom:   27    charge:    0.8455    magn:    0.0037    constr:    0.0000
     atom:   28    charge:    0.8473    magn:    0.0045    constr:    0.0000
     atom:   29    charge:    0.8453    magn:    0.0055    constr:    0.0000
     atom:   30    charge:    0.8340    magn:    0.0068    constr:    0.0000
     atom:   31    charge:    0.8477    magn:    0.0053    constr:    0.0000
     atom:   32    charge:    0.8393    magn:    0.0080    constr:    0.0000
     atom:   33    charge:    0.8389    magn:    0.0052    constr:    0.0000
     atom:   34    charge:    0.8373    magn:    0.0064    constr:    0.0000
     atom:   35    charge:    0.8376    magn:    0.0057    constr:    0.0000
     atom:   36    charge:    0.8366    magn:    0.0045    constr:    0.0000
     atom:   37    charge:    0.8417    magn:    0.0048    constr:    0.0000
     atom:   38    charge:    0.8404    magn:    0.0055    constr:    0.0000
     atom:   39    charge:    0.8367    magn:    0.0060    constr:    0.0000
     atom:   40    charge:    0.8402    magn:    0.0053    constr:    0.0000
     atom:   41    charge:    0.8318    magn:    0.0051    constr:    0.0000
     atom:   42    charge:    0.8462    magn:    0.0053    constr:    0.0000
     atom:   43    charge:    0.8451    magn:    0.0050    constr:    0.0000
     atom:   44    charge:    0.8447    magn:    0.0044    constr:    0.0000
     atom:   45    charge:    0.8232    magn:    0.0005    constr:    0.0000
     atom:   46    charge:    0.8241    magn:   -0.0013    constr:    0.0000
     atom:   47    charge:    0.8225    magn:   -0.0004    constr:    0.0000
     atom:   48    charge:    0.8232    magn:   -0.0013    constr:    0.0000
     atom:   49    charge:    0.4836    magn:   -0.0013    constr:    0.0000
     atom:   50    charge:    0.4833    magn:   -0.0012    constr:    0.0000
     atom:   51    charge:    0.4866    magn:   -0.0008    constr:    0.0000
     atom:   52    charge:    0.4847    magn:   -0.0005    constr:    0.0000
     atom:   53    charge:    0.4897    magn:   -0.0010    constr:    0.0000
     atom:   54    charge:    0.4845    magn:   -0.0007    constr:    0.0000
     atom:   55    charge:    0.4863    magn:   -0.0008    constr:    0.0000
     atom:   56    charge:    0.4741    magn:    0.0015    constr:    0.0000
     atom:   57    charge:    0.4756    magn:    0.0010    constr:    0.0000
     atom:   58    charge:    0.4772    magn:    0.0013    constr:    0.0000
     atom:   59    charge:    0.4835    magn:   -0.0013    constr:    0.0000
     atom:   60    charge:    0.4833    magn:   -0.0012    constr:    0.0000
     atom:   61    charge:    0.4844    magn:   -0.0011    constr:    0.0000
     atom:   62    charge:    0.4830    magn:   -0.0010    constr:    0.0000
     atom:   63    charge:    0.4879    magn:   -0.0010    constr:    0.0000
     atom:   64    charge:    0.4862    magn:   -0.0011    constr:    0.0000
     atom:   65    charge:    0.4898    magn:   -0.0009    constr:    0.0000
     atom:   66    charge:    0.4846    magn:   -0.0007    constr:    0.0000
     atom:   67    charge:    0.4864    magn:   -0.0008    constr:    0.0000
     atom:   68    charge:    0.4736    magn:    0.0016    constr:    0.0000
     atom:   69    charge:    0.4887    magn:   -0.0008    constr:    0.0000
     atom:   70    charge:    0.4853    magn:   -0.0009    constr:    0.0000
     atom:   71    charge:    0.4811    magn:   -0.0006    constr:    0.0000
     atom:   72    charge:    0.4832    magn:   -0.0013    constr:    0.0000
     atom:   73    charge:    0.4235    magn:    0.0010    constr:    0.0000
     atom:   74    charge:    0.4173    magn:    0.0045    constr:    0.0000
     atom:   75    charge:    0.3939    magn:    0.0026    constr:    0.0000
     atom:   76    charge:    0.4228    magn:    0.0021    constr:    0.0000
     atom:   77    charge:    0.4217    magn:    0.0007    constr:    0.0000
     atom:   78    charge:    0.4142    magn:    0.0039    constr:    0.0000
     atom:   79    charge:    0.3901    magn:    0.0040    constr:    0.0000
     atom:   80    charge:    0.4119    magn:    0.0057    constr:    0.0000
     atom:   81    charge:    0.4235    magn:    0.0010    constr:    0.0000
     atom:   82    charge:    0.4169    magn:    0.0046    constr:    0.0000
     atom:   83    charge:    0.3939    magn:    0.0026    constr:    0.0000
     atom:   84    charge:    0.4226    magn:    0.0022    constr:    0.0000
     atom:   85    charge:    0.4020    magn:    0.0034    constr:    0.0000
     atom:   86    charge:    0.4209    magn:    0.0024    constr:    0.0000
     atom:   87    charge:    0.4156    magn:    0.0012    constr:    0.0000
     atom:   88    charge:    0.4161    magn:    0.0030    constr:    0.0000
     atom:   89    charge:    2.4463    magn:    0.0154    constr:    0.0000
     atom:   90    charge:    2.4576    magn:    0.0172    constr:    0.0000
     atom:   91    charge:    2.4602    magn:    0.0160    constr:    0.0000
     atom:   92    charge:    2.4559    magn:    0.0164    constr:    0.0000
     atom:   93    charge:    2.4458    magn:    0.0154    constr:    0.0000
     atom:   94    charge:    2.4583    magn:    0.0172    constr:    0.0000
     atom:   95    charge:    2.4505    magn:    0.0146    constr:    0.0000
     atom:   96    charge:    2.4571    magn:    0.0142    constr:    0.0000
     atom:   97    charge:    7.4447    magn:    1.1320    constr:    0.0000
     atom:   98    charge:    7.4511    magn:    1.1081    constr:    0.0000
     atom:   99    charge:    7.4350    magn:    1.1485    constr:    0.0000
     atom:  100    charge:    7.4516    magn:    1.1239    constr:    0.0000
     atom:  101    charge:    3.2501    magn:    0.0445    constr:    0.0000
     atom:  102    charge:    3.2625    magn:    0.0495    constr:    0.0000
     atom:  103    charge:    3.2585    magn:    0.0457    constr:    0.0000
     atom:  104    charge:    3.2618    magn:    0.0522    constr:    0.0000
     atom:  105    charge:    3.2579    magn:    0.0492    constr:    0.0000
     atom:  106    charge:    3.2685    magn:    0.0437    constr:    0.0000
     atom:  107    charge:    3.2789    magn:    0.0419    constr:    0.0000
     atom:  108    charge:    3.2561    magn:    0.0502    constr:    0.0000
     atom:  109    charge:    3.2685    magn:    0.0479    constr:    0.0000
     atom:  110    charge:    3.2560    magn:    0.0508    constr:    0.0000
     atom:  111    charge:    3.2604    magn:    0.0457    constr:    0.0000
     atom:  112    charge:    3.2618    magn:    0.0535    constr:    0.0000
     atom:  113    charge:    3.2757    magn:    0.0386    constr:    0.0000
     atom:  114    charge:    3.2629    magn:    0.0544    constr:    0.0000
     atom:  115    charge:    3.2794    magn:    0.0415    constr:    0.0000
     atom:  116    charge:    3.2552    magn:    0.0518    constr:    0.0000
     atom:  117    charge:    0.6783    magn:    0.0122    constr:    0.0000
[...]
     atom   59 type  2   force =    -0.00289173    0.00288326   -0.00015164
     atom   60 type  2   force =     0.01133313    0.00735535    0.00162213
     atom   61 type  2   force =     0.00704944   -0.00130558   -0.00704580
     atom   62 type  2   force =     0.00758085    0.00185275   -0.00013538
     atom   63 type  2   force =    -0.00732159   -0.00034000   -0.00060516
     atom   64 type  2   force =     0.00004283   -0.00210270    0.00234237
     atom   65 type  2   force =    -0.00158174    0.00406017   -0.00972139
     atom   66 type  2   force =     0.00059428    0.00381923    0.00150778
     atom   67 type  2   force =    -0.00693376    0.00188143   -0.01487381
     atom   68 type  2   force =    -0.00096590   -0.00861671    0.00403152
     atom   69 type  2   force =    -0.00040056   -0.00366384   -0.00148856
     atom   70 type  2   force =     0.00698768    0.00114799   -0.01083041
     atom   71 type  2   force =    -0.01677348   -0.00120536   -0.00544839
     atom   72 type  2   force =    -0.00984582    0.00315678   -0.00007463
     atom   73 type  2   force =    -0.00519113    0.00285306   -0.00061383
     atom   74 type  2   force =    -0.00513988    0.01040510    0.00152729
     atom   75 type  2   force =     0.00553598   -0.00359325   -0.00496681
     atom   76 type  2   force =    -0.00276712    0.00553705   -0.00430859
     atom   77 type  2   force =     0.00488579   -0.00226553    0.00170739
     atom   78 type  2   force =     0.00274082   -0.00748915   -0.00496790
     atom   79 type  2   force =     0.00054888    0.00041242   -0.00538854
     atom   80 type  2   force =    -0.00463167    0.01256964    0.00556851
     atom   81 type  2   force =    -0.00512318    0.00315129   -0.00081163
     atom   82 type  2   force =    -0.00457758    0.01035477    0.00181646
     atom   83 type  2   force =     0.00600082   -0.00410215   -0.00532357
     atom   84 type  2   force =    -0.00274457    0.00535942   -0.00342738
     atom   85 type  2   force =    -0.00227846   -0.00251604    0.00025791
     atom   86 type  2   force =     0.00081906   -0.00056438    0.00120943
     atom   87 type  2   force =    -0.00229519    0.00499568   -0.00040570
     atom   88 type  2   force =     0.00344181    0.00270208   -0.00611473
     atom   89 type  3   force =    -0.00493530   -0.00794256    0.01136309
     atom   90 type  3   force =    -0.00721653   -0.00033608    0.00316372
     atom   91 type  3   force =     0.00493848    0.00818063    0.00898146
     atom   92 type  3   force =     0.00498030   -0.00070217    0.00034201
     atom   93 type  3   force =    -0.00628034   -0.01102666    0.01322211
     atom   94 type  3   force =    -0.00603071   -0.00226907    0.00175475
     atom   95 type  3   force =     0.00842763    0.00709705    0.00682559
     atom   96 type  3   force =     0.00335069   -0.00654634    0.01197721
     atom   97 type  4   force =    -0.00317085    0.00142978   -0.00318726
     atom   98 type  4   force =    -0.00123803   -0.00293166   -0.00143752
     atom   99 type  4   force =    -0.00270444   -0.00345866    0.00455833
     atom  100 type  4   force =    -0.00140016    0.00118871   -0.00135394
     atom  101 type  5   force =    -0.00426257   -0.00115854    0.00268902
     atom  102 type  5   force =     0.00061528    0.00042811   -0.00415016
     atom  103 type  5   force =     0.00176313   -0.00192424   -0.00529298
     atom  104 type  5   force =     0.00668183   -0.00493408   -0.00153700
     atom  105 type  5   force =    -0.00022533   -0.00125054   -0.00207905
     atom  106 type  5   force =     0.00691530   -0.00156607    0.00069219
     atom  107 type  5   force =     0.00734208    0.01309990   -0.00413342
     atom  108 type  5   force =    -0.00053310   -0.00017812   -0.00222741
     atom  109 type  5   force =     0.00267243   -0.00368886   -0.00492585
     atom  110 type  5   force =    -0.00640877   -0.00148356   -0.00251076
     atom  111 type  5   force =     0.00108608   -0.00256253   -0.00565771
     atom  112 type  5   force =     0.00554779   -0.00549640   -0.00319698
     atom  113 type  5   force =    -0.00787208   -0.00642765   -0.00819714
     atom  114 type  5   force =    -0.00375061    0.00719185   -0.00878090
     atom  115 type  5   force =     0.00969749    0.00990378   -0.00506442
     atom  116 type  5   force =    -0.00045592   -0.00056897   -0.00176258
     atom  117 type  6   force =     0.00767731   -0.00009648   -0.00113200
     atom  118 type  6   force =    -0.00449274   -0.00729814   -0.00457696
     atom  119 type  6   force =    -0.00572011    0.00365298   -0.00107347
     atom  120 type  6   force =    -0.00355537   -0.01129698    0.00379000
     atom  121 type  6   force =     0.00763702    0.00026634   -0.00302544
     atom  122 type  6   force =    -0.00380519   -0.00824558   -0.00494399
     atom  123 type  6   force =    -0.00011550   -0.00498371   -0.00518632
     atom  124 type  6   force =    -0.00737154    0.00081757   -0.00378793

     Total force =     0.098431     Total SCF correction =     0.000620

     number of scf cycles    =  12
     number of bfgs steps    =  11

     energy   old            =   -1755.4026138852 Ry
     energy   new            =   -1755.4167214399 Ry

     CASE: energy  _new < energy  _old

     new trust radius        =       0.2037834351 bohr
     new conv_thr            =       0.0000001677 Ry


ATOMIC_POSITIONS (crystal)
C             0.2903149628        0.9662804550        0.5314618686
C             0.0316524722        0.0323765618        0.0154134167
C             0.3907650202        0.0122836589        0.5567117451
C             0.1324515029        0.9881166502        0.0364253404
C             0.4544933193        0.9678325775        0.6553880212
C             0.2001621042        0.0299339683        0.1329163973
C             0.2063043945        0.5340744286        0.5358965573
C             0.4673982917        0.4722409358        0.0278594098
C             0.2385073187        0.6214749176        0.6127026103
C             0.5029347391        0.3874629242        0.1060997265
C             0.2565113003        0.8812698401        0.6094731294
C            -0.0000406756        0.1149131013        0.0982868363
C             0.4156057042        0.8850055904        0.7318753270
C             0.1659081072        0.1190005031        0.2061479790
C             0.0729854493        0.6299737551        0.7084080700
C             0.3388098745        0.3749161073        0.2052291204
C             0.0379429262        0.5398083043        0.6381579898
C             0.3020219235        0.4684206937        0.1407736638
C             0.1057251041        0.4878875920        0.5526244933
C             0.3674852653        0.5176674445        0.0494997701
C             0.4248239115        0.1053605283        0.4826460016
C             0.1793420521        0.9011722957        0.9641327965
C             0.0675877629        0.3938728393        0.4794694883
C             0.3278710972        0.6124585013        0.9804508625
C             0.7897642034        0.9653810848        0.5322178822
C             0.5324252439        0.0319044826        0.0149616318
C             0.8903606777        0.0106920770        0.5581418073
C             0.6331421221        0.9871014912        0.0358552085
C             0.9542087632        0.9666319109        0.6567769667
C             0.7007658974        0.0292623929        0.1323305956
C             0.7144723360        0.5312458459        0.5254776921
C             0.9482082127        0.4585607710        0.0261348224
C             0.7479906979        0.6150124180        0.6052710989
C             0.9829103624        0.3728207418        0.1041998351
C             0.7559230715        0.8801165708        0.6094052957
C             0.5008576331        0.1145548231        0.0979343235
C             0.9151821374        0.8839313261        0.7328674413
C             0.6671883723        0.1189642126        0.2051822193
C             0.5897556672        0.6073473782        0.7241004843
C             0.8317720548        0.3872210411        0.2329356319
C             0.5539454741        0.5187741895        0.6510626230
C             0.7908576199        0.4689391361        0.1542201586
C             0.6173649129        0.4819379969        0.5488900792
C             0.8494232185        0.5059264048        0.0502690161
C             0.9241223048        0.1033535321        0.4839522807
C             0.6800023401        0.8992462814        0.9638008422
C             0.5767834587        0.3924505799        0.4716271397
C             0.8155583935        0.5967345686        0.9699955566
H             0.4775432160        0.0024700693        0.9397259630
H             0.0330380119        0.9975546683        0.6785059114
H             0.3165866554        0.6592468373        0.6042634584
H             0.0575661003        0.3303225176        0.0900261286
H             0.1783028530        0.8432822502        0.6008179503
H             0.4211798477        0.1492794041        0.0891831804
H             0.4613491752        0.8537474698        0.8147887890
H             0.2233256955        0.1712408547        0.2555257841
H             0.0185352789        0.6794516146        0.7635606789
H             0.2848521884        0.3260560052        0.2617994471
H             0.9773064114        0.0027361230        0.9396779932
H             0.5333789218        0.9986727490        0.6769568866
H             0.7655083796        0.5027572508        0.4488852296
H             0.5198951393        0.5059225123        0.9557903897
H             0.8262234117        0.6529895124        0.5968535417
H             0.5844100332        0.3578884420        0.0999914627
H             0.6775553380        0.8422268293        0.6010136378
H             0.9202338580        0.1494862122        0.0890711645
H             0.9604340582        0.8533335178        0.8167446940
H             0.7238890061        0.1723790131        0.2541107499
H             0.5429591646        0.6427673089        0.8015921666
H             0.7904857674        0.3610079549        0.3196728688
H             0.9582427107        0.5106631707        0.6522284502
H             0.7169360744        0.5073108978        0.1801487297
H             0.1068371676        0.9590189858        0.4364277877
H             0.1743689276        0.1220657240        0.4772000407
H             0.3633277787        0.0262237792        0.2718466469
H             0.2969104923        0.8655726227        0.2322911211
H             0.3901235666        0.5481708766        0.4417122404
H             0.3231883038        0.3801119006        0.4707867328
H             0.1430581294        0.4433354454        0.2760249615
H             0.1153125384        0.5353917081        0.0975855972
H             0.6069737796        0.9591696128        0.4361771823
H             0.6750877671        0.1219547222        0.4774185237
H             0.8636775140        0.0261538017        0.2712072503
H             0.7971293752        0.8652363939        0.2329762113
H             0.3930831806        0.5240735667        0.7871378873
H             0.4495140828        0.3572758011        0.7414854095
H             0.1276644806        0.4533950251        0.9181907995
H             0.0678287381        0.6157311028        0.9713853423
N             0.3171252655        0.8446850446        0.7095012127
N             0.0632550036        0.1552567034        0.1947571431
N             0.1759728636        0.6634641990        0.7035162791
N             0.4403132164        0.3404018001        0.1954727974
N             0.8169183094        0.8432221233        0.7090523310
N             0.5644208241        0.1543848247        0.1941662321
N             0.6864592599        0.6508178584        0.7027586731
N             0.9265056861        0.3406513736        0.2075217134
Ni            0.2521572615        0.7510456037        0.8428015137
Ni            0.5015456048        0.2452299051        0.3388528496
Ni            0.7507216920        0.7477807555        0.8361041346
Ni            0.9954253761        0.2459985690        0.3402196053
O             0.1285159889        0.3416299757        0.4002787454
O             0.3787813675        0.6569302072        0.8866709035
O             0.3644378992        0.1502710384        0.3944947366
O             0.1301933299        0.8468932759        0.8763986124
O             0.4831007976        0.3548058440        0.4952171029
O             0.2361738505        0.6540424784        1.0034810159
O             0.0167762242        0.1449186643        0.4992964436
O             0.2787961097        0.8760265857        0.9902762241
O             0.6263210388        0.3465333154        0.3793966778
O             0.8789623061        0.6352869754        0.8842384288
O             0.8633868134        0.1462091381        0.3945940385
O             0.6312219320        0.8470106970        0.8738833192
O             0.9714638444        0.3627275384        0.4857922232
O             0.7245012490        0.6418278206        0.9808686217
O             0.5186196205        0.1449723528        0.4975851113
O             0.7784687722        0.8718965892        0.9917388873
P             0.1984744622        0.0237786132        0.4211424005
P             0.3215718012        0.9615992773        0.1661734999
P             0.2981310504        0.4833580720        0.4276453792
P             0.1888886317        0.5303977166        0.2072879716
P             0.6989562828        0.0236856588        0.4214637060
P             0.8218373081        0.9607586895        0.1660619677
P             0.4305175903        0.4583085158        0.6846017371
P             0.0342131437        0.5191135141        0.9141725155



     Writing output data file ./QE_relaxation_results/pbesol_relax/NiPyC2_relax_sc211_meta_functionalized_PH2_pbesol_relax.save/
     NEW-OLD atomic charge density approx. for the potential

     Check: negative core charge=   -0.000142

     total cpu time spent up to now is     6435.3 secs

     Self-consistent Calculation

     iteration #  1     ecut=   100.00 Ry     beta= 0.70
     Davidson diagonalization with overlap
     ethr =  1.00E-06,  avg # of iterations =  8.5

     total cpu time spent up to now is     6559.6 secs

     total energy              =   -1755.42963125 Ry
     Harris-Foulkes estimate   =   -1755.43522252 Ry
     estimated scf accuracy    <       0.02441485 Ry

     total magnetization       =     8.00 Bohr mag/cell
     absolute magnetization    =     8.15 Bohr mag/cell

     iteration #  2     ecut=   100.00 Ry     beta= 0.70
     Davidson diagonalization with overlap
     ethr =  5.45E-06,  avg # of iterations =  2.0

     total cpu time spent up to now is     6587.2 secs

     total energy              =   -1755.42969309 Ry
     Harris-Foulkes estimate   =   -1755.43083659 Ry
     estimated scf accuracy    <       0.00460881 Ry

     total magnetization       =     8.00 Bohr mag/cell
     absolute magnetization    =     8.15 Bohr mag/cell

     iteration #  3     ecut=   100.00 Ry     beta= 0.70
     Davidson diagonalization with overlap
     ethr =  1.03E-06,  avg # of iterations =  3.0

     total cpu time spent up to now is     6620.8 secs

     total energy              =   -1755.42940644 Ry
     Harris-Foulkes estimate   =   -1755.43096644 Ry
     estimated scf accuracy    <       0.01923986 Ry

     total magnetization       =     8.00 Bohr mag/cell
     absolute magnetization    =     8.15 Bohr mag/cell

     iteration #  4     ecut=   100.00 Ry     beta= 0.70
     Davidson diagonalization with overlap
     ethr =  1.03E-06,  avg # of iterations =  1.5

     total cpu time spent up to now is     6648.3 secs

     total energy              =   -1755.43024391 Ry
     Harris-Foulkes estimate   =   -1755.43036280 Ry
     estimated scf accuracy    <       0.00158597 Ry

     total magnetization       =     8.00 Bohr mag/cell
     absolute magnetization    =     8.15 Bohr mag/cell

     iteration #  5     ecut=   100.00 Ry     beta= 0.70
     Davidson diagonalization with overlap
     ethr =  3.54E-07,  avg # of iterations =  1.0

     total cpu time spent up to now is     6675.3 secs

     total energy              =   -1755.43028157 Ry
     Harris-Foulkes estimate   =   -1755.43029885 Ry
     estimated scf accuracy    <       0.00015236 Ry

     total magnetization       =     8.00 Bohr mag/cell
     absolute magnetization    =     8.15 Bohr mag/cell

     iteration #  6     ecut=   100.00 Ry     beta= 0.70
     Davidson diagonalization with overlap
     ethr =  3.40E-08,  avg # of iterations =  3.0

     total cpu time spent up to now is     6703.9 secs

     total energy              =   -1755.43027341 Ry
     Harris-Foulkes estimate   =   -1755.43030536 Ry
     estimated scf accuracy    <       0.00034159 Ry

     total magnetization       =     8.00 Bohr mag/cell
     absolute magnetization    =     8.15 Bohr mag/cell

     iteration #  7     ecut=   100.00 Ry     beta= 0.70
     Davidson diagonalization with overlap
     ethr =  3.40E-08,  avg # of iterations =  1.5

     total cpu time spent up to now is     6731.2 secs

     total energy              =   -1755.43028552 Ry
     Harris-Foulkes estimate   =   -1755.43029366 Ry
     estimated scf accuracy    <       0.00008803 Ry

     total magnetization       =     8.00 Bohr mag/cell
     absolute magnetization    =     8.15 Bohr mag/cell

     iteration #  8     ecut=   100.00 Ry     beta= 0.70
     Davidson diagonalization with overlap
     ethr =  1.96E-08,  avg # of iterations =  1.0

     total cpu time spent up to now is     6758.4 secs

     total energy              =   -1755.43028662 Ry
     Harris-Foulkes estimate   =   -1755.43029285 Ry
     estimated scf accuracy    <       0.00007317 Ry

     total magnetization       =     8.00 Bohr mag/cell
     absolute magnetization    =     8.15 Bohr mag/cell

     iteration #  9     ecut=   100.00 Ry     beta= 0.70
     Davidson diagonalization with overlap
     ethr =  1.63E-08,  avg # of iterations =  1.0

     total cpu time spent up to now is     6785.5 secs

     total energy              =   -1755.43028892 Ry
     Harris-Foulkes estimate   =   -1755.43029004 Ry
     estimated scf accuracy    <       0.00001394 Ry

     total magnetization       =     8.00 Bohr mag/cell
     absolute magnetization    =     8.15 Bohr mag/cell

     iteration # 10     ecut=   100.00 Ry     beta= 0.70
     Davidson diagonalization with overlap
     ethr =  3.11E-09,  avg # of iterations =  4.0

     total cpu time spent up to now is     6816.4 secs

     total energy              =   -1755.43028967 Ry
     Harris-Foulkes estimate   =   -1755.43028987 Ry
     estimated scf accuracy    <       0.00000356 Ry

     total magnetization       =     8.00 Bohr mag/cell
     absolute magnetization    =     8.15 Bohr mag/cell

     iteration # 11     ecut=   100.00 Ry     beta= 0.70
     Davidson diagonalization with overlap
     ethr =  7.94E-10,  avg # of iterations =  2.0

     total cpu time spent up to now is     6844.3 secs

     total energy              =   -1755.43028969 Ry
     Harris-Foulkes estimate   =   -1755.43029025 Ry
     estimated scf accuracy    <       0.00001030 Ry

     total magnetization       =     8.00 Bohr mag/cell
     absolute magnetization    =     8.15 Bohr mag/cell

     iteration # 12     ecut=   100.00 Ry     beta= 0.70
     Davidson diagonalization with overlap
     ethr =  7.94E-10,  avg # of iterations =  1.5

     total cpu time spent up to now is     6871.6 secs

     total energy              =   -1755.43029013 Ry
     Harris-Foulkes estimate   =   -1755.43029007 Ry
     estimated scf accuracy    <       0.00000113 Ry

     total magnetization       =     8.00 Bohr mag/cell
     absolute magnetization    =     8.15 Bohr mag/cell

     iteration # 13     ecut=   100.00 Ry     beta= 0.70
     Davidson diagonalization with overlap
