/apps/openmpi/3.1_intel-19/bin/mpiexec
starting QE Wed Jun 24 14:19:31 PDT 2020

     Program PWSCF v.6.5 starts on 24Jun2020 at 14:19:33 

     This program is part of the open-source Quantum ESPRESSO suite
     for quantum simulation of materials; please cite
         "P. Giannozzi et al., J. Phys.:Condens. Matter 21 395502 (2009);
         "P. Giannozzi et al., J. Phys.:Condens. Matter 29 465901 (2017);
          URL http://www.quantum-espresso.org", 
     in publications or presentations arising from this work. More details at
     http://www.quantum-espresso.org/quote

     Parallel version (MPI), running on    32 processors

     MPI processes distributed on     1 nodes
     K-points division:     npool     =       2
     R & G space division:  proc/nbgrp/npool/nimage =      16
     Reading input from QE_input_scripts/pw.NiPyC2_relax_sc211_meta_functionalized_C-C_pbesol_relax.in
Warning: card &CELL ignored
Warning: card    CELL_DYNAMICS = 'BFGS' ignored
Warning: card    CELL_DOFREE = 'XYZ' ignored
Warning: card / ignored

     Current dimensions of program PWSCF are:
     Max number of different atomic species (ntypx) = 10
     Max number of k-points (npk) =  40000
     Max angular momentum in pseudopotentials (lmaxx) =  3

     -------------------------------------------------
     Parameters for Dispersion (Grimme-D2) Correction:
     -------------------------------------------------
       atom      VdW radius       C_6     

        C          2.744         60.710
        H          1.892          4.857
        N          2.640         42.670
        Ni         2.952        374.666
        O          2.536         24.284

     gamma-point specific algorithms are used

     Subspace diagonalization in iterative solution of the eigenvalue problem:
     a serial algorithm will be used

 
     Parallelization info
     --------------------
     sticks:   dense  smooth     PW     G-vecs:    dense   smooth      PW
     Min        1113    1113    277                91686    91686   11456
     Max        1116    1116    280                91692    91692   11460
     Sum       17829   17829   4453              1467017  1467017  183325
 


     bravais-lattice index     =            0
     lattice parameter (alat)  =      23.6322  a.u.
     unit-cell volume          =   10858.6228 (a.u.)^3
     number of atoms/cell      =          124
     number of atomic types    =            5
     number of electrons       =       464.00 (up: 236.00, down: 228.00)
     number of Kohn-Sham states=          283
     kinetic-energy cutoff     =     100.0000  Ry
     charge density cutoff     =     400.0000  Ry
     convergence threshold     =      1.0E-06
     mixing beta               =       0.7000
     number of iterations used =            8  local-TF  mixing
     Exchange-correlation= PBESOL
                           (   1   4  10   8   0   0   0)
     nstep                     =          200


     celldm(1)=  23.632159  celldm(2)=   0.000000  celldm(3)=   0.000000
     celldm(4)=   0.000000  celldm(5)=   0.000000  celldm(6)=   0.000000

     crystal axes: (cart. coord. in units of alat)
               a(1) = (   1.000000   0.000000   0.000000 )  
               a(2) = (   0.000000   1.001423   0.000000 )  
               a(3) = (  -0.018199   0.000000   0.821574 )  

     reciprocal axes: (cart. coord. in units 2 pi/alat)
               b(1) = (  1.000000  0.000000  0.022152 )  
               b(2) = (  0.000000  0.998579  0.000000 )  
               b(3) = (  0.000000  0.000000  1.217175 )  


     PseudoPot. # 1 for C  read from file:
     ./pseudo/C.pbesol-nc.UPF
     MD5 check sum: ce26087537ded160c8d400e183a8bf42
     Pseudo is Norm-conserving, Zval =  4.0
     Generated using "atomic" code by A. Dal Corso v.6.5
     Using radial grid of 1073 points,  1 beta functions with: 
                l(1) =   1

     PseudoPot. # 2 for H  read from file:
     ./pseudo/H.pbesol-n-nc.UPF
     MD5 check sum: 7995ef24074557c85b430109caaacc09
     Pseudo is Norm-conserving, Zval =  1.0
     Generated using "atomic" code by A. Dal Corso v.6.5
     Using radial grid of  929 points,  0 beta functions with: 

     PseudoPot. # 3 for N  read from file:
     ./pseudo/N.pbesol-nc.UPF
     MD5 check sum: e18cc5e4b8a5600c1a19b30c2cab1ca0
     Pseudo is Norm-conserving, Zval =  5.0
     Generated using "atomic" code by A. Dal Corso v.6.5
     Using radial grid of 1085 points,  1 beta functions with: 
                l(1) =   1

     PseudoPot. # 4 for Ni read from file:
     ./pseudo/Ni.pbesol-n-nc.UPF
     MD5 check sum: 623411631e0c2eb7c0b2b9815547d2d9
     Pseudo is Norm-conserving + core correction, Zval = 10.0
     Generated using "atomic" code by A. Dal Corso v.6.5
     Using radial grid of 1195 points,  2 beta functions with: 
                l(1) =   1
                l(2) =   2

     PseudoPot. # 5 for O  read from file:
     ./pseudo/O.pbesol-nc.UPF
     MD5 check sum: 73d10e7e91dbfcbe8a7e362101007f84
     Pseudo is Norm-conserving, Zval =  6.0
     Generated using "atomic" code by A. Dal Corso v.6.5
     Using radial grid of 1095 points,  1 beta functions with: 
                l(1) =   1

     atomic species   valence    mass     pseudopotential
        C              4.00    12.01070     C ( 1.00)
        H              1.00     1.00794     H ( 1.00)
        N              5.00    14.00670     N ( 1.00)
        Ni            10.00    58.69340     Ni( 1.00)
        O              6.00    15.99940     O ( 1.00)

     Starting magnetic structure 
     atomic species   magnetization
        C            0.000
        H            0.000
        N            0.000
        Ni           0.250
        O            0.000

     No symmetry found



   Cartesian axes

     site n.     atom                  positions (alat units)
         1           C   tau(   1) = (   0.2787122   0.9714307   0.4288486  )
         2           C   tau(   2) = (   0.0379730   0.0311503   0.0183277  )
         3           C   tau(   3) = (   0.3806882   0.0117868   0.4489838  )
         4           C   tau(   4) = (   0.1394042   0.9891499   0.0379124  )
         5           C   tau(   5) = (   0.4400787   0.9715829   0.5343281  )
         6           C   tau(   6) = (   0.1997920   0.0283934   0.1231482  )
         7           C   tau(   7) = (   0.1986011   0.5304580   0.4324635  )
         8           C   tau(   8) = (   0.4580372   0.4720800   0.0229252  )
         9           C   tau(   9) = (   0.2341003   0.6142040   0.4982314  )
        10           C   tau(  10) = (   0.4948422   0.3892302   0.0892369  )
        11           C   tau(  11) = (   0.2384981   0.8904717   0.4955761  )
        12           C   tau(  12) = (  -0.0008282   0.1123917   0.0856467  )
        13           C   tau(  13) = (   0.3947360   0.8906489   0.5977380  )
        14           C   tau(  14) = (   0.1557890   0.1097029   0.1871645  )
        15           C   tau(  15) = (   0.0756247   0.6098498   0.5975737  )
        16           C   tau(  16) = (   0.3367152   0.3921904   0.1884642  )
        17           C   tau(  17) = (   0.0350715   0.5258264   0.5351012  )
        18           C   tau(  18) = (   0.2948780   0.4753867   0.1254988  )
        19           C   tau(  19) = (   0.0981522   0.4849593   0.4519611  )
        20           C   tau(  20) = (   0.3569104   0.5163900   0.0416029  )
        21           C   tau(  21) = (   0.4248178   0.0994604   0.3833638  )
        22           C   tau(  22) = (   0.1639424   0.9010006   0.7933713  )
        23           C   tau(  23) = (   0.0588120   0.3950355   0.3866953  )
        24           C   tau(  24) = (   0.2984059   0.6050320   0.7961934  )
        25           C   tau(  25) = (   0.7787122   0.9714307   0.4288486  )
        26           C   tau(  26) = (   0.5379730   0.0311503   0.0183277  )
        27           C   tau(  27) = (   0.8806882   0.0117868   0.4489838  )
        28           C   tau(  28) = (   0.6394042   0.9891499   0.0379124  )
        29           C   tau(  29) = (   0.9400787   0.9715829   0.5343281  )
        30           C   tau(  30) = (   0.6997920   0.0283934   0.1231482  )
        31           C   tau(  31) = (   0.6986021   0.5304580   0.4324635  )
        32           C   tau(  32) = (   0.9580382   0.4720800   0.0229252  )
        33           C   tau(  33) = (   0.7341003   0.6142040   0.4982314  )
        34           C   tau(  34) = (   0.9948422   0.3892302   0.0892369  )
        35           C   tau(  35) = (   0.7384981   0.8904717   0.4955761  )
        36           C   tau(  36) = (   0.4991718   0.1123917   0.0856467  )
        37           C   tau(  37) = (   0.8947360   0.8906489   0.5977380  )
        38           C   tau(  38) = (   0.6557880   0.1097029   0.1871645  )
        39           C   tau(  39) = (   0.5756247   0.6098498   0.5975737  )
        40           C   tau(  40) = (   0.8367152   0.3921904   0.1884642  )
        41           C   tau(  41) = (   0.5350715   0.5258264   0.5351012  )
        42           C   tau(  42) = (   0.7948780   0.4753867   0.1254988  )
        43           C   tau(  43) = (   0.5981522   0.4849593   0.4519611  )
        44           C   tau(  44) = (   0.8569104   0.5163900   0.0416029  )
        45           C   tau(  45) = (   0.9248178   0.0994604   0.3833638  )
        46           C   tau(  46) = (   0.6639424   0.9010006   0.7933713  )
        47           C   tau(  47) = (   0.5588110   0.3950355   0.3866953  )
        48           C   tau(  48) = (   0.7984059   0.6050320   0.7961934  )
        49           C   tau(  49) = (   0.2160256   0.0048259   0.3459017  )
        50           C   tau(  50) = (   0.1621804   0.0349527   0.2744083  )
        51           C   tau(  51) = (   0.3002275   0.9933799   0.1470996  )
        52           C   tau(  52) = (   0.3868427   0.9618151   0.1675847  )
        53           C   tau(  53) = (   0.2639708   0.4967290   0.3512674  )
        54           C   tau(  54) = (   0.3201892   0.4675225   0.2812331  )
        55           C   tau(  55) = (   0.1949049   0.5132815   0.1490656  )
        56           C   tau(  56) = (   0.1086822   0.5461002   0.1692336  )
        57           C   tau(  57) = (   0.7160256   0.0048259   0.3459017  )
        58           C   tau(  58) = (   0.6621804   0.0349527   0.2744083  )
        59           C   tau(  59) = (   0.8002275   0.9933809   0.1471004  )
        60           C   tau(  60) = (   0.8868427   0.9618161   0.1675855  )
        61           C   tau(  61) = (   0.4354044   0.4869872   0.5582663  )
        62           C   tau(  62) = (   0.3494187   0.4533634   0.5781172  )
        63           C   tau(  63) = (   0.0053209   0.5066842   0.7635522  )
        64           C   tau(  64) = (   0.0615347   0.5366057   0.6938170  )
        65           H   tau(  65) = (   0.4693669   0.0026958   0.7751545  )
        66           H   tau(  66) = (   0.0198054   1.0002267   0.5533467  )
        67           H   tau(  67) = (   0.3118554   0.6514319   0.4868937  )
        68           H   tau(  68) = (   0.0732386   0.3533532   0.0780726  )
        69           H   tau(  69) = (   0.1594426   0.8563401   0.4835457  )
        70           H   tau(  70) = (   0.4206861   0.1479423   0.0738480  )
        71           H   tau(  71) = (   0.4386511   0.8563902   0.6644572  )
        72           H   tau(  72) = (   0.2006191   0.1433067   0.2536997  )
        73           H   tau(  73) = (   0.0290492   0.6438591   0.6626884  )
        74           H   tau(  74) = (   0.2907535   0.3580349   0.2539083  )
        75           H   tau(  75) = (   0.9693669   0.0026958   0.7751545  )
        76           H   tau(  76) = (   0.5198044   1.0002267   0.5533467  )
        77           H   tau(  77) = (   0.7505234   0.5016080   0.3691185  )
        78           H   tau(  78) = (   0.4913416   0.5011092   0.7809458  )
        79           H   tau(  79) = (   0.8118554   0.6514319   0.4868937  )
        80           H   tau(  80) = (   0.5732386   0.3533532   0.0780726  )
        81           H   tau(  81) = (   0.6594426   0.8563401   0.4835457  )
        82           H   tau(  82) = (   0.9206861   0.1479423   0.0738480  )
        83           H   tau(  83) = (   0.9386511   0.8563902   0.6644572  )
        84           H   tau(  84) = (   0.7006201   0.1433067   0.2536997  )
        85           H   tau(  85) = (   0.5290492   0.6438591   0.6626884  )
        86           H   tau(  86) = (   0.7907535   0.3580349   0.2539083  )
        87           H   tau(  87) = (   0.9564147   0.4939330   0.5533319  )
        88           H   tau(  88) = (   0.7157623   0.5059201   0.1439924  )
        89           H   tau(  89) = (   0.1165763   0.0625459   0.2114354  )
        90           H   tau(  90) = (   0.4623840   0.9329691   0.1839595  )
        91           H   tau(  91) = (   0.3679288   0.4406653   0.2195386  )
        92           H   tau(  92) = (   0.0335230   0.5760648   0.1853554  )
        93           H   tau(  93) = (   0.6165763   0.0625459   0.2114354  )
        94           H   tau(  94) = (   0.9623839   0.9329711   0.1839603  )
        95           H   tau(  95) = (   0.2744914   0.4226848   0.5939735  )
        96           H   tau(  96) = (   0.1092567   0.5640667   0.6323747  )
        97           N   tau(  97) = (   0.2956096   0.8524646   0.5790685  )
        98           N   tau(  98) = (   0.0569790   0.1490689   0.1692870  )
        99           N   tau(  99) = (   0.1736962   0.6512356   0.5798983  )
       100           N   tau( 100) = (   0.4350238   0.3514275   0.1709211  )
       101           N   tau( 101) = (   0.7956096   0.8524646   0.5790685  )
       102           N   tau( 102) = (   0.5569790   0.1490689   0.1692870  )
       103           N   tau( 103) = (   0.6736972   0.6512356   0.5798983  )
       104           N   tau( 104) = (   0.9350238   0.3514275   0.1709211  )
       105           Ni  tau( 105) = (   0.2317814   0.7525556   0.6871039  )
       106           Ni  tau( 106) = (   0.4937992   0.2483520   0.2786599  )
       107           Ni  tau( 107) = (   0.7317814   0.7525556   0.6871039  )
       108           Ni  tau( 108) = (   0.9937992   0.2483520   0.2786599  )
       109           O   tau( 109) = (   0.1158100   0.3481839   0.3145586  )
       110           O   tau( 110) = (   0.3551690   0.6519036   0.7240468  )
       111           O   tau( 111) = (   0.3707656   0.1477170   0.3098797  )
       112           O   tau( 112) = (   0.1091506   0.8535652   0.7199135  )
       113           O   tau( 113) = (   0.4642788   0.3566669   0.3968154  )
       114           O   tau( 114) = (   0.2033039   0.6423280   0.8050417  )
       115           O   tau( 115) = (   0.0200847   0.1353504   0.3952413  )
       116           O   tau( 116) = (   0.2588616   0.8639860   0.8046490  )
       117           O   tau( 117) = (   0.6158110   0.3481839   0.3145586  )
       118           O   tau( 118) = (   0.8551690   0.6519036   0.7240468  )
       119           O   tau( 119) = (   0.8707656   0.1477170   0.3098797  )
       120           O   tau( 120) = (   0.6091506   0.8535652   0.7199135  )
       121           O   tau( 121) = (   0.9642788   0.3566669   0.3968154  )
       122           O   tau( 122) = (   0.7033039   0.6423280   0.8050417  )
       123           O   tau( 123) = (   0.5200847   0.1353504   0.3952413  )
       124           O   tau( 124) = (   0.7588616   0.8639860   0.8046490  )

     number of k points=     1  Marzari-Vanderbilt smearing, width (Ry)=  0.2000
                       cart. coord. in units 2pi/alat
        k(    1) = (   0.0000000   0.0000000   0.0000000), wk =   1.0000000

     Dense  grid:   733509 G-vectors     FFT dimensions: ( 160, 160, 125)

     Estimated max dynamical RAM per process >     343.37 MB

     Estimated total dynamical RAM >      10.73 GB
     Generating pointlists ...
     new r_m :   0.0270 (alat units)  0.6385 (a.u.) for type    1
     new r_m :   0.0270 (alat units)  0.6385 (a.u.) for type    2
     new r_m :   0.0445 (alat units)  1.0514 (a.u.) for type    3
     new r_m :   0.0654 (alat units)  1.5454 (a.u.) for type    4
     new r_m :   0.0423 (alat units)  0.9991 (a.u.) for type    5

     Check: negative core charge=   -0.000145

     Initial potential from superposition of free atoms

     starting charge  463.99604, renormalised to  464.00000
     Starting wfcs are  420 randomized atomic wfcs

     total cpu time spent up to now is       42.3 secs

     Self-consistent Calculation

     iteration #  1     ecut=   100.00 Ry     beta= 0.70
     Davidson diagonalization with overlap
     ethr =  1.00E-02,  avg # of iterations =  3.0

     total cpu time spent up to now is      145.2 secs

     total energy              =   -1796.16701866 Ry
     Harris-Foulkes estimate   =   -1805.46341815 Ry
     estimated scf accuracy    <      24.04912564 Ry

     total magnetization       =     8.00 Bohr mag/cell
     absolute magnetization    =     8.76 Bohr mag/cell

     iteration #  2     ecut=   100.00 Ry     beta= 0.70
     Davidson diagonalization with overlap
     ethr =  5.18E-03,  avg # of iterations =  2.0

     total cpu time spent up to now is      207.2 secs

     total energy              =   -1799.65536156 Ry
     Harris-Foulkes estimate   =   -1803.76393707 Ry
     estimated scf accuracy    <      19.32418325 Ry

     total magnetization       =     8.00 Bohr mag/cell
     absolute magnetization    =     8.25 Bohr mag/cell

     iteration #  3     ecut=   100.00 Ry     beta= 0.70
     Davidson diagonalization with overlap
     ethr =  4.16E-03,  avg # of iterations =  1.0

     total cpu time spent up to now is      264.9 secs

     total energy              =   -1799.29766944 Ry
     Harris-Foulkes estimate   =   -1800.45292909 Ry
     estimated scf accuracy    <       3.56485305 Ry

     total magnetization       =     8.00 Bohr mag/cell
     absolute magnetization    =     8.18 Bohr mag/cell

     iteration #  4     ecut=   100.00 Ry     beta= 0.70
     Davidson diagonalization with overlap
     ethr =  7.68E-04,  avg # of iterations =  6.0

     total cpu time spent up to now is      338.7 secs

     total energy              =   -1799.11819940 Ry
     Harris-Foulkes estimate   =   -1800.51277375 Ry
     estimated scf accuracy    <      12.80773395 Ry

     total magnetization       =     8.00 Bohr mag/cell
     absolute magnetization    =     8.20 Bohr mag/cell

     iteration #  5     ecut=   100.00 Ry     beta= 0.70
     Davidson diagonalization with overlap
     ethr =  7.68E-04,  avg # of iterations =  1.5

     total cpu time spent up to now is      397.1 secs

     total energy              =   -1799.77384406 Ry
     Harris-Foulkes estimate   =   -1799.83392384 Ry
     estimated scf accuracy    <       0.41873043 Ry

     total magnetization       =     8.00 Bohr mag/cell
     absolute magnetization    =     8.21 Bohr mag/cell

     iteration #  6     ecut=   100.00 Ry     beta= 0.70
     Davidson diagonalization with overlap
     ethr =  9.02E-05,  avg # of iterations =  6.5

     total cpu time spent up to now is      469.9 secs

     total energy              =   -1799.76411752 Ry
     Harris-Foulkes estimate   =   -1799.84457980 Ry
     estimated scf accuracy    <       1.58219280 Ry

     total magnetization       =     8.00 Bohr mag/cell
     absolute magnetization    =     8.22 Bohr mag/cell

     iteration #  7     ecut=   100.00 Ry     beta= 0.70
     Davidson diagonalization with overlap
     ethr =  9.02E-05,  avg # of iterations =  1.0

     total cpu time spent up to now is      529.0 secs

     total energy              =   -1799.65268097 Ry
     Harris-Foulkes estimate   =   -1799.79167834 Ry
     estimated scf accuracy    <       0.92295952 Ry

     total magnetization       =     8.00 Bohr mag/cell
     absolute magnetization    =     8.22 Bohr mag/cell

     iteration #  8     ecut=   100.00 Ry     beta= 0.70
     Davidson diagonalization with overlap
     ethr =  9.02E-05,  avg # of iterations =  2.0

     total cpu time spent up to now is      587.9 secs

     total energy              =   -1799.70678296 Ry
     Harris-Foulkes estimate   =   -1799.72970999 Ry
     estimated scf accuracy    <       0.15764549 Ry

     total magnetization       =     8.00 Bohr mag/cell
     absolute magnetization    =     8.22 Bohr mag/cell

     iteration #  9     ecut=   100.00 Ry     beta= 0.70
     Davidson diagonalization with overlap
     ethr =  3.40E-05,  avg # of iterations =  3.0

     total cpu time spent up to now is      648.5 secs

     total energy              =   -1799.72265402 Ry
     Harris-Foulkes estimate   =   -1799.72456551 Ry
     estimated scf accuracy    <       0.07800330 Ry

     total magnetization       =     8.00 Bohr mag/cell
     absolute magnetization    =     8.21 Bohr mag/cell

     iteration # 10     ecut=   100.00 Ry     beta= 0.70
     Davidson diagonalization with overlap
     ethr =  1.68E-05,  avg # of iterations =  4.0

     total cpu time spent up to now is      709.8 secs

     total energy              =   -1799.72145589 Ry
     Harris-Foulkes estimate   =   -1799.72674477 Ry
     estimated scf accuracy    <       0.09049242 Ry

     total magnetization       =     8.00 Bohr mag/cell
     absolute magnetization    =     8.20 Bohr mag/cell

     iteration # 11     ecut=   100.00 Ry     beta= 0.70
     Davidson diagonalization with overlap
     ethr =  1.68E-05,  avg # of iterations =  1.5

     total cpu time spent up to now is      767.7 secs

     total energy              =   -1799.72701290 Ry
     Harris-Foulkes estimate   =   -1799.72513667 Ry
     estimated scf accuracy    <       0.00840533 Ry

     total magnetization       =     8.00 Bohr mag/cell
     absolute magnetization    =     8.19 Bohr mag/cell

     iteration # 12     ecut=   100.00 Ry     beta= 0.70
     Davidson diagonalization with overlap
     ethr =  1.81E-06,  avg # of iterations =  7.5

     total cpu time spent up to now is      848.1 secs

     total energy              =   -1799.72854366 Ry
     Harris-Foulkes estimate   =   -1799.72764478 Ry
     estimated scf accuracy    <       0.00309945 Ry

     total magnetization       =     8.00 Bohr mag/cell
     absolute magnetization    =     8.19 Bohr mag/cell

     iteration # 13     ecut=   100.00 Ry     beta= 0.70
     Davidson diagonalization with overlap
     ethr =  6.68E-07,  avg # of iterations =  4.5

     total cpu time spent up to now is      912.5 secs

     total energy              =   -1799.72886941 Ry
     Harris-Foulkes estimate   =   -1799.72872492 Ry
     estimated scf accuracy    <       0.00119617 Ry

     total magnetization       =     8.00 Bohr mag/cell
     absolute magnetization    =     8.18 Bohr mag/cell

     iteration # 14     ecut=   100.00 Ry     beta= 0.70
     Davidson diagonalization with overlap
     ethr =  2.58E-07,  avg # of iterations =  2.5

     total cpu time spent up to now is      971.9 secs

     total energy              =   -1799.72906812 Ry
     Harris-Foulkes estimate   =   -1799.72907272 Ry
     estimated scf accuracy    <       0.00344785 Ry

     total magnetization       =     8.00 Bohr mag/cell
     absolute magnetization    =     8.18 Bohr mag/cell

     iteration # 15     ecut=   100.00 Ry     beta= 0.70
     Davidson diagonalization with overlap
     ethr =  2.58E-07,  avg # of iterations =  3.0

     total cpu time spent up to now is     1032.1 secs

     total energy              =   -1799.72928129 Ry
     Harris-Foulkes estimate   =   -1799.72921418 Ry
     estimated scf accuracy    <       0.00045792 Ry

     total magnetization       =     8.00 Bohr mag/cell
     absolute magnetization    =     8.18 Bohr mag/cell

     iteration # 16     ecut=   100.00 Ry     beta= 0.70
     Davidson diagonalization with overlap
     ethr =  9.87E-08,  avg # of iterations =  3.0

     total cpu time spent up to now is     1093.0 secs

     total energy              =   -1799.72931737 Ry
     Harris-Foulkes estimate   =   -1799.72929820 Ry
     estimated scf accuracy    <       0.00016999 Ry

     total magnetization       =     8.00 Bohr mag/cell
     absolute magnetization    =     8.18 Bohr mag/cell

     iteration # 17     ecut=   100.00 Ry     beta= 0.70
     Davidson diagonalization with overlap
     ethr =  3.66E-08,  avg # of iterations =  2.5

     total cpu time spent up to now is     1153.3 secs

     total energy              =   -1799.72932390 Ry
     Harris-Foulkes estimate   =   -1799.72932894 Ry
     estimated scf accuracy    <       0.00017051 Ry

     total magnetization       =     8.00 Bohr mag/cell
     absolute magnetization    =     8.18 Bohr mag/cell

     iteration # 18     ecut=   100.00 Ry     beta= 0.70
     Davidson diagonalization with overlap
     ethr =  3.66E-08,  avg # of iterations =  2.0

     total cpu time spent up to now is     1212.3 secs

     total energy              =   -1799.72932820 Ry
     Harris-Foulkes estimate   =   -1799.72932929 Ry
     estimated scf accuracy    <       0.00007917 Ry

     total magnetization       =     8.00 Bohr mag/cell
     absolute magnetization    =     8.18 Bohr mag/cell

     iteration # 19     ecut=   100.00 Ry     beta= 0.70
     Davidson diagonalization with overlap
     ethr =  1.71E-08,  avg # of iterations =  3.0

     total cpu time spent up to now is     1274.2 secs

     total energy              =   -1799.72933234 Ry
     Harris-Foulkes estimate   =   -1799.72933289 Ry
     estimated scf accuracy    <       0.00003805 Ry

     total magnetization       =     8.00 Bohr mag/cell
     absolute magnetization    =     8.18 Bohr mag/cell

     iteration # 20     ecut=   100.00 Ry     beta= 0.70
     Davidson diagonalization with overlap
     ethr =  8.20E-09,  avg # of iterations =  3.5

     total cpu time spent up to now is     1334.1 secs

     total energy              =   -1799.72933375 Ry
     Harris-Foulkes estimate   =   -1799.72933375 Ry
     estimated scf accuracy    <       0.00001915 Ry

     total magnetization       =     8.00 Bohr mag/cell
     absolute magnetization    =     8.18 Bohr mag/cell

     iteration # 21     ecut=   100.00 Ry     beta= 0.70
     Davidson diagonalization with overlap
     ethr =  4.13E-09,  avg # of iterations =  3.0

     total cpu time spent up to now is     1395.2 secs

     total energy              =   -1799.72933437 Ry
     Harris-Foulkes estimate   =   -1799.72933439 Ry
     estimated scf accuracy    <       0.00001148 Ry

     total magnetization       =     8.00 Bohr mag/cell
     absolute magnetization    =     8.18 Bohr mag/cell

     iteration # 22     ecut=   100.00 Ry     beta= 0.70
     Davidson diagonalization with overlap
     ethr =  2.47E-09,  avg # of iterations =  3.5

     total cpu time spent up to now is     1457.2 secs

     total energy              =   -1799.72933464 Ry
     Harris-Foulkes estimate   =   -1799.72933490 Ry
     estimated scf accuracy    <       0.00000668 Ry

     total magnetization       =     8.00 Bohr mag/cell
     absolute magnetization    =     8.18 Bohr mag/cell

     iteration # 23     ecut=   100.00 Ry     beta= 0.70
     Davidson diagonalization with overlap
     ethr =  1.44E-09,  avg # of iterations =  2.5

     total cpu time spent up to now is     1516.6 secs

     total energy              =   -1799.72933481 Ry
     Harris-Foulkes estimate   =   -1799.72933494 Ry
     estimated scf accuracy    <       0.00000275 Ry

     total magnetization       =     8.00 Bohr mag/cell
     absolute magnetization    =     8.18 Bohr mag/cell

     iteration # 24     ecut=   100.00 Ry     beta= 0.70
     Davidson diagonalization with overlap
     ethr =  5.93E-10,  avg # of iterations =  3.5

     total cpu time spent up to now is     1579.6 secs

     total energy              =   -1799.72933513 Ry
     Harris-Foulkes estimate   =   -1799.72933508 Ry
     estimated scf accuracy    <       0.00000131 Ry

     total magnetization       =     8.00 Bohr mag/cell
     absolute magnetization    =     8.18 Bohr mag/cell

     iteration # 25     ecut=   100.00 Ry     beta= 0.70
     Davidson diagonalization with overlap
     ethr =  2.83E-10,  avg # of iterations =  3.5
 
     Magnetic moment per site:
     atom:    1    charge:    0.3639    magn:    0.0010    constr:    0.0000
     atom:    2    charge:    0.3591    magn:    0.0033    constr:    0.0000
     atom:    3    charge:    0.3591    magn:    0.0024    constr:    0.0000
     atom:    4    charge:    0.3592    magn:    0.0019    constr:    0.0000
     atom:    5    charge:    0.3587    magn:    0.0021    constr:    0.0000
     atom:    6    charge:    0.3688    magn:    0.0037    constr:    0.0000
     atom:    7    charge:    0.3654    magn:    0.0022    constr:    0.0000
     atom:    8    charge:    0.3579    magn:    0.0030    constr:    0.0000
     atom:    9    charge:    0.3539    magn:    0.0023    constr:    0.0000
     atom:   10    charge:    0.3532    magn:    0.0014    constr:    0.0000
     atom:   11    charge:    0.3549    magn:    0.0031    constr:    0.0000
     atom:   12    charge:    0.3538    magn:    0.0013    constr:    0.0000
     atom:   13    charge:    0.3566    magn:    0.0024    constr:    0.0000
     atom:   14    charge:    0.4050    magn:    0.0012    constr:    0.0000
     atom:   15    charge:    0.4004    magn:    0.0013    constr:    0.0000
     atom:   16    charge:    0.4029    magn:    0.0014    constr:    0.0000
     atom:   17    charge:    0.3641    magn:    0.0047    constr:    0.0000
     atom:   18    charge:    0.3692    magn:    0.0038    constr:    0.0000
     atom:   19    charge:    0.3600    magn:    0.0018    constr:    0.0000
     atom:   20    charge:    0.3585    magn:    0.0020    constr:    0.0000
     atom:   21    charge:    0.3453    magn:   -0.0003    constr:    0.0000
     atom:   22    charge:    0.3448    magn:   -0.0006    constr:    0.0000
     atom:   23    charge:    0.3454    magn:   -0.0005    constr:    0.0000
     atom:   24    charge:    0.3465    magn:   -0.0005    constr:    0.0000
     atom:   25    charge:    0.3639    magn:    0.0010    constr:    0.0000
     atom:   26    charge:    0.3591    magn:    0.0033    constr:    0.0000
     atom:   27    charge:    0.3591    magn:    0.0024    constr:    0.0000
     atom:   28    charge:    0.3592    magn:    0.0020    constr:    0.0000
     atom:   29    charge:    0.3587    magn:    0.0021    constr:    0.0000
     atom:   30    charge:    0.3688    magn:    0.0037    constr:    0.0000
     atom:   31    charge:    0.3592    magn:    0.0020    constr:    0.0000
     atom:   32    charge:    0.3630    magn:    0.0014    constr:    0.0000
     atom:   33    charge:    0.3546    magn:    0.0024    constr:    0.0000
     atom:   34    charge:    0.3543    magn:    0.0030    constr:    0.0000
     atom:   35    charge:    0.3549    magn:    0.0031    constr:    0.0000
     atom:   36    charge:    0.3538    magn:    0.0013    constr:    0.0000
     atom:   37    charge:    0.3566    magn:    0.0024    constr:    0.0000
     atom:   38    charge:    0.4050    magn:    0.0013    constr:    0.0000
     atom:   39    charge:    0.3565    magn:    0.0030    constr:    0.0000
     atom:   40    charge:    0.3544    magn:    0.0023    constr:    0.0000
     atom:   41    charge:    0.3651    magn:    0.0013    constr:    0.0000
     atom:   42    charge:    0.3586    magn:    0.0020    constr:    0.0000
     atom:   43    charge:    0.3597    magn:    0.0025    constr:    0.0000
     atom:   44    charge:    0.3583    magn:    0.0024    constr:    0.0000
     atom:   45    charge:    0.3454    magn:   -0.0004    constr:    0.0000
     atom:   46    charge:    0.3449    magn:   -0.0007    constr:    0.0000
     atom:   47    charge:    0.3457    magn:   -0.0004    constr:    0.0000
     atom:   48    charge:    0.3464    magn:   -0.0007    constr:    0.0000
     atom:   49    charge:    0.3755    magn:    0.0043    constr:    0.0000
     atom:   50    charge:    0.3935    magn:    0.0053    constr:    0.0000
     atom:   51    charge:    0.3771    magn:    0.0032    constr:    0.0000
     atom:   52    charge:    0.3720    magn:    0.0070    constr:    0.0000
     atom:   53    charge:    0.3743    magn:    0.0040    constr:    0.0000
     atom:   54    charge:    0.3887    magn:    0.0061    constr:    0.0000
     atom:   55    charge:    0.3780    magn:    0.0031    constr:    0.0000
     atom:   56    charge:    0.3728    magn:    0.0073    constr:    0.0000
     atom:   57    charge:    0.3754    magn:    0.0043    constr:    0.0000
     atom:   58    charge:    0.3934    magn:    0.0053    constr:    0.0000
     atom:   59    charge:    0.3770    magn:    0.0032    constr:    0.0000
     atom:   60    charge:    0.3720    magn:    0.0070    constr:    0.0000
     atom:   61    charge:    0.3773    magn:    0.0031    constr:    0.0000
     atom:   62    charge:    0.3732    magn:    0.0073    constr:    0.0000
     atom:   63    charge:    0.3750    magn:    0.0041    constr:    0.0000
     atom:   64    charge:    0.3868    magn:    0.0050    constr:    0.0000
     atom:   65    charge:    0.2665    magn:   -0.0010    constr:    0.0000
     atom:   66    charge:    0.2683    magn:   -0.0009    constr:    0.0000
     atom:   67    charge:    0.2665    magn:   -0.0005    constr:    0.0000
     atom:   68    charge:    0.2699    magn:   -0.0005    constr:    0.0000
     atom:   69    charge:    0.2696    magn:   -0.0007    constr:    0.0000
     atom:   70    charge:    0.2686    magn:   -0.0005    constr:    0.0000
     atom:   71    charge:    0.2690    magn:   -0.0005    constr:    0.0000
     atom:   72    charge:    0.2501    magn:    0.0014    constr:    0.0000
     atom:   73    charge:    0.2554    magn:    0.0015    constr:    0.0000
     atom:   74    charge:    0.2542    magn:    0.0014    constr:    0.0000
     atom:   75    charge:    0.2665    magn:   -0.0010    constr:    0.0000
     atom:   76    charge:    0.2683    magn:   -0.0009    constr:    0.0000
     atom:   77    charge:    0.2685    magn:   -0.0008    constr:    0.0000
     atom:   78    charge:    0.2670    magn:   -0.0010    constr:    0.0000
     atom:   79    charge:    0.2714    magn:   -0.0006    constr:    0.0000
     atom:   80    charge:    0.2683    magn:   -0.0006    constr:    0.0000
     atom:   81    charge:    0.2694    magn:   -0.0007    constr:    0.0000
     atom:   82    charge:    0.2683    magn:   -0.0005    constr:    0.0000
     atom:   83    charge:    0.2693    magn:   -0.0005    constr:    0.0000
     atom:   84    charge:    0.2496    magn:    0.0014    constr:    0.0000
     atom:   85    charge:    0.2667    magn:   -0.0007    constr:    0.0000
     atom:   86    charge:    0.2683    magn:   -0.0005    constr:    0.0000
     atom:   87    charge:    0.2632    magn:   -0.0006    constr:    0.0000
     atom:   88    charge:    0.2682    magn:   -0.0009    constr:    0.0000
     atom:   89    charge:    0.4282    magn:    0.0006    constr:    0.0000
     atom:   90    charge:    0.2736    magn:   -0.0005    constr:    0.0000
     atom:   91    charge:    0.4356    magn:    0.0008    constr:    0.0000
     atom:   92    charge:    0.2730    magn:   -0.0006    constr:    0.0000
     atom:   93    charge:    0.4284    magn:    0.0006    constr:    0.0000
     atom:   94    charge:    0.2737    magn:   -0.0005    constr:    0.0000
     atom:   95    charge:    0.2740    magn:   -0.0006    constr:    0.0000
     atom:   96    charge:    0.4263    magn:    0.0009    constr:    0.0000
     atom:   97    charge:    2.4485    magn:    0.0120    constr:    0.0000
     atom:   98    charge:    2.4803    magn:    0.0239    constr:    0.0000
     atom:   99    charge:    2.4751    magn:    0.0192    constr:    0.0000
     atom:  100    charge:    2.4707    magn:    0.0227    constr:    0.0000
     atom:  101    charge:    2.4481    magn:    0.0119    constr:    0.0000
     atom:  102    charge:    2.4802    magn:    0.0242    constr:    0.0000
     atom:  103    charge:    2.4510    magn:    0.0118    constr:    0.0000
     atom:  104    charge:    2.4499    magn:    0.0126    constr:    0.0000
     atom:  105    charge:    7.4451    magn:    1.0929    constr:    0.0000
     atom:  106    charge:    7.4519    magn:    1.0846    constr:    0.0000
     atom:  107    charge:    7.4357    magn:    1.1027    constr:    0.0000
     atom:  108    charge:    7.4444    magn:    1.0932    constr:    0.0000
     atom:  109    charge:    3.2641    magn:    0.0467    constr:    0.0000
     atom:  110    charge:    3.2585    magn:    0.0538    constr:    0.0000
     atom:  111    charge:    3.2651    magn:    0.0473    constr:    0.0000
     atom:  112    charge:    3.2587    magn:    0.0516    constr:    0.0000
     atom:  113    charge:    3.2597    magn:    0.0513    constr:    0.0000
     atom:  114    charge:    3.2614    magn:    0.0522    constr:    0.0000
     atom:  115    charge:    3.2625    magn:    0.0522    constr:    0.0000
     atom:  116    charge:    3.2568    magn:    0.0534    constr:    0.0000
     atom:  117    charge:    3.2613    magn:    0.0513    constr:    0.0000
     atom:  118    charge:    3.2617    magn:    0.0499    constr:    0.0000
     atom:  119    charge:    3.2637    magn:    0.0489    constr:    0.0000
     atom:  120    charge:    3.2572    magn:    0.0533    constr:    0.0000
     atom:  121    charge:    3.2580    magn:    0.0503    constr:    0.0000
     atom:  122    charge:    3.2583    magn:    0.0554    constr:    0.0000
     atom:  123    charge:    3.2622    magn:    0.0515    constr:    0.0000
     atom:  124    charge:    3.2569    magn:    0.0545    constr:    0.0000

     total cpu time spent up to now is     1640.1 secs

     End of self-consistent calculation

 ------ SPIN UP ------------


          k = 0.0000 0.0000 0.0000 ( 91663 PWs)   bands (ev):

   -23.2060 -23.1923 -22.6860 -22.4001 -21.2820 -21.2735 -21.2622 -21.2122
   -21.1560 -21.1477 -21.1356 -21.0845 -18.2759 -18.2595 -18.2510 -18.2479
   -18.2400 -18.2023 -18.1859 -18.1673 -18.0779 -18.0428 -18.0111 -17.9439
   -17.5632 -17.4941 -17.4844 -17.4400 -15.5769 -15.5602 -15.5037 -15.4025
   -15.0942 -15.0538 -15.0480 -14.8777 -13.9437 -13.7756 -13.7558 -13.6912
   -13.5741 -13.5542 -13.4247 -13.3671 -13.0126 -12.9984 -12.9789 -12.5829
   -12.3449 -12.0776 -11.7982 -11.7828 -11.7170 -11.6350 -11.5981 -11.5577
   -10.7857 -10.7449 -10.7248 -10.6592 -10.4370 -10.3859 -10.3239 -10.2390
   -10.0092  -9.9910  -9.9492  -9.8467  -9.7647  -9.7316  -9.7094  -9.3960
    -8.5340  -8.4064  -8.3591  -8.3327  -8.2504  -8.2396  -8.2072  -8.1076
    -7.7100  -7.6978  -7.6455  -7.5943  -7.5280  -7.3038  -7.2565  -7.2333
    -7.2004  -7.1649  -7.1482  -7.0940  -6.9591  -6.8661  -6.8319  -6.7862
    -6.6179  -6.5767  -6.5511  -6.5141  -6.2516  -6.2352  -6.1353  -6.0331
    -5.9905  -5.9320  -5.9055  -5.8078  -5.7360  -5.6934  -5.6488  -5.5939
    -5.5594  -5.5197  -5.4926  -5.4593  -5.4016  -5.3565  -5.3419  -5.3132
    -5.2715  -5.2472  -5.2175  -5.1638  -5.1322  -5.1022  -5.0565  -5.0415
    -4.9947  -4.9230  -4.8746  -4.8329  -4.7228  -4.6909  -4.6203  -4.5507
    -4.4696  -4.4589  -4.3554  -4.3014  -4.2150  -4.1562  -4.0684  -4.0412
    -4.0028  -3.9111  -3.8778  -3.7864  -3.7268  -3.6407  -3.5594  -3.5449
    -3.5137  -3.4364  -3.3580  -3.2842  -3.2074  -3.1841  -3.1610  -3.0924
    -3.0645  -2.9356  -2.8991  -2.8667  -2.7547  -2.7412  -2.6577  -2.6024
    -2.5230  -2.5100  -2.4110  -2.3998  -2.3216  -2.2956  -2.2281  -2.1421
    -2.0796  -2.0679  -2.0407  -1.9804  -1.9533  -1.8985  -1.7952  -1.7857
    -1.7505  -1.7008  -1.6824  -1.6618  -1.6216  -1.5627  -1.5314  -1.4822
    -1.4437  -1.3852  -1.3704  -1.3146  -1.2566  -1.2306  -1.1657  -1.1139
    -1.1002  -1.0900  -1.0412  -1.0338  -0.9833  -0.9584  -0.9449  -0.9078
    -0.8844  -0.8563  -0.7871  -0.7568  -0.7548  -0.7272  -0.6790  -0.6126
    -0.5615  -0.5137  -0.4277  -0.3564  -0.2834  -0.2590  -0.2304  -0.1424
     0.7145   0.7560   1.0114   1.0387   1.0799   1.1207   1.1846   1.2158
     1.2729   1.3223   1.4377   1.4828   2.1641   2.4669   2.5137   2.6515
     3.0403   3.0536   3.1631   3.2248   3.4914   3.5420   3.5713   3.6353
     3.8456   3.9476   4.0318   4.1014   4.5470   4.7641   4.9446   4.9883
     5.0281   5.1367   5.2449   5.3142   5.3787   5.4750   5.5201   5.6797
     5.7795   5.8023   5.8271   5.9219   5.9971   6.0568   6.1646   6.2121
     6.2556   6.3056   6.4008   6.4338   6.4975   6.5242   6.6627   6.6858
     6.7528   6.7747   6.8063

 ------ SPIN DOWN ----------


          k = 0.0000 0.0000 0.0000 ( 91663 PWs)   bands (ev):

   -23.1681 -23.1543 -22.6448 -22.3622 -21.1884 -21.1809 -21.1652 -21.1132
   -21.0628 -21.0559 -21.0389 -20.9868 -18.1601 -18.1431 -18.1334 -18.1251
   -18.1206 -18.0792 -18.0611 -18.0519 -18.0328 -18.0092 -17.9771 -17.9103
   -17.5150 -17.4463 -17.4389 -17.3929 -15.5345 -15.5173 -15.4618 -15.3591
   -15.0562 -15.0163 -15.0103 -14.8411 -13.8930 -13.7303 -13.7119 -13.6471
   -13.5105 -13.5058 -13.3604 -13.3041 -12.9714 -12.9572 -12.9355 -12.5161
   -12.2984 -12.0228 -11.7477 -11.7444 -11.6564 -11.5909 -11.5519 -11.5179
   -10.7478 -10.7090 -10.6864 -10.6192 -10.4031 -10.3525 -10.2898 -10.2061
    -9.9680  -9.9529  -9.9057  -9.8112  -9.7311  -9.6882  -9.6755  -9.3545
    -8.4959  -8.3768  -8.3318  -8.3026  -8.2183  -8.2066  -8.1727  -8.0712
    -7.6766  -7.6534  -7.6028  -7.5541  -7.4881  -7.2578  -7.2184  -7.1918
    -7.1533  -7.1218  -7.1080  -7.0467  -6.9157  -6.8205  -6.7858  -6.7410
    -6.5759  -6.5350  -6.5087  -6.4706  -6.2109  -6.1926  -6.0807  -5.9758
    -5.9342  -5.8786  -5.8472  -5.7322  -5.6518  -5.6097  -5.5713  -5.5024
    -5.4595  -5.4310  -5.3953  -5.3637  -5.2916  -5.2725  -5.2380  -5.2041
    -5.1646  -5.1535  -5.1241  -5.0503  -5.0339  -5.0096  -4.9443  -4.9336
    -4.8934  -4.8469  -4.7924  -4.7533  -4.6770  -4.6472  -4.5443  -4.5094
    -4.4365  -4.3888  -4.2721  -4.2182  -4.1368  -4.0716  -3.9846  -3.9709
    -3.9590  -3.8353  -3.8009  -3.6982  -3.6187  -3.5000  -3.4425  -3.4060
    -3.3569  -3.2397  -3.1928  -3.1624  -3.1231  -3.0902  -3.0518  -2.9661
    -2.9124  -2.7063  -2.7019  -2.5706  -2.5603  -2.4967  -2.4375  -2.4203
    -2.3426  -2.2833  -2.2354  -2.2195  -2.1917  -2.1150  -2.0094  -1.9163
    -1.8769  -1.8435  -1.7272  -1.7061  -1.6652  -1.6052  -1.5265  -1.4736
    -1.4352  -1.3944  -1.3684  -1.3267  -1.3070  -1.2960  -1.2710  -1.1867
    -1.1581  -1.1257  -1.0391  -1.0189  -0.9662  -0.9594  -0.9038  -0.8910
    -0.8486  -0.8211  -0.7821  -0.6954  -0.5877  -0.5746  -0.4388  -0.3599
    -0.3220  -0.2754  -0.2544  -0.2135  -0.1410  -0.1223  -0.0733   0.0396
     0.0642   0.0810   0.0964   0.1117   0.1182   0.1590   0.1914   0.2461
     0.8809   0.9398   1.3178   1.5767   1.7906   1.8146   1.8377   1.8721
     1.9184   1.9809   2.0427   2.1369   2.2939   2.5842   2.6216   2.7635
     3.1366   3.1588   3.2634   3.3266   3.5770   3.6252   3.6612   3.7215
     3.9311   4.0334   4.1187   4.1885   4.6175   4.8419   5.0244   5.0593
     5.1026   5.2040   5.3081   5.3809   5.4397   5.5458   5.5910   5.7503
     5.8555   5.8683   5.8973   6.0012   6.0593   6.1131   6.2243   6.2742
     6.3171   6.3688   6.4670   6.5003   6.5680   6.5871   6.7271   6.7463
     6.8067   6.8362   6.8750

     the spin up/dw Fermi energies are     1.6456    1.3109 ev

!    total energy              =   -1799.72933489 Ry
     Harris-Foulkes estimate   =   -1799.72933523 Ry
     estimated scf accuracy    <       0.00000054 Ry

     The total energy is the sum of the following terms:

     one-electron contribution =   -2601.02806848 Ry
     hartree contribution      =    1474.06349061 Ry
     xc contribution           =    -550.98448511 Ry
     ewald contribution        =    -123.61370186 Ry
     Dispersion Correction     =      -0.61603552 Ry
     smearing contrib. (-TS)   =       2.44946546 Ry

     total magnetization       =     8.00 Bohr mag/cell
     absolute magnetization    =     8.18 Bohr mag/cell

     convergence has been achieved in  25 iterations

     Forces acting on atoms (cartesian axes, Ry/au):

     atom    1 type  1   force =    -0.01736850   -0.01223931   -0.00498284
     atom    2 type  1   force =     0.00381464    0.00116603   -0.00750582
     atom    3 type  1   force =     0.04945027    0.02478710    0.00516110
     atom    4 type  1   force =    -0.02115506   -0.01940345   -0.02833271
     atom    5 type  1   force =    -0.01456775   -0.00736186   -0.00566150
     atom    6 type  1   force =     0.13404879   -0.06060239   -0.19543527
     atom    7 type  1   force =     0.01733006    0.01243183   -0.02280585
     atom    8 type  1   force =     0.00589312   -0.00151898    0.00284614
     atom    9 type  1   force =    -0.02660018    0.02999622    0.04516198
     atom   10 type  1   force =    -0.02691025    0.01023772    0.00584300
     atom   11 type  1   force =     0.00303171   -0.02527732    0.03526149
     atom   12 type  1   force =     0.02555957    0.00649568    0.00731756
     atom   13 type  1   force =     0.00936121    0.00513492   -0.00086782
     atom   14 type  1   force =     0.53984723    0.68027592   -0.32194123
     atom   15 type  1   force =    -0.46322788    0.59554110   -0.42245662
     atom   16 type  1   force =    -0.44740348   -0.70765372   -0.40309404
     atom   17 type  1   force =    -0.09321889   -0.07212078   -0.18757740
     atom   18 type  1   force =    -0.12584756    0.06594542   -0.21211018
     atom   19 type  1   force =    -0.05248523   -0.02684399    0.01867330
     atom   20 type  1   force =     0.01787283    0.01880158   -0.02658778
     atom   21 type  1   force =    -0.00507029   -0.00150453    0.00411938
     atom   22 type  1   force =     0.00426116   -0.00721577    0.00309775
     atom   23 type  1   force =    -0.01256426   -0.00784160    0.00544846
     atom   24 type  1   force =     0.01311573    0.00372245   -0.00076802
     atom   25 type  1   force =    -0.01682507   -0.01218067   -0.00481897
     atom   26 type  1   force =     0.00356313    0.00117334   -0.00768527
     atom   27 type  1   force =     0.04934622    0.02458050    0.00544984
     atom   28 type  1   force =    -0.02104961   -0.01902112   -0.02755855
     atom   29 type  1   force =    -0.01452092   -0.00786927   -0.00539570
     atom   30 type  1   force =     0.13365612   -0.06032135   -0.19536839
     atom   31 type  1   force =    -0.00612964    0.00341231    0.01030191
     atom   32 type  1   force =     0.00582468   -0.01274629   -0.01214518
     atom   33 type  1   force =    -0.00359772   -0.00980938   -0.00501756
     atom   34 type  1   force =    -0.00366294   -0.03172190    0.03626824
     atom   35 type  1   force =     0.00174358   -0.02604856    0.03561048
     atom   36 type  1   force =     0.02691577    0.00605578    0.00770135
     atom   37 type  1   force =     0.00867025    0.00520062   -0.00234078
     atom   38 type  1   force =     0.53894059    0.67934213   -0.32162397
     atom   39 type  1   force =     0.02453180    0.02731317    0.01322986
     atom   40 type  1   force =    -0.00921350    0.00721884   -0.00295327
     atom   41 type  1   force =     0.00682140    0.01092955    0.00027893
     atom   42 type  1   force =     0.01517567   -0.00726693   -0.00416397
     atom   43 type  1   force =     0.02658782   -0.01944011   -0.03680271
     atom   44 type  1   force =    -0.04525409    0.02274713    0.00544286
     atom   45 type  1   force =    -0.00844461   -0.00070240    0.00128274
     atom   46 type  1   force =     0.00142308   -0.00762259    0.00083933
     atom   47 type  1   force =     0.01403887    0.00319806   -0.00174256
     atom   48 type  1   force =    -0.00601488    0.00204802    0.00229849
     atom   49 type  1   force =     0.11342828   -0.07257518    0.17726680
     atom   50 type  1   force =    -0.02962893   -0.13369069    0.17918031
     atom   51 type  1   force =    -0.10948010    0.03928770   -0.05702975
     atom   52 type  1   force =     0.09996054   -0.04141765    0.02708174
     atom   53 type  1   force =    -0.11428294    0.05538125    0.16182096
     atom   54 type  1   force =     0.04235117    0.08781615    0.15133252
     atom   55 type  1   force =     0.10764387   -0.04101047   -0.05877507
     atom   56 type  1   force =    -0.10001981    0.04177570    0.02868591
     atom   57 type  1   force =     0.11357495   -0.07283776    0.17753215
     atom   58 type  1   force =    -0.02868317   -0.13237967    0.17936601
     atom   59 type  1   force =    -0.10954794    0.03929109   -0.05703251
     atom   60 type  1   force =     0.10004975   -0.04152635    0.02713587
     atom   61 type  1   force =     0.12562520    0.04015085   -0.02814024
     atom   62 type  1   force =    -0.10083811   -0.03920474    0.03307820
     atom   63 type  1   force =    -0.11912326   -0.06125453    0.14579400
     atom   64 type  1   force =     0.03057275   -0.09059791    0.10557237
     atom   65 type  2   force =     0.00193319   -0.00337383   -0.00142740
     atom   66 type  2   force =    -0.00049921    0.00235457   -0.00267082
     atom   67 type  2   force =    -0.00351825    0.00407554    0.00145742
     atom   68 type  2   force =    -0.00331826   -0.00108120   -0.00416746
     atom   69 type  2   force =    -0.00196637    0.00141372   -0.00206730
     atom   70 type  2   force =     0.00565662    0.00574193    0.00258101
     atom   71 type  2   force =    -0.00146641   -0.00030541    0.00010105
     atom   72 type  2   force =     0.06901183    0.11079060   -0.02070180
     atom   73 type  2   force =    -0.08124894    0.11977699   -0.02234744
     atom   74 type  2   force =    -0.07674069   -0.11656407   -0.01966894
     atom   75 type  2   force =     0.00184543   -0.00326889   -0.00143887
     atom   76 type  2   force =    -0.00067832    0.00226738   -0.00270420
     atom   77 type  2   force =    -0.00191408   -0.00221847   -0.00112897
     atom   78 type  2   force =    -0.00262316    0.00301485   -0.00120248
     atom   79 type  2   force =     0.00008611    0.00112410    0.00148189
     atom   80 type  2   force =    -0.00080668   -0.00520454    0.00517243
     atom   81 type  2   force =    -0.00147521    0.00116950   -0.00186560
     atom   82 type  2   force =     0.00579561    0.00596751    0.00282656
     atom   83 type  2   force =    -0.00143715    0.00026600    0.00080833
     atom   84 type  2   force =     0.06927224    0.11185013   -0.02087508
     atom   85 type  2   force =    -0.00103754   -0.00144354   -0.00002515
     atom   86 type  2   force =     0.00102521    0.00056015    0.00077766
     atom   87 type  2   force =    -0.00821002    0.00450078   -0.01570875
     atom   88 type  2   force =    -0.00059626    0.00352386   -0.00386477
     atom   89 type  2   force =    -0.71505085   -0.63250603    0.26442515
     atom   90 type  2   force =     0.05636077   -0.03068979    0.01899465
     atom   91 type  2   force =     0.65373083    0.68728941    0.37332067
     atom   92 type  2   force =    -0.05976317    0.02795768    0.01750534
     atom   93 type  2   force =    -0.71497035   -0.63240042    0.26365067
     atom   94 type  2   force =     0.05639423   -0.03029206    0.01898465
     atom   95 type  2   force =    -0.05787475   -0.03019672    0.01636179
     atom   96 type  2   force =     0.63912530   -0.59810261    0.38418877
     atom   97 type  3   force =    -0.01190606   -0.00297343   -0.00752975
     atom   98 type  3   force =    -0.16634695    0.15313442   -0.07775012
     atom   99 type  3   force =     0.13714847    0.11616082   -0.06104246
     atom  100 type  3   force =     0.13118129   -0.11816094   -0.04512767
     atom  101 type  3   force =    -0.01192701   -0.00223001   -0.00693036
     atom  102 type  3   force =    -0.16644937    0.15307684   -0.07804849
     atom  103 type  3   force =    -0.01082372    0.00293375    0.00449177
     atom  104 type  3   force =     0.01021263   -0.00748965   -0.00672347
     atom  105 type  4   force =     0.01760386    0.00442332    0.00820624
     atom  106 type  4   force =     0.00334878    0.00270539    0.01732836
     atom  107 type  4   force =     0.00761058   -0.00447329    0.00354239
     atom  108 type  4   force =    -0.00576628    0.00973565    0.01039722
     atom  109 type  5   force =     0.02079027   -0.00193136   -0.00189152
     atom  110 type  5   force =     0.00423309   -0.00442962    0.00829751
     atom  111 type  5   force =    -0.02282141    0.00773112   -0.00221955
     atom  112 type  5   force =    -0.00933457    0.00405909    0.00041661
     atom  113 type  5   force =    -0.01251346   -0.00489281   -0.00286885
     atom  114 type  5   force =    -0.01098227    0.00441083    0.00008057
     atom  115 type  5   force =     0.00730959    0.00143176    0.00364378
     atom  116 type  5   force =     0.00032371    0.00214089   -0.00150943
     atom  117 type  5   force =     0.00571688    0.00093585    0.00065793
     atom  118 type  5   force =     0.01619496   -0.00054656   -0.00467770
     atom  119 type  5   force =    -0.01832602    0.00370323    0.00058065
     atom  120 type  5   force =    -0.00536219    0.00721668    0.00280866
     atom  121 type  5   force =    -0.00027013    0.00696911    0.00364767
     atom  122 type  5   force =    -0.00215529   -0.00343191    0.00288123
     atom  123 type  5   force =     0.00558698    0.00107896    0.00276074
     atom  124 type  5   force =     0.00138667    0.00208581   -0.00095448

     Total force =     2.872011     Total SCF correction =     0.001838

     BFGS Geometry Optimization

     number of scf cycles    =   1
     number of bfgs steps    =   0

     energy   new            =   -1799.7293348940 Ry

     new trust radius        =       0.5000000000 bohr
     new conv_thr            =       0.0000010000 Ry


ATOMIC_POSITIONS (crystal)
C             0.2878492131        0.9697963253        0.5218581167
C             0.0384547246        0.0311301674        0.0221183776
C             0.3916627498        0.0122837432        0.5466223869
C             0.1397918845        0.9873418396        0.0454302202
C             0.4516100327        0.9700494163        0.6502279715
C             0.2052124245        0.0270969406        0.1449556461
C             0.2085302125        0.5299616650        0.5258078474
C             0.4586686246        0.4713775173        0.0279759031
C             0.2446056582        0.6139527087        0.6075759440
C             0.4962631445        0.3888891895        0.1087646140
C             0.2495551379        0.8886820962        0.6040938241
C             0.0016028721        0.1123666310        0.1044318663
C             0.4081708998        0.8894894276        0.7275300758
C             0.1709919050        0.1236465582        0.2196786791
C             0.0790531286        0.6213263246        0.7166793216
C             0.3314184781        0.3769660029        0.2192104856
C             0.0449039295        0.5235842078        0.6465731624
C             0.2949484179        0.4760778003        0.1473953818
C             0.1070832160        0.4837136252        0.5505877504
C             0.3581907393        0.5160456859        0.0499663030
C             0.4332066565        0.0992878168        0.4667250694
C             0.1816068677        0.8995704444        0.9657502596
C             0.0671197245        0.3943114732        0.4708136465
C             0.3163148735        0.6042491524        0.9690875971
C             0.7878605676        0.9697975406        0.5218622565
C             0.5384494220        0.0311303189        0.0221138442
C             0.8916607229        0.0122794613        0.5466296814
C             0.6397944291        0.9873497637        0.0454497780
C             0.9516111269        0.9700388996        0.6502346864
C             0.7052043051        0.0271027656        0.1449573358
C             0.7080595114        0.5297747244        0.5266442609
C             0.9586613114        0.4711448174        0.0275971717
C             0.7450600198        0.6131276885        0.6063082394
C             0.9967596484        0.3880195244        0.1095332581
C             0.7495285622        0.8886661115        0.6041026408
C             0.5016311975        0.1123575136        0.1044415621
C             0.9081558812        0.8894907893        0.7274928641
C             0.6709722329        0.1236272044        0.2196866943
C             0.5893772584        0.6095490992        0.7276862310
C             0.8406974093        0.3917826194        0.2293193904
C             0.5470667114        0.5253055284        0.6513190468
C             0.7979710678        0.4745603838        0.1526488040
C             0.6086989287        0.4838670798        0.5491862396
C             0.8568952206        0.5161274624        0.0507755050
C             0.9331353157        0.0993044418        0.4666534062
C             0.6815469229        0.8995620123        0.9656932042
C             0.5676675860        0.3945402836        0.4706319772
C             0.8159192135        0.6042144477        0.9691650677
C             0.2261237907        0.0033147899        0.4255013571
C             0.1677264127        0.0321320954        0.3385296987
C             0.3011874389        0.9927822861        0.1776052362
C             0.3926422061        0.9595895680        0.2046641760
C             0.2694543752        0.4971708448        0.4316421430
C             0.3273676089        0.4686780982        0.3461331697
C             0.2004142043        0.5117020074        0.1799541436
C             0.1103682045        0.5461898529        0.2067117029
C             0.7261269569        0.0033093475        0.4255080607
C             0.6677461282        0.0321592679        0.3385343901
C             0.8011860298        0.9927833563        0.1776061665
C             0.8926440826        0.9595883151        0.2046665435
C             0.4503655051        0.4871271759        0.6787970827
C             0.3601472396        0.4519064334        0.7045056668
C             0.0198295420        0.5046944243        0.9330602479
C             0.0775870997        0.5339652465        0.8471641141
H             0.4865774685        0.0026220731        0.9434629390
H             0.0320514105        0.9988538014        0.6734525262
H             0.3225686462        0.6505904706        0.5926718194
H             0.0748972109        0.3528285909        0.0949227158
H             0.1701122360        0.8551523011        0.5885077731
H             0.4224405940        0.1478510086        0.0899512050
H             0.4533396100        0.8551666701        0.8087635528
H             0.2076618731        0.1453992720        0.3082740027
H             0.0420323436        0.6454265260        0.8060434283
H             0.2947761472        0.3551100658        0.3085540964
H             0.9865756417        0.0026242482        0.9434626493
H             0.5320466776        0.9988519942        0.6734516827
H             0.7586597528        0.5008490194        0.4492534785
H             0.5085860014        0.5004594865        0.9505176214
H             0.8226434687        0.6505292983        0.5926724376
H             0.5749536348        0.3527431295        0.0951586731
H             0.6701225231        0.8551472394        0.5885128686
H             0.9224435917        0.1478556840        0.0899574084
H             0.9533405426        0.8551785132        0.8087814211
H             0.7076681983        0.1454212321        0.3082696252
H             0.5437074534        0.6429140809        0.8066073647
H             0.7963996366        0.3575376098        0.3090706462
H             0.9684943724        0.4933242842        0.6731051440
H             0.7189378473        0.5052740363        0.1751663628
H             0.1065401705        0.0493475317        0.2640342708
H             0.4676375426        0.9310069161        0.2243908689
H             0.3865323086        0.4542839215        0.2766483387
H             0.0363966201        0.5758254574        0.2260522440
H             0.6065414851        0.0493497207        0.2640147048
H             0.9676382324        0.9310171597        0.2243916163
H             0.2864552897        0.4214581357        0.7233833540
H             0.1367071571        0.5508685851        0.7794169037
N             0.3081864190        0.8511913719        0.7046377730
N             0.0572405989        0.1520308999        0.2040877698
N             0.1893605515        0.6527175765        0.7042958617
N             0.4415120154        0.3484789687        0.2069009228
N             0.8081862597        0.8512067803        0.7046529157
N             0.5572383359        0.1520297064        0.2040802321
N             0.6863204109        0.6503708055        0.7059514772
N             0.9390188793        0.3507727677        0.2078711426
Ni            0.2473711541        0.7515776788        0.8365333172
Ni            0.5000494735        0.2480550726        0.3396157727
Ni            0.7471615919        0.7513932856        0.8364154926
Ni            0.9998570970        0.2482007833        0.3394406689
O             0.1232086476        0.3476489701        0.3828252138
O             0.3712996758        0.6508851906        0.8815016230
O             0.3771553044        0.1476672371        0.3771219266
O             0.1249044456        0.8524361297        0.8762715251
O             0.4728079549        0.3560585905        0.4829215231
O             0.2209090919        0.6415064199        0.9798790354
O             0.0289933912        0.1351876749        0.4811700541
O             0.2766920247        0.8628023726        0.9793608666
O             0.6228979606        0.3477083967        0.3828896215
O             0.8715419877        0.6509656718        0.8811738256
O             0.8772498970        0.1475837539        0.3771926691
O             0.6249879952        0.8525015745        0.8763319561
O             0.9730650705        0.3563044435        0.4830861526
O             0.7210935900        0.6413438695        0.9799497896
O             0.5289572313        0.1351803627        0.4811477457
O             0.7767143426        0.8628012310        0.9793748867



     Writing output data file ./QE_relaxation_results/pbesol_relax/NiPyC2_relax_sc211_meta_functionalized_C-C_pbesol_relax.save/
     NEW-OLD atomic charge density approx. for the potential

     Check: negative core charge=   -0.000145

     total cpu time spent up to now is     1664.8 secs

     Self-consistent Calculation

     iteration #  1     ecut=   100.00 Ry     beta= 0.70
     Davidson diagonalization with overlap
     c_bands:  1 eigenvalues not converged
     ethr =  1.00E-06,  avg # of iterations = 20.0

     total cpu time spent up to now is     2003.0 secs

     total energy              =   -1801.32285314 Ry
     Harris-Foulkes estimate   =   -1801.59662153 Ry
     estimated scf accuracy    <       0.73291438 Ry

     total magnetization       =     8.00 Bohr mag/cell
     absolute magnetization    =     8.18 Bohr mag/cell

     iteration #  2     ecut=   100.00 Ry     beta= 0.70
     Davidson diagonalization with overlap
     ethr =  1.58E-04,  avg # of iterations =  3.0

     total cpu time spent up to now is     2067.3 secs

     total energy              =   -1801.32919779 Ry
     Harris-Foulkes estimate   =   -1801.38947227 Ry
     estimated scf accuracy    <       0.17110662 Ry

     total magnetization       =     8.00 Bohr mag/cell
     absolute magnetization    =     8.18 Bohr mag/cell

     iteration #  3     ecut=   100.00 Ry     beta= 0.70
     Davidson diagonalization with overlap
     ethr =  3.69E-05,  avg # of iterations =  2.0

     total cpu time spent up to now is     2131.7 secs

     total energy              =   -1801.31685724 Ry
     Harris-Foulkes estimate   =   -1801.39894135 Ry
     estimated scf accuracy    <       0.70370456 Ry

     total magnetization       =     8.00 Bohr mag/cell
     absolute magnetization    =     8.17 Bohr mag/cell

     iteration #  4     ecut=   100.00 Ry     beta= 0.70
     Davidson diagonalization with overlap
     ethr =  3.69E-05,  avg # of iterations =  2.0

     total cpu time spent up to now is     2192.4 secs

     total energy              =   -1801.35485784 Ry
     Harris-Foulkes estimate   =   -1801.35844183 Ry
     estimated scf accuracy    <       0.01570755 Ry

     total magnetization       =     8.00 Bohr mag/cell
     absolute magnetization    =     8.18 Bohr mag/cell

     iteration #  5     ecut=   100.00 Ry     beta= 0.70
     Davidson diagonalization with overlap
     ethr =  3.39E-06,  avg # of iterations =  8.0

     total cpu time spent up to now is     2266.3 secs

     total energy              =   -1801.35524941 Ry
     Harris-Foulkes estimate   =   -1801.35853519 Ry
     estimated scf accuracy    <       0.05022439 Ry

     total magnetization       =     8.00 Bohr mag/cell
     absolute magnetization    =     8.18 Bohr mag/cell

     iteration #  6     ecut=   100.00 Ry     beta= 0.70
     Davidson diagonalization with overlap
     ethr =  3.39E-06,  avg # of iterations =  1.5

     total cpu time spent up to now is     2325.5 secs

     total energy              =   -1801.35669849 Ry
     Harris-Foulkes estimate   =   -1801.35700754 Ry
     estimated scf accuracy    <       0.00199194 Ry

     total magnetization       =     8.00 Bohr mag/cell
     absolute magnetization    =     8.18 Bohr mag/cell

     iteration #  7     ecut=   100.00 Ry     beta= 0.70
     Davidson diagonalization with overlap
     ethr =  4.29E-07,  avg # of iterations =  1.5

     total cpu time spent up to now is     2384.4 secs

     total energy              =   -1801.35671542 Ry
     Harris-Foulkes estimate   =   -1801.35684328 Ry
     estimated scf accuracy    <       0.00096085 Ry

     total magnetization       =     8.00 Bohr mag/cell
     absolute magnetization    =     8.18 Bohr mag/cell

     iteration #  8     ecut=   100.00 Ry     beta= 0.70
     Davidson diagonalization with overlap
     ethr =  2.07E-07,  avg # of iterations =  2.5

     total cpu time spent up to now is     2445.2 secs

     total energy              =   -1801.35665647 Ry
     Harris-Foulkes estimate   =   -1801.35689962 Ry
     estimated scf accuracy    <       0.00380124 Ry

     total magnetization       =     8.00 Bohr mag/cell
     absolute magnetization    =     8.18 Bohr mag/cell

     iteration #  9     ecut=   100.00 Ry     beta= 0.70
     Davidson diagonalization with overlap
     ethr =  2.07E-07,  avg # of iterations =  1.0

     total cpu time spent up to now is     2504.2 secs

     total energy              =   -1801.35674740 Ry
     Harris-Foulkes estimate   =   -1801.35676844 Ry
     estimated scf accuracy    <       0.00019129 Ry

     total magnetization       =     8.00 Bohr mag/cell
     absolute magnetization    =     8.18 Bohr mag/cell

     iteration # 10     ecut=   100.00 Ry     beta= 0.70
     Davidson diagonalization with overlap
     ethr =  4.12E-08,  avg # of iterations =  3.5

     total cpu time spent up to now is     2568.0 secs

     total energy              =   -1801.35675045 Ry
     Harris-Foulkes estimate   =   -1801.35675741 Ry
     estimated scf accuracy    <       0.00009924 Ry

     total magnetization       =     8.00 Bohr mag/cell
     absolute magnetization    =     8.18 Bohr mag/cell

     iteration # 11     ecut=   100.00 Ry     beta= 0.70
     Davidson diagonalization with overlap
     ethr =  2.14E-08,  avg # of iterations =  2.0

     total cpu time spent up to now is     2627.7 secs

     total energy              =   -1801.35674868 Ry
     Harris-Foulkes estimate   =   -1801.35676132 Ry
     estimated scf accuracy    <       0.00017427 Ry

     total magnetization       =     8.00 Bohr mag/cell
     absolute magnetization    =     8.18 Bohr mag/cell

     iteration # 12     ecut=   100.00 Ry     beta= 0.70
     Davidson diagonalization with overlap
     ethr =  2.14E-08,  avg # of iterations =  1.0

     total cpu time spent up to now is     2686.8 secs

     total energy              =   -1801.35675619 Ry
     Harris-Foulkes estimate   =   -1801.35675666 Ry
     estimated scf accuracy    <       0.00002943 Ry

     total magnetization       =     8.00 Bohr mag/cell
     absolute magnetization    =     8.18 Bohr mag/cell

     iteration # 13     ecut=   100.00 Ry     beta= 0.70
     Davidson diagonalization with overlap
     ethr =  6.34E-09,  avg # of iterations =  2.0

     total cpu time spent up to now is     2746.4 secs

     total energy              =   -1801.35675698 Ry
     Harris-Foulkes estimate   =   -1801.35675703 Ry
     estimated scf accuracy    <       0.00000907 Ry

     total magnetization       =     8.00 Bohr mag/cell
     absolute magnetization    =     8.18 Bohr mag/cell

     iteration # 14     ecut=   100.00 Ry     beta= 0.70
     Davidson diagonalization with overlap
     ethr =  1.95E-09,  avg # of iterations =  3.5

     total cpu time spent up to now is     2810.2 secs

     total energy              =   -1801.35675729 Ry
     Harris-Foulkes estimate   =   -1801.35675740 Ry
     estimated scf accuracy    <       0.00000253 Ry

     total magnetization       =     8.00 Bohr mag/cell
     absolute magnetization    =     8.18 Bohr mag/cell

     iteration # 15     ecut=   100.00 Ry     beta= 0.70
     Davidson diagonalization with overlap
     ethr =  5.46E-10,  avg # of iterations =  3.0

     total cpu time spent up to now is     2872.6 secs

     total energy              =   -1801.35675736 Ry
     Harris-Foulkes estimate   =   -1801.35675747 Ry
     estimated scf accuracy    <       0.00000167 Ry

     total magnetization       =     8.00 Bohr mag/cell
     absolute magnetization    =     8.18 Bohr mag/cell

     iteration # 16     ecut=   100.00 Ry     beta= 0.70
     Davidson diagonalization with overlap
     ethr =  3.61E-10,  avg # of iterations =  2.0

     total cpu time spent up to now is     2931.5 secs

     total energy              =   -1801.35675737 Ry
     Harris-Foulkes estimate   =   -1801.35675752 Ry
     estimated scf accuracy    <       0.00000161 Ry

     total magnetization       =     8.00 Bohr mag/cell
     absolute magnetization    =     8.18 Bohr mag/cell

     iteration # 17     ecut=   100.00 Ry     beta= 0.70
     Davidson diagonalization with overlap
     ethr =  3.47E-10,  avg # of iterations =  2.0
 
     Magnetic moment per site:
     atom:    1    charge:    0.3687    magn:    0.0009    constr:    0.0000
     atom:    2    charge:    0.3591    magn:    0.0031    constr:    0.0000
     atom:    3    charge:    0.3588    magn:    0.0028    constr:    0.0000
     atom:    4    charge:    0.3615    magn:    0.0021    constr:    0.0000
     atom:    5    charge:    0.3595    magn:    0.0018    constr:    0.0000
     atom:    6    charge:    0.3627    magn:    0.0031    constr:    0.0000
     atom:    7    charge:    0.3691    magn:    0.0019    constr:    0.0000
     atom:    8    charge:    0.3582    magn:    0.0027    constr:    0.0000
     atom:    9    charge:    0.3569    magn:    0.0021    constr:    0.0000
     atom:   10    charge:    0.3554    magn:    0.0013    constr:    0.0000
     atom:   11    charge:    0.3557    magn:    0.0032    constr:    0.0000
     atom:   12    charge:    0.3567    magn:    0.0009    constr:    0.0000
     atom:   13    charge:    0.3563    magn:    0.0026    constr:    0.0000
     atom:   14    charge:    0.3189    magn:    0.0040    constr:    0.0000
     atom:   15    charge:    0.3222    magn:    0.0039    constr:    0.0000
     atom:   16    charge:    0.3186    magn:    0.0045    constr:    0.0000
     atom:   17    charge:    0.3572    magn:    0.0034    constr:    0.0000
     atom:   18    charge:    0.3625    magn:    0.0031    constr:    0.0000
     atom:   19    charge:    0.3623    magn:    0.0023    constr:    0.0000
     atom:   20    charge:    0.3611    magn:    0.0021    constr:    0.0000
     atom:   21    charge:    0.3454    magn:   -0.0004    constr:    0.0000
     atom:   22    charge:    0.3454    magn:   -0.0007    constr:    0.0000
     atom:   23    charge:    0.3459    magn:   -0.0005    constr:    0.0000
     atom:   24    charge:    0.3469    magn:   -0.0005    constr:    0.0000
     atom:   25    charge:    0.3687    magn:    0.0009    constr:    0.0000
     atom:   26    charge:    0.3591    magn:    0.0031    constr:    0.0000
     atom:   27    charge:    0.3588    magn:    0.0028    constr:    0.0000
     atom:   28    charge:    0.3614    magn:    0.0021    constr:    0.0000
     atom:   29    charge:    0.3595    magn:    0.0018    constr:    0.0000
     atom:   30    charge:    0.3627    magn:    0.0031    constr:    0.0000
     atom:   31    charge:    0.3601    magn:    0.0018    constr:    0.0000
     atom:   32    charge:    0.3668    magn:    0.0012    constr:    0.0000
     atom:   33    charge:    0.3544    magn:    0.0025    constr:    0.0000
     atom:   34    charge:    0.3548    magn:    0.0030    constr:    0.0000
     atom:   35    charge:    0.3556    magn:    0.0032    constr:    0.0000
     atom:   36    charge:    0.3568    magn:    0.0009    constr:    0.0000
     atom:   37    charge:    0.3563    magn:    0.0026    constr:    0.0000
     atom:   38    charge:    0.3188    magn:    0.0040    constr:    0.0000
     atom:   39    charge:    0.3571    magn:    0.0029    constr:    0.0000
     atom:   40    charge:    0.3541    magn:    0.0024    constr:    0.0000
     atom:   41    charge:    0.3672    magn:    0.0012    constr:    0.0000
     atom:   42    charge:    0.3594    magn:    0.0018    constr:    0.0000
     atom:   43    charge:    0.3598    magn:    0.0026    constr:    0.0000
     atom:   44    charge:    0.3581    magn:    0.0027    constr:    0.0000
     atom:   45    charge:    0.3455    magn:   -0.0005    constr:    0.0000
     atom:   46    charge:    0.3456    magn:   -0.0007    constr:    0.0000
     atom:   47    charge:    0.3458    magn:   -0.0005    constr:    0.0000
     atom:   48    charge:    0.3466    magn:   -0.0007    constr:    0.0000
     atom:   49    charge:    0.3867    magn:    0.0057    constr:    0.0000
     atom:   50    charge:    0.3686    magn:    0.0057    constr:    0.0000
     atom:   51    charge:    0.3725    magn:    0.0034    constr:    0.0000
     atom:   52    charge:    0.3629    magn:    0.0087    constr:    0.0000
     atom:   53    charge:    0.3829    magn:    0.0055    constr:    0.0000
     atom:   54    charge:    0.3704    magn:    0.0065    constr:    0.0000
     atom:   55    charge:    0.3729    magn:    0.0032    constr:    0.0000
     atom:   56    charge:    0.3637    magn:    0.0091    constr:    0.0000
     atom:   57    charge:    0.3866    magn:    0.0057    constr:    0.0000
     atom:   58    charge:    0.3686    magn:    0.0057    constr:    0.0000
     atom:   59    charge:    0.3724    magn:    0.0033    constr:    0.0000
     atom:   60    charge:    0.3630    magn:    0.0087    constr:    0.0000
     atom:   61    charge:    0.3695    magn:    0.0032    constr:    0.0000
     atom:   62    charge:    0.3636    magn:    0.0088    constr:    0.0000
     atom:   63    charge:    0.3813    magn:    0.0054    constr:    0.0000
     atom:   64    charge:    0.3703    magn:    0.0054    constr:    0.0000
     atom:   65    charge:    0.2668    magn:   -0.0010    constr:    0.0000
     atom:   66    charge:    0.2671    magn:   -0.0008    constr:    0.0000
     atom:   67    charge:    0.2670    magn:   -0.0004    constr:    0.0000
     atom:   68    charge:    0.2701    magn:   -0.0005    constr:    0.0000
     atom:   69    charge:    0.2697    magn:   -0.0007    constr:    0.0000
     atom:   70    charge:    0.2681    magn:   -0.0003    constr:    0.0000
     atom:   71    charge:    0.2691    magn:   -0.0005    constr:    0.0000
     atom:   72    charge:    0.2730    magn:    0.0005    constr:    0.0000
     atom:   73    charge:    0.2637    magn:    0.0006    constr:    0.0000
     atom:   74    charge:    0.2668    magn:    0.0006    constr:    0.0000
     atom:   75    charge:    0.2668    magn:   -0.0010    constr:    0.0000
     atom:   76    charge:    0.2670    magn:   -0.0008    constr:    0.0000
     atom:   77    charge:    0.2676    magn:   -0.0008    constr:    0.0000
     atom:   78    charge:    0.2673    magn:   -0.0010    constr:    0.0000
     atom:   79    charge:    0.2705    magn:   -0.0007    constr:    0.0000
     atom:   80    charge:    0.2675    magn:   -0.0006    constr:    0.0000
     atom:   81    charge:    0.2697    magn:   -0.0007    constr:    0.0000
     atom:   82    charge:    0.2681    magn:   -0.0003    constr:    0.0000
     atom:   83    charge:    0.2691    magn:   -0.0005    constr:    0.0000
     atom:   84    charge:    0.2727    magn:    0.0005    constr:    0.0000
     atom:   85    charge:    0.2672    magn:   -0.0006    constr:    0.0000
     atom:   86    charge:    0.2682    magn:   -0.0006    constr:    0.0000
     atom:   87    charge:    0.2708    magn:   -0.0004    constr:    0.0000
     atom:   88    charge:    0.2669    magn:   -0.0008    constr:    0.0000
     atom:   89    charge:    0.2564    magn:    0.0005    constr:    0.0000
     atom:   90    charge:    0.2842    magn:   -0.0006    constr:    0.0000
     atom:   91    charge:    0.2594    magn:    0.0005    constr:    0.0000
     atom:   92    charge:    0.2838    magn:   -0.0007    constr:    0.0000
     atom:   93    charge:    0.2565    magn:    0.0005    constr:    0.0000
     atom:   94    charge:    0.2843    magn:   -0.0006    constr:    0.0000
     atom:   95    charge:    0.2848    magn:   -0.0007    constr:    0.0000
     atom:   96    charge:    0.2676    magn:    0.0006    constr:    0.0000
     atom:   97    charge:    2.4518    magn:    0.0112    constr:    0.0000
     atom:   98    charge:    2.4278    magn:    0.0219    constr:    0.0000
     atom:   99    charge:    2.4442    magn:    0.0156    constr:    0.0000
     atom:  100    charge:    2.4378    magn:    0.0193    constr:    0.0000
     atom:  101    charge:    2.4516    magn:    0.0110    constr:    0.0000
     atom:  102    charge:    2.4279    magn:    0.0221    constr:    0.0000
     atom:  103    charge:    2.4543    magn:    0.0109    constr:    0.0000
     atom:  104    charge:    2.4532    magn:    0.0119    constr:    0.0000
     atom:  105    charge:    7.4444    magn:    1.0594    constr:    0.0000
     atom:  106    charge:    7.4496    magn:    1.0241    constr:    0.0000
     atom:  107    charge:    7.4360    magn:    1.0866    constr:    0.0000
     atom:  108    charge:    7.4430    magn:    1.0540    constr:    0.0000
     atom:  109    charge:    3.2610    magn:    0.0474    constr:    0.0000
     atom:  110    charge:    3.2603    magn:    0.0519    constr:    0.0000
     atom:  111    charge:    3.2623    magn:    0.0481    constr:    0.0000
     atom:  112    charge:    3.2580    magn:    0.0514    constr:    0.0000
     atom:  113    charge:    3.2562    magn:    0.0508    constr:    0.0000
     atom:  114    charge:    3.2585    magn:    0.0521    constr:    0.0000
     atom:  115    charge:    3.2598    magn:    0.0525    constr:    0.0000
     atom:  116    charge:    3.2582    magn:    0.0509    constr:    0.0000
     atom:  117    charge:    3.2615    magn:    0.0504    constr:    0.0000
     atom:  118    charge:    3.2597    magn:    0.0494    constr:    0.0000
     atom:  119    charge:    3.2622    magn:    0.0488    constr:    0.0000
     atom:  120    charge:    3.2577    magn:    0.0522    constr:    0.0000
     atom:  121    charge:    3.2604    magn:    0.0486    constr:    0.0000
     atom:  122    charge:    3.2591    magn:    0.0538    constr:    0.0000
[...]
     atom   41 type  1   force =    -0.02487984   -0.00901278    0.00239248
     atom   42 type  1   force =    -0.00927284    0.00120010    0.00392325
     atom   43 type  1   force =     0.00478668   -0.00022181   -0.00354303
     atom   44 type  1   force =    -0.02194309    0.00390275    0.00972588
     atom   45 type  1   force =     0.00064580    0.00601231   -0.00060138
     atom   46 type  1   force =    -0.00412160   -0.01217050   -0.00533107
     atom   47 type  1   force =     0.00126327   -0.00422847   -0.00390204
     atom   48 type  1   force =    -0.00358827    0.00517331   -0.00142442
     atom   49 type  1   force =    -0.05015577    0.02298078   -0.05210366
     atom   50 type  1   force =    -0.02960786   -0.08519724    0.07662904
     atom   51 type  1   force =    -0.23295537    0.07805117   -0.09252243
     atom   52 type  1   force =     0.27923061   -0.10854817    0.07434235
     atom   53 type  1   force =     0.00300497   -0.00549928    0.00277949
     atom   54 type  1   force =     0.07090693    0.06651963    0.06156078
     atom   55 type  1   force =     0.22854715   -0.08320784   -0.09057817
     atom   56 type  1   force =    -0.26959375    0.10785015    0.07251580
     atom   57 type  1   force =    -0.04992690    0.02301573   -0.05191448
     atom   58 type  1   force =    -0.02951170   -0.08485120    0.07639876
     atom   59 type  1   force =    -0.23296310    0.07796573   -0.09261786
     atom   60 type  1   force =     0.27916871   -0.10865538    0.07435722
     atom   61 type  1   force =     0.20745955    0.07410613   -0.04682988
     atom   62 type  1   force =    -0.22257373   -0.08961514    0.06108684
     atom   63 type  1   force =    -0.01965646   -0.00820003    0.01043725
     atom   64 type  1   force =     0.06925339   -0.06213319    0.02443357
     atom   65 type  2   force =    -0.00028605   -0.00220500    0.00137452
     atom   66 type  2   force =    -0.00192444   -0.00024968   -0.00062397
     atom   67 type  2   force =     0.00818920   -0.00145684   -0.00049453
     atom   68 type  2   force =     0.00002529   -0.00377070   -0.00196058
     atom   69 type  2   force =    -0.00320288   -0.00023608   -0.00019074
     atom   70 type  2   force =    -0.00475395   -0.00238344   -0.00236178
     atom   71 type  2   force =    -0.00082804    0.00036100    0.00001759
     atom   72 type  2   force =     0.04177940    0.07128855   -0.03650657
     atom   73 type  2   force =    -0.03493625    0.06402082   -0.04602406
     atom   74 type  2   force =    -0.03463147   -0.06379391   -0.04201714
     atom   75 type  2   force =    -0.00039314   -0.00222675    0.00125104
     atom   76 type  2   force =    -0.00197197   -0.00021345   -0.00063054
     atom   77 type  2   force =    -0.00029775    0.00007947    0.00051737
     atom   78 type  2   force =    -0.00006347    0.00105361    0.00237778
     atom   79 type  2   force =    -0.00244393   -0.00099328    0.00167826
     atom   80 type  2   force =     0.00474486    0.00485766    0.00244088
     atom   81 type  2   force =    -0.00342773   -0.00049473   -0.00030401
     atom   82 type  2   force =    -0.00510087   -0.00241877   -0.00240992
     atom   83 type  2   force =    -0.00107620    0.00076629   -0.00003608
     atom   84 type  2   force =     0.04212858    0.07215292   -0.03647438
     atom   85 type  2   force =    -0.00154288    0.00133368    0.00367896
     atom   86 type  2   force =     0.00039061    0.00123443   -0.00012973
     atom   87 type  2   force =    -0.02576758   -0.00670043   -0.01462817
     atom   88 type  2   force =     0.00162015    0.00035882   -0.00187172
     atom   89 type  2   force =    -0.13297544   -0.10430725    0.08295825
     atom   90 type  2   force =    -0.01430577   -0.00296026    0.00526308
     atom   91 type  2   force =     0.12080035    0.10141006    0.08276858
     atom   92 type  2   force =     0.01160712   -0.00060665    0.00371165
     atom   93 type  2   force =    -0.13277144   -0.10435776    0.08306657
     atom   94 type  2   force =    -0.01423085   -0.00259609    0.00525073
     atom   95 type  2   force =     0.01702944    0.00090583    0.00095884
     atom   96 type  2   force =     0.12660616   -0.09296470    0.09020989
     atom   97 type  3   force =     0.00315773   -0.01042514    0.01406739
     atom   98 type  3   force =     0.03835816    0.05863552   -0.04241211
     atom   99 type  3   force =    -0.04312555    0.04935831   -0.02800775
     atom  100 type  3   force =    -0.03553863   -0.04610657   -0.03619075
     atom  101 type  3   force =     0.00209521   -0.01172352    0.01440213
     atom  102 type  3   force =     0.03926917    0.05651813   -0.04249690
     atom  103 type  3   force =     0.01177385    0.01134313    0.00112972
     atom  104 type  3   force =    -0.00492202   -0.01085382    0.01243734
     atom  105 type  4   force =     0.01305045    0.00387487    0.00357002
     atom  106 type  4   force =     0.00187094    0.00222489   -0.00021117
     atom  107 type  4   force =     0.00718841   -0.00233890    0.00138291
     atom  108 type  4   force =    -0.00207098    0.00686023    0.00084975
     atom  109 type  5   force =     0.00759065   -0.00074642    0.00437005
     atom  110 type  5   force =     0.00577955    0.00602916   -0.00177703
     atom  111 type  5   force =    -0.00995846   -0.00015870    0.00890674
     atom  112 type  5   force =    -0.00393220   -0.00336733   -0.00351531
     atom  113 type  5   force =     0.00276758   -0.00272103   -0.00337368
     atom  114 type  5   force =     0.00341828    0.00435538   -0.00029960
     atom  115 type  5   force =     0.00050344    0.00469016   -0.00059176
     atom  116 type  5   force =     0.00063798    0.00007412   -0.00253813
     atom  117 type  5   force =     0.00359114   -0.00153921   -0.00094694
     atom  118 type  5   force =     0.00668257   -0.00486922    0.00339338
     atom  119 type  5   force =    -0.00982639   -0.00070782    0.00771703
     atom  120 type  5   force =    -0.00382678   -0.00299402   -0.00454161
     atom  121 type  5   force =    -0.00606363   -0.00129554   -0.00132842
     atom  122 type  5   force =    -0.00332720    0.00132366   -0.00061960
     atom  123 type  5   force =     0.00063301    0.00487914   -0.00114484
     atom  124 type  5   force =     0.00039328    0.00033679   -0.00210156

     Total force =     0.964430     Total SCF correction =     0.001305

     number of scf cycles    =   4
     number of bfgs steps    =   2

     energy   old            =   -1801.3567572515 Ry
     energy   new            =   -1801.5910122005 Ry

     CASE: energy  _new < energy  _old

     new trust radius        =       0.3778699878 bohr
     new conv_thr            =       0.0000010000 Ry


ATOMIC_POSITIONS (crystal)
C             0.2945150794        0.9669621191        0.5307597740
C             0.0389810792        0.0314044045        0.0210003064
C             0.3941598034        0.0128713047        0.5478617984
C             0.1380436065        0.9850884738        0.0408772784
C             0.4524609474        0.9700585046        0.6503618046
C             0.2073293394        0.0373050839        0.1377103801
C             0.2012831385        0.5329826665        0.5324718256
C             0.4586315836        0.4715374935        0.0276679608
C             0.2459637519        0.6168334384        0.6086943444
C             0.4977693502        0.3879129280        0.1078904239
C             0.2494936988        0.8865093371        0.6073357741
C             0.0004076203        0.1141777045        0.1025059933
C             0.4082350608        0.8895163840        0.7273697713
C             0.1633212248        0.1254101754        0.2068447433
C             0.0813763966        0.6236922631        0.7043316844
C             0.3363893896        0.3742312235        0.2063182150
C             0.0393159624        0.5321598381        0.6415864836
C             0.2929358009        0.4649852411        0.1389810530
C             0.1055566048        0.4808190664        0.5487280521
C             0.3601054722        0.5184125236        0.0451070311
C             0.4332362329        0.1001606966        0.4664026565
C             0.1807524907        0.8981953132        0.9649883842
C             0.0675258685        0.3926858041        0.4705436934
C             0.3167474617        0.6056488018        0.9688189465
C             0.7945032751        0.9669374149        0.5307602807
C             0.5390054012        0.0313997410        0.0210284638
C             0.8941482350        0.0128554829        0.5478748990
C             0.6380127842        0.9851007383        0.0408816435
C             0.9524602139        0.9700610475        0.6503340309
C             0.7073250791        0.0372940402        0.1376872663
C             0.7087792544        0.5295143918        0.5261090744
C             0.9527958817        0.4684830465        0.0335879739
C             0.7449358458        0.6129293332        0.6064733482
C             0.9966105728        0.3859145479        0.1122782591
C             0.7494896709        0.8864846873        0.6073968202
C             0.5003825889        0.1141849097        0.1025005062
C             0.9081822208        0.8894537134        0.7273859679
C             0.6633130237        0.1253057493        0.2069476930
C             0.5905304103        0.6109555686        0.7284571563
C             0.8406358523        0.3917362880        0.2293121829
C             0.5498147252        0.5265094738        0.6499982466
C             0.7971886309        0.4747524751        0.1528646935
C             0.6098067987        0.4833299123        0.5476058046
C             0.8545509221        0.5167925189        0.0517646237
C             0.9333773938        0.1001088057        0.4665052448
C             0.6808887680        0.8982540483        0.9650862080
C             0.5678373492        0.3940115380        0.4700115873
C             0.8155407686        0.6048774014        0.9688528933
C             0.2267335128        0.0028502145        0.4280843026
C             0.1558626278        0.0254633798        0.3387306635
C             0.3042289664        0.9901962570        0.1736182872
C             0.3963617811        0.9578714804        0.2064273306
C             0.2682017176        0.4971359118        0.4344226604
C             0.3383911051        0.4756353829        0.3519929160
C             0.1975122616        0.5138596852        0.1760801567
C             0.1070709934        0.5476467155        0.2086153248
C             0.7267545183        0.0028467355        0.4281094372
C             0.6559137831        0.0255307043        0.3387251479
C             0.8042295426        0.9901883780        0.1736119176
C             0.8963441826        0.9578623848        0.2064272510
C             0.4500315437        0.4860938879        0.6790255531
C             0.3598766055        0.4517971926        0.7059327485
C             0.0175812963        0.5039253188        0.9344010722
C             0.0860814937        0.5266517269        0.8504174837
H             0.4865897376        0.0023415691        0.9434743679
H             0.0315773361        0.9987944290        0.6732106494
H             0.3227736228        0.6501798543        0.5927591437
H             0.0748360368        0.3524123465        0.0946149688
H             0.1698194050        0.8551524670        0.5884867753
H             0.4225264753        0.1473473502        0.0897835180
H             0.4532463047        0.8551835466        0.8087892402
H             0.2154626934        0.1564287334        0.3092585822
H             0.0358465390        0.6548755569        0.8030922163
H             0.2883378733        0.3454688212        0.3069226482
H             0.9865848527        0.0023457633        0.9434696321
H             0.5315705358        0.9987985332        0.6732070663
H             0.7584049740        0.5008594354        0.4494962961
H             0.5085171026        0.5006432006        0.9506889775
H             0.8223584453        0.6504374722        0.5929160709
H             0.5748703774        0.3535363540        0.0956237815
H             0.6698004696        0.8551090478        0.5884834664
H             0.9224801226        0.1473630450        0.0897866874
H             0.9532054856        0.8552586687        0.8087727543
H             0.7155081873        0.1565562500        0.3092400673
H             0.5435427103        0.6430272812        0.8070501378
H             0.7964806715        0.3576766666        0.3090264056
H             0.9652724224        0.4920530278        0.6709726888
H             0.7193443646        0.5052942420        0.1747468215
H             0.0930633342        0.0381851943        0.2761786280
H             0.4726125490        0.9281746772        0.2268289087
H             0.4011954492        0.4654826844        0.2874948247
H             0.0312198098        0.5783394449        0.2282152318
H             0.5930875920        0.0382003325        0.2761554725
H             0.9726263358        0.9282268926        0.2268290690
H             0.2815783813        0.4187279536        0.7252275330
H             0.1529440797        0.5403957096        0.7907889837
N             0.3084483787        0.8503752163        0.7059434667
N             0.0633065846        0.1600313477        0.2015314980
N             0.1829287393        0.6591349691        0.7024358072
N             0.4356911852        0.3423248726        0.2043007139
N             0.8082808606        0.8502417327        0.7059605627
N             0.5634269760        0.1597910260        0.2015195839
N             0.6869824024        0.6513867276        0.7062145148
N             0.9385321502        0.3497483117        0.2091061087
Ni            0.2491070157        0.7520619171        0.8371243843
Ni            0.5002732263        0.2483170883        0.3398872467
Ni            0.7480102594        0.7510429098        0.8366848685
Ni            0.9994680026        0.2490636253        0.3396930018
O             0.1240457617        0.3478736787        0.3836884315
O             0.3720271193        0.6512215305        0.8815434381
O             0.3760592119        0.1476362208        0.3783577325
O             0.1244666453        0.8524120612        0.8761590410
O             0.4730412125        0.3558646036        0.4825674185
O             0.2212139502        0.6418677717        0.9799475667
O             0.0289428170        0.1356215759        0.4811259174
O             0.2769830646        0.8628871633        0.9792034235
O             0.6233306219        0.3476455196        0.3829094779
O             0.8723805237        0.6504020220        0.8816094722
O             0.8761402597        0.1474961079        0.3782193374
O             0.6245459920        0.8525339533        0.8760584446
O             0.9722871609        0.3562629851        0.4830195746
O             0.7206497366        0.6414082704        0.9799836735
O             0.5289417117        0.1356517030        0.4810339539
O             0.7769595904        0.8629415186        0.9792772252



     Writing output data file ./QE_relaxation_results/pbesol_relax/NiPyC2_relax_sc211_meta_functionalized_C-C_pbesol_relax.save/
     NEW-OLD atomic charge density approx. for the potential

     Check: negative core charge=   -0.000145

     total cpu time spent up to now is     5954.8 secs

     Self-consistent Calculation

     iteration #  1     ecut=   100.00 Ry     beta= 0.70
     Davidson diagonalization with overlap
     c_bands:  1 eigenvalues not converged
     ethr =  1.00E-06,  avg # of iterations = 20.0

     total cpu time spent up to now is     6314.5 secs

     total energy              =   -1801.83417030 Ry
     Harris-Foulkes estimate   =   -1802.07676947 Ry
     estimated scf accuracy    <       0.79489666 Ry

     total magnetization       =     8.00 Bohr mag/cell
     absolute magnetization    =     8.19 Bohr mag/cell

     iteration #  2     ecut=   100.00 Ry     beta= 0.70
     Davidson diagonalization with overlap
     ethr =  1.71E-04,  avg # of iterations =  2.5

     total cpu time spent up to now is     6380.7 secs

     total energy              =   -1801.84211642 Ry
     Harris-Foulkes estimate   =   -1801.96355647 Ry
     estimated scf accuracy    <       0.59183026 Ry

     total magnetization       =     8.00 Bohr mag/cell
     absolute magnetization    =     8.19 Bohr mag/cell

     iteration #  3     ecut=   100.00 Ry     beta= 0.70
     Davidson diagonalization with overlap
     ethr =  1.28E-04,  avg # of iterations =  1.5

     total cpu time spent up to now is     6443.4 secs

     total energy              =   -1801.88323149 Ry
     Harris-Foulkes estimate   =   -1801.97731479 Ry
     estimated scf accuracy    <       0.80091451 Ry

     total magnetization       =     8.00 Bohr mag/cell
     absolute magnetization    =     8.18 Bohr mag/cell

     iteration #  4     ecut=   100.00 Ry     beta= 0.70
     Davidson diagonalization with overlap
     ethr =  1.28E-04,  avg # of iterations =  1.0

     total cpu time spent up to now is     6505.1 secs

     total energy              =   -1801.92764458 Ry
     Harris-Foulkes estimate   =   -1801.92992985 Ry
     estimated scf accuracy    <       0.00903022 Ry

     total magnetization       =     8.00 Bohr mag/cell
     absolute magnetization    =     8.18 Bohr mag/cell

     iteration #  5     ecut=   100.00 Ry     beta= 0.70
     Davidson diagonalization with overlap
     ethr =  1.95E-06,  avg # of iterations =  8.5

     total cpu time spent up to now is     6603.6 secs

     total energy              =   -1801.92810510 Ry
     Harris-Foulkes estimate   =   -1801.92939134 Ry
     estimated scf accuracy    <       0.01054442 Ry

     total magnetization       =     8.00 Bohr mag/cell
     absolute magnetization    =     8.18 Bohr mag/cell

     iteration #  6     ecut=   100.00 Ry     beta= 0.70
     Davidson diagonalization with overlap
     ethr =  1.95E-06,  avg # of iterations =  1.0

     total cpu time spent up to now is     6664.4 secs

     total energy              =   -1801.92864667 Ry
     Harris-Foulkes estimate   =   -1801.92926190 Ry
     estimated scf accuracy    <       0.00907873 Ry

     total magnetization       =     8.00 Bohr mag/cell
     absolute magnetization    =     8.18 Bohr mag/cell

     iteration #  7     ecut=   100.00 Ry     beta= 0.70
     Davidson diagonalization with overlap
     ethr =  1.95E-06,  avg # of iterations =  1.0

     total cpu time spent up to now is     6725.9 secs

     total energy              =   -1801.92887409 Ry
     Harris-Foulkes estimate   =   -1801.92890845 Ry
     estimated scf accuracy    <       0.00033516 Ry

     total magnetization       =     8.00 Bohr mag/cell
     absolute magnetization    =     8.18 Bohr mag/cell

     iteration #  8     ecut=   100.00 Ry     beta= 0.70
     Davidson diagonalization with overlap
     ethr =  7.22E-08,  avg # of iterations =  3.5

     total cpu time spent up to now is     6789.2 secs

     total energy              =   -1801.92887508 Ry
     Harris-Foulkes estimate   =   -1801.92888911 Ry
     estimated scf accuracy    <       0.00012425 Ry

     total magnetization       =     8.00 Bohr mag/cell
     absolute magnetization    =     8.18 Bohr mag/cell

     iteration #  9     ecut=   100.00 Ry     beta= 0.70
     Davidson diagonalization with overlap
     ethr =  2.68E-08,  avg # of iterations =  3.0

     total cpu time spent up to now is     6854.0 secs

     total energy              =   -1801.92886667 Ry
     Harris-Foulkes estimate   =   -1801.92888882 Ry
     estimated scf accuracy    <       0.00023009 Ry

     total magnetization       =     8.00 Bohr mag/cell
     absolute magnetization    =     8.18 Bohr mag/cell

     iteration # 10     ecut=   100.00 Ry     beta= 0.70
     Davidson diagonalization with overlap
