/apps/openmpi/3.1_intel-19/bin/mpiexec
/apps/qe/6.5/bin/pw.x
starting QE Sat Aug 1 12:09:50 PDT 2020

     Program PWSCF v.6.5 starts on  1Aug2020 at 12: 9:52 

     This program is part of the open-source Quantum ESPRESSO suite
     for quantum simulation of materials; please cite
         "P. Giannozzi et al., J. Phys.:Condens. Matter 21 395502 (2009);
         "P. Giannozzi et al., J. Phys.:Condens. Matter 29 465901 (2017);
          URL http://www.quantum-espresso.org", 
     in publications or presentations arising from this work. More details at
     http://www.quantum-espresso.org/quote

     Parallel version (MPI & OpenMP), running on      16 processor cores
     Number of MPI processes:                16
     Threads/MPI process:                     1

     MPI processes distributed on     1 nodes
     K-points division:     npool     =       2
     R & G space division:  proc/nbgrp/npool/nimage =       8
     Reading input from ./QE_input_scripts/pw.NiPyC2_relax_sc211_ortho_functionalized_C-N_pbesol_relax.in
Warning: card &CELL ignored
Warning: card    CELL_DYNAMICS = 'BFGS' ignored
Warning: card    CELL_DOFREE = 'XYZ' ignored
Warning: card / ignored

     Current dimensions of program PWSCF are:
     Max number of different atomic species (ntypx) = 10
     Max number of k-points (npk) =  40000
     Max angular momentum in pseudopotentials (lmaxx) =  3

     -------------------------------------------------
     Parameters for Dispersion (Grimme-D2) Correction:
     -------------------------------------------------
       atom      VdW radius       C_6     

        C          2.744         60.710
        H          1.892          4.857
        N          2.640         42.670
        Ni         2.952        374.666
        O          2.536         24.284

     gamma-point specific algorithms are used

     Subspace diagonalization in iterative solution of the eigenvalue problem:
     a serial algorithm will be used

 
     Parallelization info
     --------------------
     sticks:   dense  smooth     PW     G-vecs:    dense   smooth      PW
     Min        2228    2228    556               183376   183376   22914
     Max        2230    2230    558               183380   183380   22917
     Sum       17829   17829   4453              1467017  1467017  183325
 


     bravais-lattice index     =            0
     lattice parameter (alat)  =      23.6322  a.u.
     unit-cell volume          =   10858.6228 (a.u.)^3
     number of atoms/cell      =          116
     number of atomic types    =            5
     number of electrons       =       464.00 (up: 236.00, down: 228.00)
     number of Kohn-Sham states=          283
     kinetic-energy cutoff     =     100.0000  Ry
     charge density cutoff     =     400.0000  Ry
     convergence threshold     =      1.0E-06
     mixing beta               =       0.7000
     number of iterations used =            8  local-TF  mixing
     Exchange-correlation= PBESOL
                           (   1   4  10   8   0   0   0)
     nstep                     =          200


     celldm(1)=  23.632159  celldm(2)=   0.000000  celldm(3)=   0.000000
     celldm(4)=   0.000000  celldm(5)=   0.000000  celldm(6)=   0.000000

     crystal axes: (cart. coord. in units of alat)
               a(1) = (   1.000000   0.000000   0.000000 )  
               a(2) = (   0.000000   1.001423   0.000000 )  
               a(3) = (  -0.018199   0.000000   0.821574 )  

     reciprocal axes: (cart. coord. in units 2 pi/alat)
               b(1) = (  1.000000  0.000000  0.022152 )  
               b(2) = (  0.000000  0.998579  0.000000 )  
               b(3) = (  0.000000  0.000000  1.217175 )  


     PseudoPot. # 1 for C  read from file:
     ./pseudo/C.pbesol-nc.UPF
     MD5 check sum: ce26087537ded160c8d400e183a8bf42
     Pseudo is Norm-conserving, Zval =  4.0
     Generated using "atomic" code by A. Dal Corso v.6.5
     Using radial grid of 1073 points,  1 beta functions with: 
                l(1) =   1

     PseudoPot. # 2 for H  read from file:
     ./pseudo/H.pbesol-n-nc.UPF
     MD5 check sum: 7995ef24074557c85b430109caaacc09
     Pseudo is Norm-conserving, Zval =  1.0
     Generated using "atomic" code by A. Dal Corso v.6.5
     Using radial grid of  929 points,  0 beta functions with: 

     PseudoPot. # 3 for N  read from file:
     ./pseudo/N.pbesol-nc.UPF
     MD5 check sum: e18cc5e4b8a5600c1a19b30c2cab1ca0
     Pseudo is Norm-conserving, Zval =  5.0
     Generated using "atomic" code by A. Dal Corso v.6.5
     Using radial grid of 1085 points,  1 beta functions with: 
                l(1) =   1

     PseudoPot. # 4 for Ni read from file:
     ./pseudo/Ni.pbesol-n-nc.UPF
     MD5 check sum: 623411631e0c2eb7c0b2b9815547d2d9
     Pseudo is Norm-conserving + core correction, Zval = 10.0
     Generated using "atomic" code by A. Dal Corso v.6.5
     Using radial grid of 1195 points,  2 beta functions with: 
                l(1) =   1
                l(2) =   2

     PseudoPot. # 5 for O  read from file:
     ./pseudo/O.pbesol-nc.UPF
     MD5 check sum: 73d10e7e91dbfcbe8a7e362101007f84
     Pseudo is Norm-conserving, Zval =  6.0
     Generated using "atomic" code by A. Dal Corso v.6.5
     Using radial grid of 1095 points,  1 beta functions with: 
                l(1) =   1

     atomic species   valence    mass     pseudopotential
        C              4.00    12.01070     C ( 1.00)
        H              1.00     1.00794     H ( 1.00)
        N              5.00    14.00670     N ( 1.00)
        Ni            10.00    58.69340     Ni( 1.00)
        O              6.00    15.99940     O ( 1.00)

     Starting magnetic structure 
     atomic species   magnetization
        C            0.000
        H            0.000
        N            0.000
        Ni           0.250
        O            0.000

     No symmetry found



   Cartesian axes

     site n.     atom                  positions (alat units)
         1           C   tau(   1) = (   0.2787122   0.9714307   0.4288486  )
         2           C   tau(   2) = (   0.0379730   0.0311503   0.0183277  )
         3           C   tau(   3) = (   0.3806882   0.0117868   0.4489838  )
         4           C   tau(   4) = (   0.1394042   0.9891499   0.0379124  )
         5           C   tau(   5) = (   0.4400787   0.9715829   0.5343281  )
         6           C   tau(   6) = (   0.1997920   0.0283934   0.1231482  )
         7           C   tau(   7) = (   0.1986011   0.5304580   0.4324635  )
         8           C   tau(   8) = (   0.4580372   0.4720800   0.0229252  )
         9           C   tau(   9) = (   0.2341003   0.6142040   0.4982314  )
        10           C   tau(  10) = (   0.4948422   0.3892302   0.0892369  )
        11           C   tau(  11) = (   0.2384981   0.8904717   0.4955761  )
        12           C   tau(  12) = (  -0.0008282   0.1123917   0.0856467  )
        13           C   tau(  13) = (   0.3947360   0.8906489   0.5977380  )
        14           C   tau(  14) = (   0.1557890   0.1097029   0.1871645  )
        15           C   tau(  15) = (   0.0756247   0.6098498   0.5975737  )
        16           C   tau(  16) = (   0.3367152   0.3921904   0.1884642  )
        17           C   tau(  17) = (   0.0350715   0.5258264   0.5351012  )
        18           C   tau(  18) = (   0.2948780   0.4753867   0.1254988  )
        19           C   tau(  19) = (   0.0981522   0.4849593   0.4519611  )
        20           C   tau(  20) = (   0.3569104   0.5163900   0.0416029  )
        21           C   tau(  21) = (   0.4248178   0.0994604   0.3833638  )
        22           C   tau(  22) = (   0.1639424   0.9010006   0.7933713  )
        23           C   tau(  23) = (   0.0588120   0.3950355   0.3866953  )
        24           C   tau(  24) = (   0.2984059   0.6050320   0.7961934  )
        25           C   tau(  25) = (   0.7787122   0.9714307   0.4288486  )
        26           C   tau(  26) = (   0.5379730   0.0311503   0.0183277  )
        27           C   tau(  27) = (   0.8806882   0.0117868   0.4489838  )
        28           C   tau(  28) = (   0.6394042   0.9891499   0.0379124  )
        29           C   tau(  29) = (   0.9400787   0.9715829   0.5343281  )
        30           C   tau(  30) = (   0.6997920   0.0283934   0.1231482  )
        31           C   tau(  31) = (   0.6986021   0.5304580   0.4324635  )
        32           C   tau(  32) = (   0.9580382   0.4720800   0.0229252  )
        33           C   tau(  33) = (   0.7341003   0.6142040   0.4982314  )
        34           C   tau(  34) = (   0.9948422   0.3892302   0.0892369  )
        35           C   tau(  35) = (   0.7384981   0.8904717   0.4955761  )
        36           C   tau(  36) = (   0.4991718   0.1123917   0.0856467  )
        37           C   tau(  37) = (   0.8947360   0.8906489   0.5977380  )
        38           C   tau(  38) = (   0.6557880   0.1097029   0.1871645  )
        39           C   tau(  39) = (   0.5756247   0.6098498   0.5975737  )
        40           C   tau(  40) = (   0.8367152   0.3921904   0.1884642  )
        41           C   tau(  41) = (   0.5350715   0.5258264   0.5351012  )
        42           C   tau(  42) = (   0.7948780   0.4753867   0.1254988  )
        43           C   tau(  43) = (   0.5981522   0.4849593   0.4519611  )
        44           C   tau(  44) = (   0.8569104   0.5163900   0.0416029  )
        45           C   tau(  45) = (   0.9248178   0.0994604   0.3833638  )
        46           C   tau(  46) = (   0.6639424   0.9010006   0.7933713  )
        47           C   tau(  47) = (   0.5588110   0.3950355   0.3866953  )
        48           C   tau(  48) = (   0.7984059   0.6050320   0.7961934  )
        49           C   tau(  49) = (   0.4550491   0.8445013   0.6877505  )
        50           C   tau(  50) = (   0.8934892   0.1603719   0.0668942  )
        51           C   tau(  51) = (   0.0117431   0.6557200   0.6850409  )
        52           C   tau(  52) = (   0.6004498   0.3407093   0.0716495  )
        53           C   tau(  53) = (   0.6321279   0.8442620   0.4763980  )
        54           C   tau(  54) = (   0.3934892   0.1603719   0.0668942  )
        55           C   tau(  55) = (   0.5117431   0.6557210   0.6850401  )
        56           C   tau(  56) = (   0.7734884   0.3464965   0.2766618  )
        57           H   tau(  57) = (   0.2290596   1.0009978   0.3640502  )
        58           H   tau(  58) = (   0.4693669   0.0026958   0.7751545  )
        59           H   tau(  59) = (   0.0198054   1.0002267   0.5533467  )
        60           H   tau(  60) = (   0.2791988   1.0000865   0.1418054  )
        61           H   tau(  61) = (   0.2505234   0.5016080   0.3691185  )
        62           H   tau(  62) = (  -0.0086584   0.5011092   0.7809458  )
        63           H   tau(  63) = (   0.3118554   0.6514319   0.4868937  )
        64           H   tau(  64) = (   0.0732386   0.3533532   0.0780726  )
        65           H   tau(  65) = (   0.1594426   0.8563401   0.4835457  )
        66           H   tau(  66) = (   0.2006191   0.1433067   0.2536997  )
        67           H   tau(  67) = (   0.2907535   0.3580349   0.2539083  )
        68           H   tau(  68) = (   0.4564147   0.4939330   0.5533319  )
        69           H   tau(  69) = (   0.2157623   0.5059201   0.1439924  )
        70           H   tau(  70) = (   0.7290596   1.0009978   0.3640502  )
        71           H   tau(  71) = (   0.9693669   0.0026958   0.7751545  )
        72           H   tau(  72) = (   0.5198044   1.0002267   0.5533467  )
        73           H   tau(  73) = (   0.7791988   1.0000865   0.1418054  )
        74           H   tau(  74) = (   0.7505234   0.5016080   0.3691185  )
        75           H   tau(  75) = (   0.4913416   0.5011092   0.7809458  )
        76           H   tau(  76) = (   0.8118554   0.6514319   0.4868937  )
        77           H   tau(  77) = (   0.9386511   0.8563902   0.6644572  )
        78           H   tau(  78) = (   0.7006201   0.1433067   0.2536997  )
        79           H   tau(  79) = (   0.9564147   0.4939330   0.5533319  )
        80           H   tau(  80) = (   0.7157623   0.5059201   0.1439924  )
        81           N   tau(  81) = (   0.2956096   0.8524646   0.5790685  )
        82           N   tau(  82) = (   0.0569790   0.1490689   0.1692870  )
        83           N   tau(  83) = (   0.1736962   0.6512356   0.5798983  )
        84           N   tau(  84) = (   0.4350238   0.3514275   0.1709211  )
        85           N   tau(  85) = (   0.7956096   0.8524646   0.5790685  )
        86           N   tau(  86) = (   0.5569790   0.1490689   0.1692870  )
        87           N   tau(  87) = (   0.6736972   0.6512356   0.5798983  )
        88           N   tau(  88) = (   0.9350238   0.3514275   0.1709211  )
        89           N   tau(  89) = (   0.5013678   0.8073906   0.7587723  )
        90           N   tau(  90) = (   0.8104756   0.1989448   0.0531953  )
        91           N   tau(  91) = (   0.9624884   0.6926795   0.7541403  )
        92           N   tau(  92) = (   0.6833979   0.3016968   0.0588280  )
        93           N   tau(  93) = (   0.5485431   0.8070731   0.4623499  )
        94           N   tau(  94) = (   0.3104756   0.1989438   0.0531961  )
        95           N   tau(  95) = (   0.4624884   0.6926805   0.7541403  )
        96           N   tau(  96) = (   0.7248473   0.3096942   0.3462779  )
        97           Ni  tau(  97) = (   0.2317814   0.7525556   0.6871039  )
        98           Ni  tau(  98) = (   0.4937992   0.2483520   0.2786599  )
        99           Ni  tau(  99) = (   0.7317814   0.7525556   0.6871039  )
       100           Ni  tau( 100) = (   0.9937992   0.2483520   0.2786599  )
       101           O   tau( 101) = (   0.1158100   0.3481839   0.3145586  )
       102           O   tau( 102) = (   0.3551690   0.6519036   0.7240468  )
       103           O   tau( 103) = (   0.3707656   0.1477170   0.3098797  )
       104           O   tau( 104) = (   0.1091506   0.8535652   0.7199135  )
       105           O   tau( 105) = (   0.4642788   0.3566669   0.3968154  )
       106           O   tau( 106) = (   0.2033039   0.6423280   0.8050417  )
       107           O   tau( 107) = (   0.0200847   0.1353504   0.3952413  )
       108           O   tau( 108) = (   0.2588616   0.8639860   0.8046490  )
       109           O   tau( 109) = (   0.6158110   0.3481839   0.3145586  )
       110           O   tau( 110) = (   0.8551690   0.6519036   0.7240468  )
       111           O   tau( 111) = (   0.8707656   0.1477170   0.3098797  )
       112           O   tau( 112) = (   0.6091506   0.8535652   0.7199135  )
       113           O   tau( 113) = (   0.9642788   0.3566669   0.3968154  )
       114           O   tau( 114) = (   0.7033039   0.6423280   0.8050417  )
       115           O   tau( 115) = (   0.5200847   0.1353504   0.3952413  )
       116           O   tau( 116) = (   0.7588616   0.8639860   0.8046490  )

     number of k points=     1  Marzari-Vanderbilt smearing, width (Ry)=  0.2000
                       cart. coord. in units 2pi/alat
        k(    1) = (   0.0000000   0.0000000   0.0000000), wk =   1.0000000

     Dense  grid:   733509 G-vectors     FFT dimensions: ( 160, 160, 125)

     Estimated max dynamical RAM per process >     652.47 MB

     Estimated total dynamical RAM >      10.19 GB
     Generating pointlists ...
     new r_m :   0.0358 (alat units)  0.8461 (a.u.) for type    1
     new r_m :   0.0358 (alat units)  0.8461 (a.u.) for type    2
     new r_m :   0.0382 (alat units)  0.9023 (a.u.) for type    3
     new r_m :   0.0654 (alat units)  1.5454 (a.u.) for type    4
     new r_m :   0.0423 (alat units)  0.9991 (a.u.) for type    5

     Check: negative core charge=   -0.000145

     Initial potential from superposition of free atoms

     starting charge  463.99639, renormalised to  464.00000
     Starting wfcs are  412 randomized atomic wfcs

     total cpu time spent up to now is       93.8 secs

     Self-consistent Calculation

     iteration #  1     ecut=   100.00 Ry     beta= 0.70
     Davidson diagonalization with overlap
     ethr =  1.00E-02,  avg # of iterations =  3.0

     total cpu time spent up to now is      321.1 secs

     total energy              =   -1858.35000535 Ry
     Harris-Foulkes estimate   =   -1865.69165457 Ry
     estimated scf accuracy    <      19.49421349 Ry

     total magnetization       =     8.00 Bohr mag/cell
     absolute magnetization    =     8.45 Bohr mag/cell

     iteration #  2     ecut=   100.00 Ry     beta= 0.70
     Davidson diagonalization with overlap
     ethr =  4.20E-03,  avg # of iterations =  2.0

     total cpu time spent up to now is      465.0 secs

     total energy              =   -1860.14958401 Ry
     Harris-Foulkes estimate   =   -1863.63502538 Ry
     estimated scf accuracy    <      17.13189672 Ry

     total magnetization       =     8.00 Bohr mag/cell
     absolute magnetization    =     8.51 Bohr mag/cell

     iteration #  3     ecut=   100.00 Ry     beta= 0.70
     Davidson diagonalization with overlap
     ethr =  3.69E-03,  avg # of iterations =  1.5

     total cpu time spent up to now is      603.5 secs

     total energy              =   -1860.77410645 Ry
     Harris-Foulkes estimate   =   -1861.31859339 Ry
     estimated scf accuracy    <       1.46477258 Ry

     total magnetization       =     8.00 Bohr mag/cell
     absolute magnetization    =     8.16 Bohr mag/cell

     iteration #  4     ecut=   100.00 Ry     beta= 0.70
     Davidson diagonalization with overlap
     ethr =  3.16E-04,  avg # of iterations =  7.5

     total cpu time spent up to now is      783.7 secs

     total energy              =   -1860.79591448 Ry
     Harris-Foulkes estimate   =   -1860.91739853 Ry
     estimated scf accuracy    <       0.55497415 Ry

     total magnetization       =     8.00 Bohr mag/cell
     absolute magnetization    =     8.18 Bohr mag/cell

     iteration #  5     ecut=   100.00 Ry     beta= 0.70
     Davidson diagonalization with overlap
     ethr =  1.20E-04,  avg # of iterations =  2.0

     total cpu time spent up to now is      922.5 secs

     total energy              =   -1860.77003003 Ry
     Harris-Foulkes estimate   =   -1860.93050017 Ry
     estimated scf accuracy    <       2.12428814 Ry

     total magnetization       =     8.00 Bohr mag/cell
     absolute magnetization    =     8.19 Bohr mag/cell

     iteration #  6     ecut=   100.00 Ry     beta= 0.70
     Davidson diagonalization with overlap
     ethr =  1.20E-04,  avg # of iterations =  1.5

     total cpu time spent up to now is     1058.1 secs

     total energy              =   -1860.81095447 Ry
     Harris-Foulkes estimate   =   -1860.84315615 Ry
     estimated scf accuracy    <       0.22113447 Ry

     total magnetization       =     8.00 Bohr mag/cell
     absolute magnetization    =     8.18 Bohr mag/cell

     iteration #  7     ecut=   100.00 Ry     beta= 0.70
     Davidson diagonalization with overlap
     ethr =  4.77E-05,  avg # of iterations =  7.5

     total cpu time spent up to now is     1205.3 secs

     total energy              =   -1860.79593905 Ry
     Harris-Foulkes estimate   =   -1860.83491452 Ry
     estimated scf accuracy    <       0.37437751 Ry

     total magnetization       =     8.00 Bohr mag/cell
     absolute magnetization    =     8.19 Bohr mag/cell

     iteration #  8     ecut=   100.00 Ry     beta= 0.70
     Davidson diagonalization with overlap
     ethr =  4.77E-05,  avg # of iterations =  6.0

     total cpu time spent up to now is     1349.6 secs

     total energy              =   -1860.80182016 Ry
     Harris-Foulkes estimate   =   -1860.81226813 Ry
     estimated scf accuracy    <       0.08384393 Ry

     total magnetization       =     8.00 Bohr mag/cell
     absolute magnetization    =     8.19 Bohr mag/cell

     iteration #  9     ecut=   100.00 Ry     beta= 0.70
     Davidson diagonalization with overlap
     ethr =  1.81E-05,  avg # of iterations =  4.5

     total cpu time spent up to now is     1491.9 secs

     total energy              =   -1860.80672975 Ry
     Harris-Foulkes estimate   =   -1860.80829669 Ry
     estimated scf accuracy    <       0.04422780 Ry

     total magnetization       =     8.00 Bohr mag/cell
     absolute magnetization    =     8.19 Bohr mag/cell

     iteration # 10     ecut=   100.00 Ry     beta= 0.70
     Davidson diagonalization with overlap
     ethr =  9.53E-06,  avg # of iterations =  6.5

     total cpu time spent up to now is     1640.6 secs

     total energy              =   -1860.81003680 Ry
     Harris-Foulkes estimate   =   -1860.80845544 Ry
     estimated scf accuracy    <       0.01244362 Ry

     total magnetization       =     8.00 Bohr mag/cell
     absolute magnetization    =     8.19 Bohr mag/cell

     iteration # 11     ecut=   100.00 Ry     beta= 0.70
     Davidson diagonalization with overlap
     ethr =  2.68E-06,  avg # of iterations =  6.0

     total cpu time spent up to now is     1798.3 secs

     total energy              =   -1860.80983642 Ry
     Harris-Foulkes estimate   =   -1860.81202257 Ry
     estimated scf accuracy    <       0.04119658 Ry

     total magnetization       =     8.00 Bohr mag/cell
     absolute magnetization    =     8.19 Bohr mag/cell

     iteration # 12     ecut=   100.00 Ry     beta= 0.70
     Davidson diagonalization with overlap
     ethr =  2.68E-06,  avg # of iterations =  2.0

     total cpu time spent up to now is     1934.4 secs

     total energy              =   -1860.81236735 Ry
     Harris-Foulkes estimate   =   -1860.81162378 Ry
     estimated scf accuracy    <       0.00555990 Ry

     total magnetization       =     8.00 Bohr mag/cell
     absolute magnetization    =     8.19 Bohr mag/cell

     iteration # 13     ecut=   100.00 Ry     beta= 0.70
     Davidson diagonalization with overlap
     ethr =  1.20E-06,  avg # of iterations =  2.5

     total cpu time spent up to now is     2077.8 secs

     total energy              =   -1860.81313735 Ry
     Harris-Foulkes estimate   =   -1860.81266212 Ry
     estimated scf accuracy    <       0.00202709 Ry

     total magnetization       =     8.00 Bohr mag/cell
     absolute magnetization    =     8.19 Bohr mag/cell

     iteration # 14     ecut=   100.00 Ry     beta= 0.70
     Davidson diagonalization with overlap
     ethr =  4.37E-07,  avg # of iterations =  3.5

     total cpu time spent up to now is     2214.2 secs

     total energy              =   -1860.81349889 Ry
     Harris-Foulkes estimate   =   -1860.81326918 Ry
     estimated scf accuracy    <       0.00079058 Ry

     total magnetization       =     8.00 Bohr mag/cell
     absolute magnetization    =     8.19 Bohr mag/cell

     iteration # 15     ecut=   100.00 Ry     beta= 0.70
     Davidson diagonalization with overlap
     ethr =  1.70E-07,  avg # of iterations =  3.0

     total cpu time spent up to now is     2353.2 secs

     total energy              =   -1860.81361147 Ry
     Harris-Foulkes estimate   =   -1860.81355769 Ry
     estimated scf accuracy    <       0.00077705 Ry

     total magnetization       =     8.00 Bohr mag/cell
     absolute magnetization    =     8.19 Bohr mag/cell

     iteration # 16     ecut=   100.00 Ry     beta= 0.70
     Davidson diagonalization with overlap
     ethr =  1.67E-07,  avg # of iterations =  2.0

     total cpu time spent up to now is     2489.7 secs

     total energy              =   -1860.81366338 Ry
     Harris-Foulkes estimate   =   -1860.81365056 Ry
     estimated scf accuracy    <       0.00026300 Ry

     total magnetization       =     8.00 Bohr mag/cell
     absolute magnetization    =     8.19 Bohr mag/cell

     iteration # 17     ecut=   100.00 Ry     beta= 0.70
     Davidson diagonalization with overlap
     ethr =  5.67E-08,  avg # of iterations =  2.0

     total cpu time spent up to now is     2628.0 secs

     total energy              =   -1860.81366129 Ry
     Harris-Foulkes estimate   =   -1860.81370539 Ry
     estimated scf accuracy    <       0.00073026 Ry

     total magnetization       =     8.00 Bohr mag/cell
     absolute magnetization    =     8.19 Bohr mag/cell

     iteration # 18     ecut=   100.00 Ry     beta= 0.70
     Davidson diagonalization with overlap
     ethr =  5.67E-08,  avg # of iterations =  1.5

     total cpu time spent up to now is     2763.7 secs

     total energy              =   -1860.81368973 Ry
     Harris-Foulkes estimate   =   -1860.81369644 Ry
     estimated scf accuracy    <       0.00013976 Ry

     total magnetization       =     8.00 Bohr mag/cell
     absolute magnetization    =     8.19 Bohr mag/cell

     iteration # 19     ecut=   100.00 Ry     beta= 0.70
     Davidson diagonalization with overlap
     ethr =  3.01E-08,  avg # of iterations =  2.0

     total cpu time spent up to now is     2900.8 secs

     total energy              =   -1860.81369428 Ry
     Harris-Foulkes estimate   =   -1860.81369698 Ry
     estimated scf accuracy    <       0.00006056 Ry

     total magnetization       =     8.00 Bohr mag/cell
     absolute magnetization    =     8.19 Bohr mag/cell

     iteration # 20     ecut=   100.00 Ry     beta= 0.70
     Davidson diagonalization with overlap
     ethr =  1.31E-08,  avg # of iterations =  2.0

     total cpu time spent up to now is     3043.1 secs

     total energy              =   -1860.81369591 Ry
     Harris-Foulkes estimate   =   -1860.81369646 Ry
     estimated scf accuracy    <       0.00003006 Ry

     total magnetization       =     8.00 Bohr mag/cell
     absolute magnetization    =     8.19 Bohr mag/cell

     iteration # 21     ecut=   100.00 Ry     beta= 0.70
     Davidson diagonalization with overlap
     ethr =  6.48E-09,  avg # of iterations =  3.0

     total cpu time spent up to now is     3183.2 secs

     total energy              =   -1860.81369643 Ry
     Harris-Foulkes estimate   =   -1860.81369755 Ry
     estimated scf accuracy    <       0.00002552 Ry

     total magnetization       =     8.00 Bohr mag/cell
     absolute magnetization    =     8.19 Bohr mag/cell

     iteration # 22     ecut=   100.00 Ry     beta= 0.70
     Davidson diagonalization with overlap
     ethr =  5.50E-09,  avg # of iterations =  1.5

     total cpu time spent up to now is     3321.1 secs

     total energy              =   -1860.81369756 Ry
     Harris-Foulkes estimate   =   -1860.81369838 Ry
     estimated scf accuracy    <       0.00003006 Ry

     total magnetization       =     8.00 Bohr mag/cell
     absolute magnetization    =     8.19 Bohr mag/cell

     iteration # 23     ecut=   100.00 Ry     beta= 0.70
     Davidson diagonalization with overlap
     ethr =  5.50E-09,  avg # of iterations =  1.5

     total cpu time spent up to now is     3458.3 secs

     total energy              =   -1860.81369730 Ry
     Harris-Foulkes estimate   =   -1860.81369849 Ry
     estimated scf accuracy    <       0.00001254 Ry

     total magnetization       =     8.00 Bohr mag/cell
     absolute magnetization    =     8.19 Bohr mag/cell

     iteration # 24     ecut=   100.00 Ry     beta= 0.70
     Davidson diagonalization with overlap
     ethr =  2.70E-09,  avg # of iterations =  2.5

     total cpu time spent up to now is     3582.0 secs

     total energy              =   -1860.81369754 Ry
     Harris-Foulkes estimate   =   -1860.81369794 Ry
     estimated scf accuracy    <       0.00000602 Ry

     total magnetization       =     8.00 Bohr mag/cell
     absolute magnetization    =     8.19 Bohr mag/cell

     iteration # 25     ecut=   100.00 Ry     beta= 0.70
     Davidson diagonalization with overlap
     ethr =  1.30E-09,  avg # of iterations =  3.0

     total cpu time spent up to now is     3721.1 secs

     total energy              =   -1860.81369761 Ry
     Harris-Foulkes estimate   =   -1860.81369780 Ry
     estimated scf accuracy    <       0.00000382 Ry

     total magnetization       =     8.00 Bohr mag/cell
     absolute magnetization    =     8.19 Bohr mag/cell

     iteration # 26     ecut=   100.00 Ry     beta= 0.70
     Davidson diagonalization with overlap
     ethr =  8.23E-10,  avg # of iterations =  1.5

     total cpu time spent up to now is     3855.4 secs

     total energy              =   -1860.81369772 Ry
     Harris-Foulkes estimate   =   -1860.81369783 Ry
     estimated scf accuracy    <       0.00000242 Ry

     total magnetization       =     8.00 Bohr mag/cell
     absolute magnetization    =     8.19 Bohr mag/cell

     iteration # 27     ecut=   100.00 Ry     beta= 0.70
     Davidson diagonalization with overlap
     ethr =  5.22E-10,  avg # of iterations =  3.0

     total cpu time spent up to now is     3999.4 secs

     total energy              =   -1860.81369769 Ry
     Harris-Foulkes estimate   =   -1860.81369792 Ry
     estimated scf accuracy    <       0.00000290 Ry

     total magnetization       =     8.00 Bohr mag/cell
     absolute magnetization    =     8.19 Bohr mag/cell

     iteration # 28     ecut=   100.00 Ry     beta= 0.70
     Davidson diagonalization with overlap
     ethr =  5.22E-10,  avg # of iterations =  1.0

     total cpu time spent up to now is     4116.9 secs

     total energy              =   -1860.81369795 Ry
     Harris-Foulkes estimate   =   -1860.81369785 Ry
     estimated scf accuracy    <       0.00000114 Ry

     total magnetization       =     8.00 Bohr mag/cell
     absolute magnetization    =     8.19 Bohr mag/cell

     iteration # 29     ecut=   100.00 Ry     beta= 0.70
     Davidson diagonalization with overlap
     ethr =  2.46E-10,  avg # of iterations =  2.0
 
     Magnetic moment per site:
     atom:    1    charge:    0.8450    magn:    0.0056    constr:    0.0000
     atom:    2    charge:    0.8454    magn:    0.0056    constr:    0.0000
     atom:    3    charge:    0.8468    magn:    0.0042    constr:    0.0000
     atom:    4    charge:    0.8465    magn:    0.0042    constr:    0.0000
     atom:    5    charge:    0.8435    magn:    0.0070    constr:    0.0000
     atom:    6    charge:    0.8450    magn:    0.0065    constr:    0.0000
     atom:    7    charge:    0.8469    magn:    0.0053    constr:    0.0000
     atom:    8    charge:    0.8468    magn:    0.0060    constr:    0.0000
     atom:    9    charge:    0.8377    magn:    0.0040    constr:    0.0000
     atom:   10    charge:    0.8296    magn:    0.0051    constr:    0.0000
     atom:   11    charge:    0.8366    magn:    0.0041    constr:    0.0000
     atom:   12    charge:    0.8296    magn:    0.0053    constr:    0.0000
     atom:   13    charge:    0.8273    magn:    0.0025    constr:    0.0000
     atom:   14    charge:    0.8369    magn:    0.0052    constr:    0.0000
     atom:   15    charge:    0.8303    magn:    0.0029    constr:    0.0000
     atom:   16    charge:    0.8376    magn:    0.0045    constr:    0.0000
     atom:   17    charge:    0.8461    magn:    0.0057    constr:    0.0000
     atom:   18    charge:    0.8454    magn:    0.0064    constr:    0.0000
     atom:   19    charge:    0.8485    magn:    0.0037    constr:    0.0000
     atom:   20    charge:    0.8454    magn:    0.0018    constr:    0.0000
     atom:   21    charge:    0.8220    magn:   -0.0018    constr:    0.0000
     atom:   22    charge:    0.8223    magn:   -0.0014    constr:    0.0000
     atom:   23    charge:    0.8228    magn:   -0.0014    constr:    0.0000
     atom:   24    charge:    0.8301    magn:    0.0032    constr:    0.0000
     atom:   25    charge:    0.8454    magn:    0.0057    constr:    0.0000
     atom:   26    charge:    0.8465    magn:    0.0063    constr:    0.0000
     atom:   27    charge:    0.8468    magn:    0.0038    constr:    0.0000
     atom:   28    charge:    0.8460    magn:    0.0023    constr:    0.0000
     atom:   29    charge:    0.8457    magn:    0.0058    constr:    0.0000
     atom:   30    charge:    0.8453    magn:    0.0065    constr:    0.0000
     atom:   31    charge:    0.8476    magn:    0.0057    constr:    0.0000
     atom:   32    charge:    0.8465    magn:    0.0058    constr:    0.0000
     atom:   33    charge:    0.8373    magn:    0.0038    constr:    0.0000
     atom:   34    charge:    0.8365    magn:    0.0043    constr:    0.0000
     atom:   35    charge:    0.8303    magn:    0.0045    constr:    0.0000
     atom:   36    charge:    0.8294    magn:    0.0046    constr:    0.0000
     atom:   37    charge:    0.8405    magn:    0.0044    constr:    0.0000
     atom:   38    charge:    0.8386    magn:    0.0051    constr:    0.0000
     atom:   39    charge:    0.8272    magn:    0.0013    constr:    0.0000
     atom:   40    charge:    0.8293    magn:    0.0036    constr:    0.0000
     atom:   41    charge:    0.8456    magn:    0.0070    constr:    0.0000
     atom:   42    charge:    0.8443    magn:    0.0067    constr:    0.0000
     atom:   43    charge:    0.8477    magn:    0.0020    constr:    0.0000
     atom:   44    charge:    0.8456    magn:    0.0022    constr:    0.0000
     atom:   45    charge:    0.8224    magn:   -0.0017    constr:    0.0000
     atom:   46    charge:    0.8294    magn:    0.0025    constr:    0.0000
     atom:   47    charge:    0.8273    magn:    0.0026    constr:    0.0000
     atom:   48    charge:    0.8276    magn:    0.0029    constr:    0.0000
     atom:   49    charge:    0.8894    magn:    0.0300    constr:    0.0000
     atom:   50    charge:    0.8735    magn:    0.0032    constr:    0.0000
     atom:   51    charge:    0.8820    magn:    0.0199    constr:    0.0000
     atom:   52    charge:    0.8757    magn:    0.0028    constr:    0.0000
     atom:   53    charge:    0.8818    magn:    0.0040    constr:    0.0000
     atom:   54    charge:    0.8813    magn:    0.0047    constr:    0.0000
     atom:   55    charge:    0.8909    magn:    0.0323    constr:    0.0000
     atom:   56    charge:    0.8815    magn:    0.0192    constr:    0.0000
     atom:   57    charge:    0.4892    magn:   -0.0013    constr:    0.0000
     atom:   58    charge:    0.4883    magn:   -0.0009    constr:    0.0000
     atom:   59    charge:    0.4880    magn:   -0.0012    constr:    0.0000
     atom:   60    charge:    0.4892    magn:   -0.0010    constr:    0.0000
     atom:   61    charge:    0.4883    magn:   -0.0013    constr:    0.0000
     atom:   62    charge:    0.4919    magn:   -0.0011    constr:    0.0000
     atom:   63    charge:    0.4885    magn:   -0.0008    constr:    0.0000
     atom:   64    charge:    0.4876    magn:   -0.0009    constr:    0.0000
     atom:   65    charge:    0.4892    magn:   -0.0008    constr:    0.0000
     atom:   66    charge:    0.4856    magn:   -0.0005    constr:    0.0000
     atom:   67    charge:    0.4859    magn:   -0.0007    constr:    0.0000
     atom:   68    charge:    0.4851    magn:   -0.0013    constr:    0.0000
     atom:   69    charge:    0.4885    magn:   -0.0014    constr:    0.0000
     atom:   70    charge:    0.4865    magn:   -0.0011    constr:    0.0000
     atom:   71    charge:    0.4860    magn:   -0.0011    constr:    0.0000
     atom:   72    charge:    0.4862    magn:   -0.0009    constr:    0.0000
     atom:   73    charge:    0.4891    magn:   -0.0012    constr:    0.0000
     atom:   74    charge:    0.4910    magn:   -0.0011    constr:    0.0000
     atom:   75    charge:    0.4890    magn:   -0.0009    constr:    0.0000
     atom:   76    charge:    0.4897    magn:   -0.0008    constr:    0.0000
     atom:   77    charge:    0.4872    magn:   -0.0004    constr:    0.0000
     atom:   78    charge:    0.4867    magn:   -0.0006    constr:    0.0000
     atom:   79    charge:    0.4852    magn:   -0.0011    constr:    0.0000
     atom:   80    charge:    0.4865    magn:   -0.0011    constr:    0.0000
     atom:   81    charge:    1.7838    magn:    0.0147    constr:    0.0000
     atom:   82    charge:    1.7824    magn:    0.0122    constr:    0.0000
     atom:   83    charge:    1.7843    magn:    0.0137    constr:    0.0000
     atom:   84    charge:    1.7824    magn:    0.0139    constr:    0.0000
     atom:   85    charge:    1.7843    magn:    0.0123    constr:    0.0000
     atom:   86    charge:    1.7830    magn:    0.0134    constr:    0.0000
     atom:   87    charge:    1.7841    magn:    0.0165    constr:    0.0000
     atom:   88    charge:    1.7823    magn:    0.0144    constr:    0.0000
     atom:   89    charge:    1.8168    magn:    0.0182    constr:    0.0000
     atom:   90    charge:    1.7737    magn:    0.0443    constr:    0.0000
     atom:   91    charge:    1.7946    magn:    0.0094    constr:    0.0000
     atom:   92    charge:    1.7752    magn:    0.0423    constr:    0.0000
     atom:   93    charge:    1.7739    magn:    0.0245    constr:    0.0000
     atom:   94    charge:    1.7693    magn:    0.0282    constr:    0.0000
     atom:   95    charge:    1.8199    magn:    0.0178    constr:    0.0000
     atom:   96    charge:    1.7923    magn:    0.0096    constr:    0.0000
     atom:   97    charge:    7.4627    magn:    1.0800    constr:    0.0000
     atom:   98    charge:    7.4533    magn:    1.1055    constr:    0.0000
     atom:   99    charge:    7.4798    magn:    1.1177    constr:    0.0000
     atom:  100    charge:    7.4339    magn:    1.0699    constr:    0.0000
     atom:  101    charge:    3.2579    magn:    0.0550    constr:    0.0000
     atom:  102    charge:    3.3074    magn:    0.0391    constr:    0.0000
     atom:  103    charge:    3.2581    magn:    0.0563    constr:    0.0000
     atom:  104    charge:    3.2578    magn:    0.0557    constr:    0.0000
     atom:  105    charge:    3.2527    magn:    0.0331    constr:    0.0000
     atom:  106    charge:    3.2550    magn:    0.0332    constr:    0.0000
     atom:  107    charge:    3.2572    magn:    0.0579    constr:    0.0000
     atom:  108    charge:    3.2589    magn:    0.0538    constr:    0.0000
     atom:  109    charge:    3.2961    magn:    0.0405    constr:    0.0000
     atom:  110    charge:    3.2985    magn:    0.0403    constr:    0.0000
     atom:  111    charge:    3.2605    magn:    0.0563    constr:    0.0000
     atom:  112    charge:    3.2987    magn:    0.0453    constr:    0.0000
     atom:  113    charge:    3.2574    magn:    0.0549    constr:    0.0000
     atom:  114    charge:    3.2578    magn:    0.0312    constr:    0.0000
     atom:  115    charge:    3.2586    magn:    0.0571    constr:    0.0000
     atom:  116    charge:    3.2534    magn:    0.0347    constr:    0.0000

     total cpu time spent up to now is     4252.7 secs

     End of self-consistent calculation

 ------ SPIN UP ------------


          k = 0.0000 0.0000 0.0000 ( 91663 PWs)   bands (ev):

   -24.4348 -23.7872 -23.6966 -23.6573 -21.7140 -21.5744 -21.5369 -21.4899
   -21.4431 -20.4126 -20.2888 -20.2818 -19.4029 -18.7204 -18.7170 -18.6877
   -18.6334 -18.6223 -18.5556 -18.5456 -18.5291 -18.5152 -18.5113 -18.4607
   -18.4463 -17.8913 -17.8512 -17.8107 -16.9493 -16.6541 -16.3157 -16.2222
   -14.8475 -14.8046 -14.7737 -14.7236 -14.6847 -14.6269 -14.5816 -14.5380
   -14.0984 -14.0222 -13.9831 -13.9455 -13.7788 -13.6985 -13.6609 -13.6394
   -11.8297 -11.6150 -11.3923 -11.3455 -11.2108 -11.1397 -11.0752 -10.9551
   -10.9507 -10.9099 -10.8801 -10.8271 -10.7726 -10.6475 -10.5275 -10.5178
   -10.4823 -10.4608 -10.1098 -10.0091  -9.7676  -9.4806  -9.3094  -9.2499
    -9.1937  -9.0952  -9.0490  -8.9702  -8.7789  -8.1859  -7.8217  -7.6585
    -7.5506  -7.4272  -7.2742  -7.2338  -7.1460  -7.1317  -7.0714  -7.0211
    -6.9972  -6.9456  -6.9025  -6.8667  -6.8141  -6.8071  -6.7436  -6.6923
    -6.6395  -6.5149  -6.4890  -6.4102  -6.3740  -6.3451  -6.3345  -6.3157
    -6.2443  -6.1747  -6.1342  -6.0497  -6.0301  -5.9224  -5.8802  -5.8044
    -5.7955  -5.7546  -5.7216  -5.6998  -5.6063  -5.5731  -5.5493  -5.5043
    -5.4364  -5.4157  -5.3700  -5.3230  -5.2477  -5.2354  -5.1503  -5.1354
    -5.1079  -5.0801  -5.0431  -4.9838  -4.9408  -4.9207  -4.8153  -4.7835
    -4.7376  -4.6936  -4.6345  -4.5906  -4.5217  -4.3887  -4.3166  -4.1428
    -4.0640  -3.9552  -3.9063  -3.7876  -3.7616  -3.6956  -3.6514  -3.5907
    -3.5205  -3.4791  -3.4490  -3.4203  -3.3984  -3.3749  -3.3132  -3.2779
    -3.2058  -3.1690  -3.1300  -3.1222  -3.0736  -3.0590  -2.9673  -2.9008
    -2.8748  -2.8336  -2.8126  -2.7387  -2.6252  -2.5888  -2.5795  -2.5188
    -2.4875  -2.4141  -2.4056  -2.3570  -2.3399  -2.2975  -2.2626  -2.2403
    -2.1888  -2.1704  -2.1568  -2.1013  -2.0911  -2.0663  -1.9493  -1.9140
    -1.8665  -1.7759  -1.7384  -1.7204  -1.6919  -1.6600  -1.6469  -1.5915
    -1.5457  -1.5105  -1.4812  -1.4743  -1.4333  -1.4023  -1.3686  -1.3396
    -1.3185  -1.2937  -1.2608  -1.2081  -1.2057  -1.1925  -1.1566  -1.1208
    -1.0894  -1.0859  -0.9856  -0.8410  -0.7273  -0.5044  -0.3872  -0.2711
    -0.0809   0.2451   0.2803   0.5530   0.7093   0.8305   0.8998   0.9385
     0.9734   1.0278   1.1133   1.1295   2.0267   2.1898   2.2275   2.3018
     2.4398   2.6413   2.7130   2.7733   2.9262   3.1418   3.2828   3.3256
     3.4433   3.5725   3.6079   3.7092   4.1559   4.3565   4.4486   4.5629
     4.6549   4.8253   4.8739   5.0188   5.1638   5.2167   5.3117   5.4240
     5.5518   5.5842   5.6674   5.7567   5.7920   5.8403   5.8737   6.0432
     6.1045   6.2821   6.2998   6.3577   6.4151   6.4425   6.5796   6.6634
     6.7695   6.8271   6.8536

 ------ SPIN DOWN ----------


          k = 0.0000 0.0000 0.0000 ( 91663 PWs)   bands (ev):

   -24.3453 -23.7079 -23.6071 -23.5780 -21.6358 -21.4701 -21.4354 -21.3848
   -21.3390 -20.3428 -20.2170 -20.2037 -19.3177 -18.6763 -18.6753 -18.6435
   -18.5930 -18.5747 -18.4826 -18.4323 -18.4279 -18.4230 -18.4048 -18.3836
   -18.3721 -17.8199 -17.7719 -17.7461 -16.8619 -16.5708 -16.2450 -16.1407
   -14.8140 -14.7713 -14.7412 -14.6900 -14.6492 -14.5880 -14.5455 -14.5001
   -14.0495 -13.9801 -13.9391 -13.9036 -13.7407 -13.6603 -13.6242 -13.5990
   -11.7400 -11.5225 -11.3430 -11.2908 -11.1582 -11.0942 -11.0250 -10.9095
   -10.9016 -10.8671 -10.8269 -10.7755 -10.7277 -10.6159 -10.4933 -10.4794
   -10.4497 -10.4212 -10.0429  -9.9437  -9.6882  -9.4365  -9.2636  -9.2064
    -9.1520  -9.0501  -9.0186  -8.9377  -8.7116  -8.1106  -7.7485  -7.5842
    -7.4799  -7.3599  -7.2024  -7.1739  -7.0898  -7.0773  -7.0070  -6.9643
    -6.9461  -6.8969  -6.8454  -6.8222  -6.7693  -6.7518  -6.6878  -6.6346
    -6.5858  -6.4605  -6.4308  -6.3537  -6.3120  -6.2978  -6.2745  -6.2629
    -6.1853  -6.1048  -6.0656  -5.9834  -5.9656  -5.8193  -5.7747  -5.7172
    -5.7115  -5.6573  -5.6034  -5.5958  -5.5116  -5.4900  -5.4564  -5.4138
    -5.3607  -5.3436  -5.2939  -5.2729  -5.1791  -5.1691  -5.0836  -5.0686
    -5.0341  -5.0022  -4.9848  -4.9224  -4.8636  -4.8493  -4.7472  -4.7097
    -4.6710  -4.6081  -4.5461  -4.4932  -4.4239  -4.2738  -4.2222  -4.0461
    -3.9402  -3.8636  -3.7932  -3.6155  -3.5752  -3.5299  -3.4844  -3.4330
    -3.3954  -3.3638  -3.3540  -3.3013  -3.2409  -3.2299  -3.2002  -3.1305
    -3.0929  -3.0590  -3.0088  -2.9944  -2.8816  -2.8650  -2.7706  -2.7488
    -2.7009  -2.6502  -2.6058  -2.5438  -2.4223  -2.3953  -2.3405  -2.3113
    -2.2850  -2.2532  -2.2289  -2.1494  -2.1340  -2.0878  -2.0352  -1.9740
    -1.9472  -1.9237  -1.8891  -1.8670  -1.7486  -1.7151  -1.6700  -1.6423
    -1.5893  -1.5549  -1.4929  -1.4800  -1.4162  -1.3658  -1.3568  -1.3255
    -1.2878  -1.2379  -1.2066  -1.1549  -1.1111  -1.0273  -1.0217  -0.7734
    -0.7622  -0.6989  -0.6071  -0.5541  -0.5215  -0.5028  -0.4582  -0.4436
    -0.3936  -0.3816  -0.3546  -0.3205  -0.2616  -0.1909  -0.0883  -0.0475
     0.5612   0.6353   0.8408   1.0547   1.3187   1.4521   1.4982   1.5262
     1.6133   1.6239   1.6718   1.6888   2.1807   2.3018   2.3494   2.4239
     2.5464   2.7453   2.8191   2.8818   3.0414   3.2320   3.3746   3.4173
     3.5491   3.6645   3.6946   3.7997   4.2523   4.4383   4.5223   4.6389
     4.7173   4.9053   4.9496   5.0966   5.2383   5.2917   5.3846   5.4701
     5.6143   5.6360   5.7123   5.8250   5.8443   5.9106   5.9191   6.0945
     6.1799   6.3219   6.3575   6.4408   6.4706   6.4947   6.6150   6.7021
     6.8339   6.8699   6.9200

     the spin up/dw Fermi energies are     1.1948    0.8689 ev

!    total energy              =   -1860.81369795 Ry
     Harris-Foulkes estimate   =   -1860.81369801 Ry
     estimated scf accuracy    <       0.00000040 Ry

     The total energy is the sum of the following terms:

     one-electron contribution =   -2788.88142002 Ry
     hartree contribution      =    1566.06852038 Ry
     xc contribution           =    -554.87134399 Ry
     ewald contribution        =     -85.36197991 Ry
     Dispersion Correction     =      -0.58600881 Ry
     smearing contrib. (-TS)   =       2.81853440 Ry

     total magnetization       =     8.00 Bohr mag/cell
     absolute magnetization    =     8.19 Bohr mag/cell

     convergence has been achieved in  29 iterations

     Forces acting on atoms (cartesian axes, Ry/au):

     atom    1 type  1   force =    -0.00174067   -0.00044193    0.00006509
     atom    2 type  1   force =     0.00027615   -0.00983801   -0.00907632
     atom    3 type  1   force =    -0.00407154   -0.00044808    0.00251938
     atom    4 type  1   force =    -0.00398375   -0.00069737    0.00097600
     atom    5 type  1   force =     0.01553275    0.01381285   -0.00745185
     atom    6 type  1   force =     0.00103529   -0.00462813   -0.00518080
     atom    7 type  1   force =     0.00410819    0.00189056    0.00183867
     atom    8 type  1   force =     0.00257114    0.00051120   -0.00303255
     atom    9 type  1   force =    -0.01799226   -0.01198975    0.00131932
     atom   10 type  1   force =     0.04918828   -0.01315274   -0.01934926
     atom   11 type  1   force =     0.01971278    0.00895453    0.00399115
     atom   12 type  1   force =    -0.04860150    0.01555060   -0.01993128
     atom   13 type  1   force =     0.05301101   -0.02666973    0.06720110
     atom   14 type  1   force =    -0.01439190    0.00440367   -0.00287546
     atom   15 type  1   force =    -0.05282846    0.01309576    0.04401633
     atom   16 type  1   force =     0.00287241    0.00717373   -0.01075963
     atom   17 type  1   force =    -0.00843000   -0.00538403   -0.00006448
     atom   18 type  1   force =    -0.00064992   -0.00535122    0.00360177
     atom   19 type  1   force =     0.00026161    0.00198943    0.00242060
     atom   20 type  1   force =     0.00385087    0.01858565   -0.01760729
     atom   21 type  1   force =    -0.00031930    0.00127206    0.00098807
     atom   22 type  1   force =    -0.00563355    0.00074123   -0.00138827
     atom   23 type  1   force =     0.00344559   -0.00179477   -0.00285092
     atom   24 type  1   force =    -0.13664556   -0.08145020    0.15440514
     atom   25 type  1   force =     0.00001530    0.01044998   -0.00899273
     atom   26 type  1   force =     0.00346751   -0.00184289   -0.00230463
     atom   27 type  1   force =    -0.00350236   -0.00177689    0.00204104
     atom   28 type  1   force =    -0.00463076   -0.01950593   -0.01707873
     atom   29 type  1   force =     0.00068346   -0.00434679   -0.00012342
     atom   30 type  1   force =    -0.00019109   -0.00038344    0.00265479
     atom   31 type  1   force =     0.00585965    0.01197011    0.00530444
     atom   32 type  1   force =     0.00305026   -0.00909755    0.00411239
     atom   33 type  1   force =    -0.02118310   -0.01443411    0.00349123
     atom   34 type  1   force =    -0.01354203    0.00974002    0.00293250
     atom   35 type  1   force =    -0.05890822   -0.01523280   -0.02527600
     atom   36 type  1   force =    -0.06145356    0.01756566   -0.02151400
     atom   37 type  1   force =    -0.00546015    0.00828390   -0.01239806
     atom   38 type  1   force =    -0.01454623   -0.00883515   -0.00405606
     atom   39 type  1   force =    -0.06655151    0.01918535    0.05581728
     atom   40 type  1   force =    -0.03847377   -0.01113325    0.05145130
     atom   41 type  1   force =    -0.01236382   -0.00466648   -0.00051846
     atom   42 type  1   force =    -0.00920144    0.00980837    0.00373418
     atom   43 type  1   force =     0.00260109   -0.01780288   -0.01342474
     atom   44 type  1   force =     0.00411543    0.02100099   -0.01590373
     atom   45 type  1   force =     0.00088827    0.00297081    0.00115473
     atom   46 type  1   force =     0.12824877    0.08134724    0.13602651
     atom   47 type  1   force =    -0.12404647    0.06983044    0.14540835
     atom   48 type  1   force =    -0.12071089   -0.07426702    0.14890904
     atom   49 type  1   force =    -0.31638370    0.24983578   -0.33280435
     atom   50 type  1   force =     0.08807196   -0.03098818    0.01464333
     atom   51 type  1   force =     0.25014013   -0.09073174   -0.22209223
     atom   52 type  1   force =    -0.08969770    0.03241489    0.00842399
     atom   53 type  1   force =     0.10783770    0.04714179    0.01273829
     atom   54 type  1   force =     0.10803011   -0.05316999    0.01409054
     atom   55 type  1   force =     0.32478879   -0.24079885   -0.32893525
     atom   56 type  1   force =     0.24041055    0.08813049   -0.21757617
     atom   57 type  2   force =     0.00095952    0.00038548    0.00028903
     atom   58 type  2   force =    -0.00281531    0.00778729   -0.00026029
     atom   59 type  2   force =    -0.00075271    0.00091986   -0.00101395
     atom   60 type  2   force =    -0.00473719   -0.00177828    0.00010526
     atom   61 type  2   force =    -0.00133513   -0.00045012   -0.00020028
     atom   62 type  2   force =    -0.00000361   -0.01041609    0.00455792
     atom   63 type  2   force =     0.00073235    0.00320689    0.00197381
     atom   64 type  2   force =    -0.00009803   -0.00298252    0.00272357
     atom   65 type  2   force =     0.00009842   -0.00170464    0.00304513
     atom   66 type  2   force =    -0.00313002    0.00041052   -0.00159989
     atom   67 type  2   force =     0.00281097   -0.00124596   -0.00159384
     atom   68 type  2   force =    -0.00204200   -0.00343921   -0.00299378
     atom   69 type  2   force =     0.00070733    0.00145820   -0.00261456
     atom   70 type  2   force =    -0.00115151    0.00020416   -0.00107687
     atom   71 type  2   force =    -0.00061079   -0.00033072   -0.00144720
     atom   72 type  2   force =    -0.00325144    0.00517128   -0.00022287
     atom   73 type  2   force =    -0.00483004   -0.00219261   -0.00043304
     atom   74 type  2   force =    -0.00103519    0.01033010    0.00463532
     atom   75 type  2   force =     0.00355636   -0.00804681   -0.00095970
     atom   76 type  2   force =    -0.00002903    0.00297498    0.00225286
     atom   77 type  2   force =    -0.00264617    0.00324556    0.00087354
     atom   78 type  2   force =    -0.00285918   -0.00274563   -0.00256974
     atom   79 type  2   force =    -0.00337977   -0.00382440   -0.00281637
     atom   80 type  2   force =     0.00025968    0.00466371   -0.00258064
     atom   81 type  3   force =    -0.03372571   -0.02673920    0.00989332
     atom   82 type  3   force =     0.00942099    0.01765896    0.02774234
     atom   83 type  3   force =     0.03414301    0.02900555    0.00474715
     atom   84 type  3   force =     0.00273761   -0.00782553    0.03105266
     atom   85 type  3   force =     0.00678800   -0.02283629    0.03048783
     atom   86 type  3   force =     0.00599737    0.00624770    0.03312588
     atom   87 type  3   force =     0.04613551    0.01787531    0.01036031
     atom   88 type  3   force =     0.02948360   -0.01378876    0.01108541
     atom   89 type  3   force =    -0.01180488   -0.03557895    0.27756205
     atom   90 type  3   force =     0.01799803   -0.05787217   -0.02274144
     atom   91 type  3   force =    -0.00477270    0.08595090    0.15800202
     atom   92 type  3   force =    -0.01907510    0.05733518   -0.01279540
     atom   93 type  3   force =    -0.04301521   -0.01754744   -0.01305441
     atom   94 type  3   force =    -0.04622110    0.01561269   -0.01461657
     atom   95 type  3   force =    -0.00873500    0.00177473    0.25222256
     atom   96 type  3   force =    -0.00289334   -0.08192538    0.14981294
     atom   97 type  4   force =    -0.03327748    0.03589161   -0.01027631
     atom   98 type  4   force =    -0.03525620   -0.03752254   -0.00700622
     atom   99 type  4   force =     0.01036184    0.00123012   -0.01758498
     atom  100 type  4   force =     0.00378726   -0.00209526    0.00498371
     atom  101 type  5   force =    -0.00046432    0.00278098    0.00312581
     atom  102 type  5   force =    -0.15027564   -0.00961801   -0.10474316
     atom  103 type  5   force =     0.00063494   -0.00158366    0.00457099
     atom  104 type  5   force =     0.00313077    0.01063163   -0.00153741
     atom  105 type  5   force =     0.05678377    0.01794965   -0.02665037
     atom  106 type  5   force =     0.05892258   -0.01607649   -0.02039238
     atom  107 type  5   force =    -0.00113662   -0.00117651   -0.00150311
     atom  108 type  5   force =     0.00680623   -0.00106973    0.00218403
     atom  109 type  5   force =    -0.10489066   -0.01392872   -0.08868406
     atom  110 type  5   force =    -0.11129458    0.01284494   -0.09129627
     atom  111 type  5   force =     0.00444470   -0.00945558   -0.00112208
     atom  112 type  5   force =     0.16736528    0.03765538   -0.10722888
     atom  113 type  5   force =    -0.00320126    0.00107348    0.00142391
     atom  114 type  5   force =     0.05133612   -0.01589486   -0.02233619
     atom  115 type  5   force =     0.00324514    0.00087775   -0.00095456
     atom  116 type  5   force =    -0.05184028    0.01174027   -0.01964242

     Total force =     1.188284     Total SCF correction =     0.001181

     BFGS Geometry Optimization

     number of scf cycles    =   1
     number of bfgs steps    =   0

     energy   new            =   -1860.8136979481 Ry

     new trust radius        =       0.5000000000 bohr
     new conv_thr            =       0.0000010000 Ry


ATOMIC_POSITIONS (crystal)
C             0.2881416080        0.9700321393        0.5219872063
C             0.0383820392        0.0307083914        0.0218608747
C             0.3904714710        0.0117518906        0.5466161121
C             0.1400836403        0.9877158155        0.0461940806
C             0.4525369777        0.9707602541        0.6500039008
C             0.2025572566        0.0281659514        0.1496377789
C             0.2083489195        0.5297804082        0.5264745780
C             0.4586463433        0.4714296606        0.0277546077
C             0.2444099804        0.6128464274        0.6064999934
C             0.4987924541        0.3881454244        0.1076638004
C             0.2502774153        0.8895679022        0.6033996153
C            -0.0009159227        0.1128604864        0.1032651282
C             0.4101827690        0.8883051278        0.7308625182
C             0.1593499372        0.1097249770        0.2276703468
C             0.0867633316        0.6095122724        0.7295203704
C             0.3409966089        0.3919229303        0.2288639498
C             0.0465837538        0.5248614013        0.6513088237
C             0.2976349248        0.4744947272        0.1529314335
C             0.1081767584        0.4843504040        0.5502352458
C             0.3579720708        0.5164071497        0.0497706145
C             0.4332979630        0.0993704111        0.4666696754
C             0.1812877481        0.8997499574        0.9656036101
C             0.0675148975        0.3944014632        0.4705355554
C             0.3106509637        0.6008801437        0.9767134384
C             0.7882045569        0.9704723417        0.5215409926
C             0.5385172746        0.0310315184        0.0221944673
C             0.8904940785        0.0116981859        0.5465925476
C             0.6400412670        0.9869556568        0.0453046531
C             0.9519425510        0.9700263220        0.6503649202
C             0.7025146461        0.0283375029        0.1500237823
C             0.7084239139        0.5301877788        0.5266453117
C             0.9586731403        0.4710413175        0.0281065880
C             0.7442827843        0.6127476372        0.6066069880
C             0.9962735413        0.3890706486        0.1087614634
C             0.7470691406        0.8885903577        0.6019578322
C             0.4985624956        0.1129419263        0.1031871588
C             0.9077448954        0.8897177985        0.7269412359
C             0.6593416326        0.1091899225        0.2276121871
C             0.5862184978        0.6097583868        0.7301017187
C             0.8393789764        0.3911830433        0.2319286381
C             0.5464241331        0.5248904016        0.6512864592
C             0.7972889373        0.4751074107        0.1529379565
C             0.6082572381        0.4835504865        0.5494546590
C             0.8579843055        0.5165047670        0.0498545366
C             0.9333469865        0.0994390668        0.4666778851
C             0.6868295794        0.9030076948        0.9723730546
C             0.5624868216        0.3972962371        0.4778392309
C             0.8112909614        0.6011704561        0.9764426846
C             0.4571805958        0.8533982551        0.8207181071
C             0.8985486733        0.1588915950        0.0821433721
C             0.0368428277        0.6511210250        0.8228741022
C             0.5984142091        0.3415350662        0.0876249901
C             0.6470569460        0.8449672621        0.5804875247
C             0.3993559459        0.1579951045        0.0821161404
C             0.5397682998        0.6450569777        0.8176097098
C             0.7891520903        0.3495658440        0.3260275762
H             0.2371630938        0.9995905795        0.4431272384
H             0.4864238224        0.0030067279        0.9434861771
H             0.0320316266        0.9988421768        0.6734700499
H             0.2821483658        0.9985931297        0.1726071856
H             0.2586457837        0.5008768082        0.4492721338
H             0.0086449402        0.4999760280        0.9507725360
H             0.3226724101        0.6506356083        0.5927322356
H             0.0749664742        0.3527304598        0.0951621710
H             0.1701607136        0.8550541062        0.5887100117
H             0.2061108841        0.1431195914        0.3087181848
H             0.2964903398        0.3574756438        0.3089724830
H             0.4685866698        0.4930920022        0.6733545177
H             0.2189782839        0.5052599339        0.1751351991
H             0.7370764293        0.9995832512        0.4430599505
H             0.9865119819        0.0026786338        0.9434277067
H             0.5319302042        0.9990140003        0.6735090206
H             0.7821441253        0.9985763845        0.1725806670
H             0.7586622584        0.5013124970        0.4495103492
H             0.5087840763        0.5000717837        0.9505007223
H             0.8226418449        0.6506262353        0.5927459825
H             0.9532636846        0.8553041712        0.8088040330
H             0.7061219761        0.1429920338        0.3086704070
H             0.9685326854        0.4930764346        0.6733632574
H             0.7189601963        0.5053894864        0.1751368702
N             0.3070808859        0.8501723201        0.7053153733
N             0.0611351689        0.1495706969        0.2074186669
N             0.1879281293        0.6514822760        0.7060718581
N             0.4389486398        0.3506117268        0.2095707427
N             0.8087390652        0.8503300585        0.7063299178
N             0.5610014311        0.1491095044        0.2076838753
N             0.6884195355        0.6510324407        0.7063483786
N             0.9400132314        0.3503707195        0.2085870992
N             0.5179470689        0.8048050566        0.9372324993
N             0.8123620471        0.1963230634        0.0636276915
N             0.9791424911        0.6951687545        0.9257046309
N             0.6839175001        0.3035852340        0.0709736620
N             0.5570323372        0.8052168103        0.5621179024
N             0.3097701846        0.1992919956        0.0640289459
N             0.4790665983        0.6917677268        0.9303462039
N             0.7325352126        0.3059429393        0.4288612133
Ni            0.2456459441        0.7529365798        0.8358197598
Ni            0.4985387911        0.2464825051        0.3388328534
Ni            0.7474056098        0.7515357159        0.8354597137
Ni            1.0001297503        0.2479143188        0.3394235116
O             0.1227620101        0.3478013949        0.3830269864
O             0.3650319721        0.6505882828        0.8761320526
O             0.3776597960        0.1474429957        0.3774031802
O             0.1252233337        0.8527816833        0.8761852629
O             0.4753433216        0.3568854453        0.4816811268
O             0.2235034964        0.6407652593        0.9788724130
O             0.0287926497        0.1351104507        0.4810039525
O             0.2769634272        0.8627147661        0.9795065916
O             0.6184542406        0.3471260631        0.3785041697
O             0.8666217122        0.6514961356        0.8767944847
O             0.8778088847        0.1471248473        0.3771227230
O             0.6317756547        0.8538738636        0.8709785991
O             0.9729407116        0.3562033854        0.4830641457
O             0.7231947062        0.6407726004        0.9787766555
O             0.5289704851        0.1351934748        0.4810309756
O             0.7745702528        0.8632324898        0.9784313584



     Writing output data file /nfs/hpc/share/gantzlen/NiPyC2_relax_sc211_ortho_functionalized_C-N_pbesol_relax.save/
     NEW-OLD atomic charge density approx. for the potential

     Check: negative core charge=   -0.000145

     total cpu time spent up to now is     4306.6 secs

     Self-consistent Calculation

     iteration #  1     ecut=   100.00 Ry     beta= 0.70
     Davidson diagonalization with overlap
     ethr =  1.00E-06,  avg # of iterations = 20.0

     total cpu time spent up to now is     5126.9 secs

     total energy              =   -1860.43488639 Ry
     Harris-Foulkes estimate   =   -1860.97531487 Ry
     estimated scf accuracy    <       1.34087801 Ry

     total magnetization       =     8.00 Bohr mag/cell
     absolute magnetization    =     8.18 Bohr mag/cell

     iteration #  2     ecut=   100.00 Ry     beta= 0.70
     Davidson diagonalization with overlap
     ethr =  2.89E-04,  avg # of iterations =  2.5

     total cpu time spent up to now is     5283.1 secs

     total energy              =   -1860.57158430 Ry
     Harris-Foulkes estimate   =   -1860.66992589 Ry
     estimated scf accuracy    <       0.32737866 Ry

     total magnetization       =     8.00 Bohr mag/cell
     absolute magnetization    =     8.18 Bohr mag/cell

     iteration #  3     ecut=   100.00 Ry     beta= 0.70
     Davidson diagonalization with overlap
     ethr =  7.06E-05,  avg # of iterations =  2.0

     total cpu time spent up to now is     5426.4 secs

     total energy              =   -1860.57745045 Ry
     Harris-Foulkes estimate   =   -1860.63863230 Ry
     estimated scf accuracy    <       0.43119991 Ry

     total magnetization       =     8.00 Bohr mag/cell
     absolute magnetization    =     8.17 Bohr mag/cell

     iteration #  4     ecut=   100.00 Ry     beta= 0.70
     Davidson diagonalization with overlap
     ethr =  7.06E-05,  avg # of iterations =  2.0

     total cpu time spent up to now is     5563.5 secs

     total energy              =   -1860.59825840 Ry
     Harris-Foulkes estimate   =   -1860.62478367 Ry
     estimated scf accuracy    <       0.28896002 Ry

     total magnetization       =     8.00 Bohr mag/cell
     absolute magnetization    =     8.18 Bohr mag/cell

     iteration #  5     ecut=   100.00 Ry     beta= 0.70
     Davidson diagonalization with overlap
     ethr =  6.23E-05,  avg # of iterations =  1.0

     total cpu time spent up to now is     5699.7 secs

     total energy              =   -1860.60582254 Ry
     Harris-Foulkes estimate   =   -1860.61445769 Ry
     estimated scf accuracy    <       0.07759852 Ry

     total magnetization       =     8.00 Bohr mag/cell
     absolute magnetization    =     8.19 Bohr mag/cell

     iteration #  6     ecut=   100.00 Ry     beta= 0.70
     Davidson diagonalization with overlap
     ethr =  1.67E-05,  avg # of iterations =  1.0

     total cpu time spent up to now is     5835.3 secs

     total energy              =   -1860.61028477 Ry
     Harris-Foulkes estimate   =   -1860.61137247 Ry
     estimated scf accuracy    <       0.00971316 Ry

     total magnetization       =     8.00 Bohr mag/cell
     absolute magnetization    =     8.18 Bohr mag/cell

     iteration #  7     ecut=   100.00 Ry     beta= 0.70
     Davidson diagonalization with overlap
     ethr =  2.09E-06,  avg # of iterations = 14.5

     total cpu time spent up to now is     6005.4 secs

     total energy              =   -1860.61061115 Ry
     Harris-Foulkes estimate   =   -1860.61085917 Ry
     estimated scf accuracy    <       0.00261967 Ry

     total magnetization       =     8.00 Bohr mag/cell
     absolute magnetization    =     8.19 Bohr mag/cell

     iteration #  8     ecut=   100.00 Ry     beta= 0.70
     Davidson diagonalization with overlap
     ethr =  5.65E-07,  avg # of iterations =  2.0

     total cpu time spent up to now is     6142.3 secs

     total energy              =   -1860.61053248 Ry
     Harris-Foulkes estimate   =   -1860.61089060 Ry
     estimated scf accuracy    <       0.00482489 Ry

     total magnetization       =     8.00 Bohr mag/cell
     absolute magnetization    =     8.19 Bohr mag/cell

     iteration #  9     ecut=   100.00 Ry     beta= 0.70
     Davidson diagonalization with overlap
     ethr =  5.65E-07,  avg # of iterations =  1.0

     total cpu time spent up to now is     6278.9 secs

     total energy              =   -1860.61068639 Ry
     Harris-Foulkes estimate   =   -1860.61073522 Ry
     estimated scf accuracy    <       0.00064843 Ry

     total magnetization       =     8.00 Bohr mag/cell
     absolute magnetization    =     8.19 Bohr mag/cell

     iteration # 10     ecut=   100.00 Ry     beta= 0.70
     Davidson diagonalization with overlap
     ethr =  1.40E-07,  avg # of iterations =  3.0

     total cpu time spent up to now is     6421.3 secs

     total energy              =   -1860.61070544 Ry
     Harris-Foulkes estimate   =   -1860.61071518 Ry
     estimated scf accuracy    <       0.00017799 Ry

     total magnetization       =     8.00 Bohr mag/cell
     absolute magnetization    =     8.19 Bohr mag/cell

     iteration # 11     ecut=   100.00 Ry     beta= 0.70
     Davidson diagonalization with overlap
     ethr =  3.84E-08,  avg # of iterations =  3.0

     total cpu time spent up to now is     6563.6 secs

     total energy              =   -1860.61070598 Ry
     Harris-Foulkes estimate   =   -1860.61072007 Ry
     estimated scf accuracy    <       0.00019773 Ry

     total magnetization       =     8.00 Bohr mag/cell
     absolute magnetization    =     8.19 Bohr mag/cell

     iteration # 12     ecut=   100.00 Ry     beta= 0.70
     Davidson diagonalization with overlap
     ethr =  3.84E-08,  avg # of iterations =  1.0

     total cpu time spent up to now is     6705.6 secs

     total energy              =   -1860.61071508 Ry
     Harris-Foulkes estimate   =   -1860.61072037 Ry
     estimated scf accuracy    <       0.00012793 Ry

     total magnetization       =     8.00 Bohr mag/cell
     absolute magnetization    =     8.19 Bohr mag/cell

     iteration # 13     ecut=   100.00 Ry     beta= 0.70
     Davidson diagonalization with overlap
     ethr =  2.76E-08,  avg # of iterations =  1.5

     total cpu time spent up to now is     6825.3 secs

     total energy              =   -1860.61072017 Ry
     Harris-Foulkes estimate   =   -1860.61072001 Ry
     estimated scf accuracy    <       0.00002054 Ry

     total magnetization       =     8.00 Bohr mag/cell
     absolute magnetization    =     8.19 Bohr mag/cell

     iteration # 14     ecut=   100.00 Ry     beta= 0.70
     Davidson diagonalization with overlap
     ethr =  4.43E-09,  avg # of iterations =  3.5

     total cpu time spent up to now is     6972.5 secs

     total energy              =   -1860.61072129 Ry
     Harris-Foulkes estimate   =   -1860.61072148 Ry
     estimated scf accuracy    <       0.00001525 Ry

     total magnetization       =     8.00 Bohr mag/cell
     absolute magnetization    =     8.19 Bohr mag/cell

     iteration # 15     ecut=   100.00 Ry     beta= 0.70
     Davidson diagonalization with overlap
     ethr =  3.29E-09,  avg # of iterations =  1.5

     total cpu time spent up to now is     7107.5 secs

     total energy              =   -1860.61072075 Ry
     Harris-Foulkes estimate   =   -1860.61072233 Ry
     estimated scf accuracy    <       0.00001740 Ry

     total magnetization       =     8.00 Bohr mag/cell
     absolute magnetization    =     8.19 Bohr mag/cell

     iteration # 16     ecut=   100.00 Ry     beta= 0.70
     Davidson diagonalization with overlap
     ethr =  3.29E-09,  avg # of iterations =  2.0

     total cpu time spent up to now is     7244.1 secs

     total energy              =   -1860.61072131 Ry
     Harris-Foulkes estimate   =   -1860.61072185 Ry
     estimated scf accuracy    <       0.00000724 Ry

     total magnetization       =     8.00 Bohr mag/cell
     absolute magnetization    =     8.19 Bohr mag/cell

     iteration # 17     ecut=   100.00 Ry     beta= 0.70
     Davidson diagonalization with overlap
     ethr =  1.56E-09,  avg # of iterations =  1.0

     total cpu time spent up to now is     7369.2 secs

     total energy              =   -1860.61072169 Ry
     Harris-Foulkes estimate   =   -1860.61072185 Ry
     estimated scf accuracy    <       0.00000383 Ry

     total magnetization       =     8.00 Bohr mag/cell
     absolute magnetization    =     8.19 Bohr mag/cell

     iteration # 18     ecut=   100.00 Ry     beta= 0.70
     Davidson diagonalization with overlap
     ethr =  8.26E-10,  avg # of iterations =  1.5

     total cpu time spent up to now is     7507.6 secs

     total energy              =   -1860.61072183 Ry
     Harris-Foulkes estimate   =   -1860.61072190 Ry
     estimated scf accuracy    <       0.00000183 Ry

     total magnetization       =     8.00 Bohr mag/cell
     absolute magnetization    =     8.19 Bohr mag/cell

     iteration # 19     ecut=   100.00 Ry     beta= 0.70
     Davidson diagonalization with overlap
     ethr =  3.94E-10,  avg # of iterations =  3.0

     total cpu time spent up to now is     7646.4 secs

     total energy              =   -1860.61072186 Ry
     Harris-Foulkes estimate   =   -1860.61072218 Ry
     estimated scf accuracy    <       0.00000571 Ry

     total magnetization       =     8.00 Bohr mag/cell
     absolute magnetization    =     8.19 Bohr mag/cell

     iteration # 20     ecut=   100.00 Ry     beta= 0.70
     Davidson diagonalization with overlap
     ethr =  3.94E-10,  avg # of iterations =  1.5
 
     Magnetic moment per site:
     atom:    1    charge:    0.8467    magn:    0.0068    constr:    0.0000
     atom:    2    charge:    0.8430    magn:    0.0057    constr:    0.0000
     atom:    3    charge:    0.8468    magn:    0.0033    constr:    0.0000
     atom:    4    charge:    0.8475    magn:    0.0039    constr:    0.0000
     atom:    5    charge:    0.8378    magn:    0.0118    constr:    0.0000
     atom:    6    charge:    0.8441    magn:    0.0066    constr:    0.0000
     atom:    7    charge:    0.8487    magn:    0.0062    constr:    0.0000
     atom:    8    charge:    0.8428    magn:    0.0062    constr:    0.0000
     atom:    9    charge:    0.8385    magn:    0.0026    constr:    0.0000
     atom:   10    charge:    0.8361    magn:    0.0049    constr:    0.0000
     atom:   11    charge:    0.8368    magn:    0.0022    constr:    0.0000
     atom:   12    charge:    0.8340    magn:    0.0054    constr:    0.0000
     atom:   13    charge:    0.8992    magn:   -0.0022    constr:    0.0000
     atom:   14    charge:    0.8377    magn:    0.0044    constr:    0.0000
     atom:   15    charge:    0.8675    magn:    0.0004    constr:    0.0000
     atom:   16    charge:    0.8388    magn:    0.0038    constr:    0.0000
     atom:   17    charge:    0.8434    magn:    0.0087    constr:    0.0000
     atom:   18    charge:    0.8447    magn:    0.0065    constr:    0.0000
     atom:   19    charge:    0.8474    magn:    0.0032    constr:    0.0000
     atom:   20    charge:    0.8544    magn:    0.0020    constr:    0.0000
     atom:   21    charge:    0.8220    magn:   -0.0013    constr:    0.0000
     atom:   22    charge:    0.8223    magn:   -0.0012    constr:    0.0000
     atom:   23    charge:    0.8227    magn:   -0.0013    constr:    0.0000
     atom:   24    charge:    0.8124    magn:    0.0025    constr:    0.0000
     atom:   25    charge:    0.8427    magn:    0.0060    constr:    0.0000
     atom:   26    charge:    0.8419    magn:    0.0067    constr:    0.0000
     atom:   27    charge:    0.8465    magn:    0.0037    constr:    0.0000
     atom:   28    charge:    0.8549    magn:    0.0025    constr:    0.0000
     atom:   29    charge:    0.8469    magn:    0.0061    constr:    0.0000
     atom:   30    charge:    0.8437    magn:    0.0068    constr:    0.0000
     atom:   31    charge:    0.8485    magn:    0.0074    constr:    0.0000
     atom:   32    charge:    0.8467    magn:    0.0068    constr:    0.0000
     atom:   33    charge:    0.8401    magn:    0.0018    constr:    0.0000
     atom:   34    charge:    0.8381    magn:    0.0029    constr:    0.0000
     atom:   35    charge:    0.8366    magn:    0.0043    constr:    0.0000
     atom:   36    charge:    0.8377    magn:    0.0043    constr:    0.0000
     atom:   37    charge:    0.8415    magn:    0.0038    constr:    0.0000
     atom:   38    charge:    0.8404    magn:    0.0044    constr:    0.0000
     atom:   39    charge:    0.8993    magn:   -0.0034    constr:    0.0000
     atom:   40    charge:    0.8662    magn:    0.0011    constr:    0.0000
     atom:   41    charge:    0.8407    magn:    0.0131    constr:    0.0000
     atom:   42    charge:    0.8385    magn:    0.0095    constr:    0.0000
     atom:   43    charge:    0.8548    magn:    0.0013    constr:    0.0000
     atom:   44    charge:    0.8536    magn:    0.0019    constr:    0.0000
     atom:   45    charge:    0.8233    magn:   -0.0016    constr:    0.0000
     atom:   46    charge:    0.8168    magn:    0.0020    constr:    0.0000
     atom:   47    charge:    0.8110    magn:    0.0027    constr:    0.0000
     atom:   48    charge:    0.8105    magn:    0.0029    constr:    0.0000
     atom:   49    charge:    0.7262    magn:    0.0314    constr:    0.0000
     atom:   50    charge:    0.8873    magn:    0.0040    constr:    0.0000
     atom:   51    charge:    0.7945    magn:    0.0255    constr:    0.0000
     atom:   52    charge:    0.8902    magn:    0.0038    constr:    0.0000
     atom:   53    charge:    0.8660    magn:    0.0045    constr:    0.0000
     atom:   54    charge:    0.8650    magn:    0.0050    constr:    0.0000
     atom:   55    charge:    0.7301    magn:    0.0335    constr:    0.0000
     atom:   56    charge:    0.7979    magn:    0.0251    constr:    0.0000
     atom:   57    charge:    0.4888    magn:   -0.0014    constr:    0.0000
     atom:   58    charge:    0.4883    magn:   -0.0009    constr:    0.0000
     atom:   59    charge:    0.4875    magn:   -0.0013    constr:    0.0000
     atom:   60    charge:    0.4892    magn:   -0.0011    constr:    0.0000
     atom:   61    charge:    0.4881    magn:   -0.0014    constr:    0.0000
     atom:   62    charge:    0.4887    magn:   -0.0010    constr:    0.0000
     atom:   63    charge:    0.4820    magn:   -0.0006    constr:    0.0000
     atom:   64    charge:    0.4825    magn:   -0.0008    constr:    0.0000
     atom:   65    charge:    0.4817    magn:   -0.0006    constr:    0.0000
     atom:   66    charge:    0.4831    magn:   -0.0003    constr:    0.0000
     atom:   67    charge:    0.4822    magn:   -0.0005    constr:    0.0000
     atom:   68    charge:    0.4903    magn:   -0.0015    constr:    0.0000
     atom:   69    charge:    0.4884    magn:   -0.0015    constr:    0.0000
     atom:   70    charge:    0.4904    magn:   -0.0011    constr:    0.0000
     atom:   71    charge:    0.4898    magn:   -0.0011    constr:    0.0000
     atom:   72    charge:    0.4922    magn:   -0.0011    constr:    0.0000
     atom:   73    charge:    0.4895    magn:   -0.0013    constr:    0.0000
     atom:   74    charge:    0.4874    magn:   -0.0010    constr:    0.0000
     atom:   75    charge:    0.4901    magn:   -0.0009    constr:    0.0000
     atom:   76    charge:    0.4811    magn:   -0.0006    constr:    0.0000
     atom:   77    charge:    0.4809    magn:   -0.0002    constr:    0.0000
     atom:   78    charge:    0.4806    magn:   -0.0003    constr:    0.0000
     atom:   79    charge:    0.4887    magn:   -0.0012    constr:    0.0000
     atom:   80    charge:    0.4913    magn:   -0.0012    constr:    0.0000
     atom:   81    charge:    1.7733    magn:    0.0248    constr:    0.0000
     atom:   82    charge:    1.7753    magn:    0.0124    constr:    0.0000
     atom:   83    charge:    1.7731    magn:    0.0197    constr:    0.0000
     atom:   84    charge:    1.7731    magn:    0.0150    constr:    0.0000
     atom:   85    charge:    1.7732    magn:    0.0138    constr:    0.0000
     atom:   86    charge:    1.7744    magn:    0.0148    constr:    0.0000
     atom:   87    charge:    1.7717    magn:    0.0272    constr:    0.0000
     atom:   88    charge:    1.7740    magn:    0.0201    constr:    0.0000
     atom:   89    charge:    1.5688    magn:    0.0241    constr:    0.0000
     atom:   90    charge:    1.7389    magn:    0.0460    constr:    0.0000
     atom:   91    charge:    1.6248    magn:    0.0279    constr:    0.0000
     atom:   92    charge:    1.7411    magn:    0.0444    constr:    0.0000
     atom:   93    charge:    1.7206    magn:    0.0307    constr:    0.0000
     atom:   94    charge:    1.7143    magn:    0.0327    constr:    0.0000
     atom:   95    charge:    1.5896    magn:    0.0196    constr:    0.0000
     atom:   96    charge:    1.6293    magn:    0.0273    constr:    0.0000
     atom:   97    charge:    7.4574    magn:    0.9947    constr:    0.0000
     atom:   98    charge:    7.4518    magn:    1.0397    constr:    0.0000
     atom:   99    charge:    7.4770    magn:    0.9990    constr:    0.0000
     atom:  100    charge:    7.4350    magn:    1.0328    constr:    0.0000
     atom:  101    charge:    3.2595    magn:    0.0527    constr:    0.0000
     atom:  102    charge:    3.1827    magn:    0.0381    constr:    0.0000
     atom:  103    charge:    3.2607    magn:    0.0514    constr:    0.0000
     atom:  104    charge:    3.2594    magn:    0.0523    constr:    0.0000
     atom:  105    charge:    3.2831    magn:    0.0250    constr:    0.0000
     atom:  106    charge:    3.2877    magn:    0.0273    constr:    0.0000
     atom:  107    charge:    3.2583    magn:    0.0561    constr:    0.0000
     atom:  108    charge:    3.2561    magn:    0.0534    constr:    0.0000
[...]
     atom   37 type  1   force =    -0.00080504    0.00025289    0.00036667
     atom   38 type  1   force =    -0.00241612   -0.00235106    0.00197878
     atom   39 type  1   force =    -0.00002588   -0.00127996   -0.00118247
     atom   40 type  1   force =    -0.00224531   -0.00011105    0.00043871
     atom   41 type  1   force =     0.00220584   -0.00155788    0.00055360
     atom   42 type  1   force =     0.00157561    0.00142369   -0.00151575
     atom   43 type  1   force =     0.00203697    0.00003836    0.00001344
     atom   44 type  1   force =    -0.00201955   -0.00071006   -0.00097332
     atom   45 type  1   force =     0.00056678    0.00135546    0.00073869
     atom   46 type  1   force =    -0.00058689    0.00020050    0.00001491
     atom   47 type  1   force =     0.00013900    0.00167925    0.00072176
     atom   48 type  1   force =    -0.00047084    0.00149597    0.00052359
     atom   49 type  1   force =    -0.00059255   -0.00114763    0.00189022
     atom   50 type  1   force =     0.00026587    0.00098198    0.00147523
     atom   51 type  1   force =    -0.00291111    0.00249071    0.00297731
     atom   52 type  1   force =    -0.00206295    0.00045850    0.00078328
     atom   53 type  1   force =     0.00084064   -0.00135823   -0.00036620
     atom   54 type  1   force =     0.00024615    0.00052557   -0.00093372
     atom   55 type  1   force =    -0.00063350   -0.00160891    0.00124005
     atom   56 type  1   force =    -0.00148403    0.00021053    0.00155194
     atom   57 type  2   force =    -0.00114825    0.00019414    0.00123234
     atom   58 type  2   force =    -0.00066000    0.00032186   -0.00000581
     atom   59 type  2   force =     0.00087457    0.00026430    0.00156956
     atom   60 type  2   force =    -0.00049442    0.00127875    0.00044960
     atom   61 type  2   force =     0.00042993   -0.00090571    0.00000690
     atom   62 type  2   force =    -0.00006214   -0.00089041    0.00139803
     atom   63 type  2   force =     0.00025254   -0.00124888   -0.00002516
     atom   64 type  2   force =     0.00090794   -0.00216226   -0.00018386
     atom   65 type  2   force =     0.00012995   -0.00081215   -0.00046331
     atom   66 type  2   force =     0.00018114   -0.00107669   -0.00113887
     atom   67 type  2   force =    -0.00107221    0.00122663    0.00007526
     atom   68 type  2   force =     0.00251110    0.00158733   -0.00122555
     atom   69 type  2   force =     0.00127544    0.00077055   -0.00105902
     atom   70 type  2   force =    -0.00158728   -0.00025011    0.00026478
     atom   71 type  2   force =     0.00051829   -0.00276577    0.00026524
     atom   72 type  2   force =     0.00020104   -0.00004489   -0.00105192
     atom   73 type  2   force =    -0.00083398    0.00097000    0.00135956
     atom   74 type  2   force =    -0.00031294    0.00157204    0.00234872
     atom   75 type  2   force =    -0.00124798   -0.00001435   -0.00082819
     atom   76 type  2   force =     0.00026669    0.00144185   -0.00026785
     atom   77 type  2   force =    -0.00196806   -0.00149061   -0.00045952
     atom   78 type  2   force =    -0.00102657   -0.00054730    0.00215488
     atom   79 type  2   force =     0.00196909    0.00071746   -0.00189821
     atom   80 type  2   force =     0.00109043    0.00041911   -0.00008532
     atom   81 type  3   force =    -0.00088819   -0.00133318   -0.00029636
     atom   82 type  3   force =    -0.00033843    0.00012570   -0.00081377
     atom   83 type  3   force =     0.00165309    0.00050168    0.00022028
     atom   84 type  3   force =     0.00030653    0.00096576    0.00100310
     atom   85 type  3   force =    -0.00061153   -0.00085611   -0.00013044
     atom   86 type  3   force =     0.00084365    0.00059318    0.00028074
     atom   87 type  3   force =    -0.00019744   -0.00295429   -0.00136600
     atom   88 type  3   force =     0.00064022    0.00064948   -0.00146241
     atom   89 type  3   force =    -0.00216836    0.00079410   -0.00041509
     atom   90 type  3   force =     0.00102607    0.00158785    0.00088548
     atom   91 type  3   force =     0.00157597   -0.00153761   -0.00161047
     atom   92 type  3   force =     0.00171873   -0.00139970   -0.00064208
     atom   93 type  3   force =     0.00028741    0.00137645    0.00068483
     atom   94 type  3   force =    -0.00025664   -0.00028157   -0.00017259
     atom   95 type  3   force =     0.00163175    0.00010492   -0.00197953
     atom   96 type  3   force =     0.00019462    0.00160460    0.00096088
     atom   97 type  4   force =     0.00127044   -0.00181098   -0.00023437
     atom   98 type  4   force =    -0.00055445    0.00149269   -0.00123725
     atom   99 type  4   force =    -0.00207627   -0.00169697   -0.00126001
     atom  100 type  4   force =     0.00147572   -0.00117020   -0.00005685
     atom  101 type  5   force =    -0.00000892    0.00024391   -0.00190674
     atom  102 type  5   force =    -0.00145380   -0.00082325   -0.00030072
     atom  103 type  5   force =    -0.00358696    0.00014578    0.00038457
     atom  104 type  5   force =    -0.00028422    0.00067501   -0.00113340
     atom  105 type  5   force =     0.00111268    0.00094991   -0.00115215
     atom  106 type  5   force =     0.00083573    0.00127893    0.00013240
     atom  107 type  5   force =     0.00003232   -0.00020512    0.00157341
     atom  108 type  5   force =     0.00121354    0.00111451    0.00211069
     atom  109 type  5   force =    -0.00123590    0.00030472   -0.00027672
     atom  110 type  5   force =    -0.00105382    0.00065591    0.00207890
     atom  111 type  5   force =    -0.00105648   -0.00061821    0.00118068
     atom  112 type  5   force =    -0.00043052   -0.00033680    0.00005561
     atom  113 type  5   force =     0.00007429    0.00153631    0.00051926
     atom  114 type  5   force =     0.00005024   -0.00071889   -0.00077120
     atom  115 type  5   force =     0.00083843    0.00014647    0.00267279
     atom  116 type  5   force =     0.00059454   -0.00006711    0.00076082

     Total force =     0.021876     Total SCF correction =     0.000465

     number of scf cycles    =  99
     number of bfgs steps    =  93

     energy   old            =   -1861.8622594630 Ry
     energy   new            =   -1861.8628846081 Ry

     CASE: energy  _new < energy  _old

     new trust radius        =       0.0327742721 bohr
     new conv_thr            =       0.0000000359 Ry


ATOMIC_POSITIONS (crystal)
C             0.2929567684        0.9805457852        0.5384098344
C             0.0429384585        0.0198682842        0.0256201276
C             0.3922857544        0.0291021318        0.5592657640
C             0.1461069930        0.9814774746        0.0461799396
C             0.4577448400        0.9945898001        0.6620446480
C             0.2085053919        0.0230156999        0.1486751196
C             0.2229157533        0.5276565921        0.5307911715
C             0.4379960223        0.4680391887        0.0224142447
C             0.2515818110        0.6171609756        0.6063119068
C             0.4833639647        0.3930389653        0.1084346144
C             0.2634222389        0.8971853524        0.6217214148
C             0.0028397046        0.0943928772        0.1148415043
C             0.4234731733        0.9091903627        0.7402230993
C             0.1670936037        0.1070333622        0.2237056497
C             0.0876780007        0.6155872230        0.7078489360
C             0.3299467485        0.3931776612        0.2335778773
C             0.0538089116        0.5239322893        0.6389278471
C             0.2803492716        0.4698998512        0.1527956345
C             0.1236968286        0.4791611436        0.5501689269
C             0.3361161067        0.5075226955        0.0458105666
C             0.4301441911        0.1150449603        0.4751108424
C             0.1868543952        0.8951558547        0.9652727221
C             0.0884534903        0.3846200214        0.4764754501
C             0.2943931523        0.5911379343        0.9585488928
C             0.7949876278        0.9762435716        0.5207931217
C             0.5275221307        0.0491197915        0.0130734241
C             0.8962776255        0.0192975824        0.5439187411
C             0.6271397979        1.0039003295        0.0283746767
C             0.9568144941        0.9857906069        0.6516306874
C             0.6987348149        0.0417863750        0.1376066704
C             0.6853086111        0.5492632663        0.5132798172
C             0.9596079133        0.4424708402        0.0236692535
C             0.7409812669        0.6237783964        0.5908214356
C             1.0066805535        0.3734054688        0.1147956867
C             0.7584395170        0.8955854529        0.6047484826
C             0.4888921973        0.1237651907        0.1028795549
C             0.9147820388        0.9075802293        0.7320874655
C             0.6483935175        0.1241445786        0.2237736014
C             0.6147018700        0.6084456147        0.7522918662
C             0.8581787526        0.3872044492        0.2493802142
C             0.5546609118        0.5318440207        0.6812127082
C             0.8070443387        0.4601666210        0.1639042625
C             0.5929737648        0.5008855836        0.5602283934
C             0.8585758802        0.4835805729        0.0485720772
C             0.9424957909        0.0991285801        0.4587794259
C             0.6616604172        0.9179202623        0.9456190763
C             0.5416568320        0.4145167130        0.4829502280
C             0.8039396558        0.5425804952        0.9405201927
C             0.4984582339        0.8662740980        0.8353139636
C             0.8908314616        0.1015347594        0.1141346451
C             0.0108528049        0.6647307449        0.7862171368
C             0.5872431162        0.3555933719        0.0851938212
C             0.6569516341        0.8505197087        0.5776162141
C             0.3863352095        0.1659765836        0.0798992793
C             0.5867438937        0.6484097040        0.8738390830
C             0.8077378729        0.3517021900        0.3623278464
H             0.2381176194        1.0057881103        0.4610279915
H             0.4730841598        0.0269210586        0.9340988433
H             0.0351926464        1.0188265575        0.6736240771
H             0.2877227272        0.9924324281        0.1715052029
H             0.2796457639        0.4965172235        0.4621826940
H             0.0004303179        0.4617822070        0.9347708965
H             0.3293640768        0.6552230719        0.5976465218
H             0.0851001039        0.3381518394        0.1008412649
H             0.1861567354        0.8584008785        0.6100886218
H             0.2152348621        0.1448529506        0.3000019517
H             0.2888087269        0.3602271258        0.3165617003
H             0.4823049730        0.4987721492        0.7220564113
H             0.2007008958        0.4979841372        0.1753044161
H             0.7434032548        1.0026879283        0.4407189004
H             0.9898300541       -0.0098092391        0.9489237091
H             0.5347001144        1.0314879499        0.6829927934
H             0.7225293206        0.9724344916        0.1993394352
H             0.7155529697        0.5285888524        0.4186290977
H             0.4844185794        0.4942624586        0.9403977197
H             0.8144858537        0.6607060830        0.5588242125
H             0.9615004973        0.8787130047        0.8150427442
H             0.6982034982        0.1580753183        0.3021015522
H             0.9748784437        0.4909098087        0.6565951785
H             0.7308672144        0.4948226346        0.1897425991
N             0.3263923565        0.8607037419        0.7197651552
N             0.0664175453        0.1418304768        0.2084024571
N             0.1868915617        0.6598109752        0.6953069836
N             0.4283772285        0.3560012305        0.2129006060
N             0.8194261727        0.8607602789        0.7090639335
N             0.5497910393        0.1577063981        0.2091727592
N             0.7078937713        0.6528670152        0.7084972674
N             0.9554951126        0.3439788314        0.2223926151
N             0.4703583118        0.7852312789        0.9097062337
N             0.7997841341        0.0850084926        0.0944821327
N             0.9372513811        0.7003254256        0.8378851774
N             0.6736238751        0.3260828612        0.0625173417
N             0.5722532478        0.8168545523        0.5491300758
N             0.3003122338        0.1973101335        0.0530814326
N             0.5418266163        0.7126514848        0.9437209207
N             0.7646522287        0.3195725700        0.4547638455
Ni            0.2551159341        0.7514077547        0.8359296488
Ni            0.4908490583        0.2576759780        0.3412590650
Ni            0.7879416638        0.7454223009        0.8354924772
Ni            1.0179781920        0.2420971683        0.3412641377
O             0.1433529029        0.3378096779        0.3887168353
O             0.3503826267        0.6230348994        0.8620753068
O             0.3717892736        0.1590601648        0.3850957563
O             0.1347302273        0.8562718769        0.8669290235
O             0.4533012625        0.3713551683        0.5074736048
O             0.2063751345        0.6407321622        0.9735625563
O             0.0399163032        0.1300586334        0.4745938248
O             0.2780529205        0.8520669513        0.9884402213
O             0.5891737797        0.3764997952        0.3811679161
O             0.8084637216        0.4998838275        0.8325992404
O             0.8902632196        0.1438543239        0.3644996371
O             0.5996727249        0.9025897973        0.8314254328
O             0.9959351636        0.3430383912        0.4917261012
O             0.7586096910        0.6339380692        0.9674833136
O             0.5254320848        0.1531792180        0.4833616021
O             0.7434987683        0.8637218262        0.9619470392



     Writing output data file /nfs/hpc/share/gantzlen/NiPyC2_relax_sc211_ortho_functionalized_C-N_pbesol_relax.save/
     NEW-OLD atomic charge density approx. for the potential

     Check: negative core charge=   -0.000145

     total cpu time spent up to now is   257063.2 secs

     Self-consistent Calculation

     iteration #  1     ecut=   100.00 Ry     beta= 0.70
     Davidson diagonalization with overlap
     ethr =  1.00E-06,  avg # of iterations =  5.0

     total cpu time spent up to now is   257494.7 secs

     total energy              =   -1861.86343415 Ry
     Harris-Foulkes estimate   =   -1861.86397388 Ry
     estimated scf accuracy    <       0.00197143 Ry

     total magnetization       =     8.00 Bohr mag/cell
     absolute magnetization    =     8.20 Bohr mag/cell

     iteration #  2     ecut=   100.00 Ry     beta= 0.70
     Davidson diagonalization with overlap
     ethr =  4.25E-07,  avg # of iterations =  2.0

     total cpu time spent up to now is   257635.6 secs

     total energy              =   -1861.86345993 Ry
     Harris-Foulkes estimate   =   -1861.86358343 Ry
     estimated scf accuracy    <       0.00040285 Ry

     total magnetization       =     8.00 Bohr mag/cell
     absolute magnetization    =     8.20 Bohr mag/cell

     iteration #  3     ecut=   100.00 Ry     beta= 0.70
     Davidson diagonalization with overlap
     ethr =  8.68E-08,  avg # of iterations =  3.0

     total cpu time spent up to now is   257794.6 secs

     total energy              =   -1861.86341342 Ry
     Harris-Foulkes estimate   =   -1861.86359795 Ry
     estimated scf accuracy    <       0.00210461 Ry

     total magnetization       =     8.00 Bohr mag/cell
     absolute magnetization    =     8.20 Bohr mag/cell

     iteration #  4     ecut=   100.00 Ry     beta= 0.70
     Davidson diagonalization with overlap
     ethr =  8.68E-08,  avg # of iterations =  1.5

     total cpu time spent up to now is   257935.7 secs

     total energy              =   -1861.86350989 Ry
     Harris-Foulkes estimate   =   -1861.86353080 Ry
     estimated scf accuracy    <       0.00022267 Ry

     total magnetization       =     8.00 Bohr mag/cell
     absolute magnetization    =     8.20 Bohr mag/cell

     iteration #  5     ecut=   100.00 Ry     beta= 0.70
     Davidson diagonalization with overlap
     ethr =  4.80E-08,  avg # of iterations =  1.0

     total cpu time spent up to now is   258070.7 secs

     total energy              =   -1861.86351778 Ry
     Harris-Foulkes estimate   =   -1861.86352087 Ry
     estimated scf accuracy    <       0.00001860 Ry

     total magnetization       =     8.00 Bohr mag/cell
     absolute magnetization    =     8.20 Bohr mag/cell

     iteration #  6     ecut=   100.00 Ry     beta= 0.70
     Davidson diagonalization with overlap
     ethr =  4.01E-09,  avg # of iterations =  3.0

     total cpu time spent up to now is   258214.1 secs

     total energy              =   -1861.86351878 Ry
     Harris-Foulkes estimate   =   -1861.86352096 Ry
     estimated scf accuracy    <       0.00002217 Ry

     total magnetization       =     8.00 Bohr mag/cell
     absolute magnetization    =     8.20 Bohr mag/cell

     iteration #  7     ecut=   100.00 Ry     beta= 0.70
     Davidson diagonalization with overlap
     ethr =  4.01E-09,  avg # of iterations =  1.0

     total cpu time spent up to now is   258351.5 secs

     total energy              =   -1861.86351948 Ry
     Harris-Foulkes estimate   =   -1861.86352011 Ry
     estimated scf accuracy    <       0.00000703 Ry

     total magnetization       =     8.00 Bohr mag/cell
     absolute magnetization    =     8.20 Bohr mag/cell

     iteration #  8     ecut=   100.00 Ry     beta= 0.70
     Davidson diagonalization with overlap
     ethr =  1.51E-09,  avg # of iterations =  3.0

     total cpu time spent up to now is   258489.6 secs

     total energy              =   -1861.86351963 Ry
     Harris-Foulkes estimate   =   -1861.86352001 Ry
     estimated scf accuracy    <       0.00000413 Ry

     total magnetization       =     8.00 Bohr mag/cell
     absolute magnetization    =     8.20 Bohr mag/cell

     iteration #  9     ecut=   100.00 Ry     beta= 0.70
     Davidson diagonalization with overlap
     ethr =  8.89E-10,  avg # of iterations =  2.0

     total cpu time spent up to now is   258609.0 secs

     total energy              =   -1861.86351975 Ry
     Harris-Foulkes estimate   =   -1861.86351984 Ry
     estimated scf accuracy    <       0.00000097 Ry

     total magnetization       =     8.00 Bohr mag/cell
     absolute magnetization    =     8.20 Bohr mag/cell

     iteration # 10     ecut=   100.00 Ry     beta= 0.70
     Davidson diagonalization with overlap
     ethr =  2.10E-10,  avg # of iterations =  3.0

     total cpu time spent up to now is   258749.9 secs

     total energy              =   -1861.86351977 Ry
     Harris-Foulkes estimate   =   -1861.86351980 Ry
     estimated scf accuracy    <       0.00000043 Ry

     total magnetization       =     8.00 Bohr mag/cell
     absolute magnetization    =     8.20 Bohr mag/cell

     iteration # 11     ecut=   100.00 Ry     beta= 0.70
     Davidson diagonalization with overlap
     ethr =  9.35E-11,  avg # of iterations =  2.0

     total cpu time spent up to now is   258886.7 secs

     total energy              =   -1861.86351979 Ry
     Harris-Foulkes estimate   =   -1861.86351979 Ry
     estimated scf accuracy    <       0.00000014 Ry

     total magnetization       =     8.00 Bohr mag/cell
     absolute magnetization    =     8.20 Bohr mag/cell

     iteration # 12     ecut=   100.00 Ry     beta= 0.70
     Davidson diagonalization with overlap
