/apps/openmpi/3.1_intel-19/bin/mpiexec
starting QE Thu Jun 25 12:12:58 PDT 2020

     Program PWSCF v.6.5 starts on 25Jun2020 at 12:13: 0 

     This program is part of the open-source Quantum ESPRESSO suite
     for quantum simulation of materials; please cite
         "P. Giannozzi et al., J. Phys.:Condens. Matter 21 395502 (2009);
         "P. Giannozzi et al., J. Phys.:Condens. Matter 29 465901 (2017);
          URL http://www.quantum-espresso.org", 
     in publications or presentations arising from this work. More details at
     http://www.quantum-espresso.org/quote

     Parallel version (MPI), running on    32 processors

     MPI processes distributed on     1 nodes
     K-points division:     npool     =       2
     R & G space division:  proc/nbgrp/npool/nimage =      16
     Reading input from QE_input_scripts/pw.NiPyC2_relax_sc211_meta_functionalized_C-N_pbesol_relax.in
Warning: card &CELL ignored
Warning: card    CELL_DYNAMICS = 'BFGS' ignored
Warning: card    CELL_DOFREE = 'XYZ' ignored
Warning: card / ignored

     Current dimensions of program PWSCF are:
     Max number of different atomic species (ntypx) = 10
     Max number of k-points (npk) =  40000
     Max angular momentum in pseudopotentials (lmaxx) =  3

     -------------------------------------------------
     Parameters for Dispersion (Grimme-D2) Correction:
     -------------------------------------------------
       atom      VdW radius       C_6     

        C          2.744         60.710
        H          1.892          4.857
        N          2.640         42.670
        Ni         2.952        374.666
        O          2.536         24.284

     gamma-point specific algorithms are used

     Subspace diagonalization in iterative solution of the eigenvalue problem:
     a serial algorithm will be used

     Found symmetry operation: I + ( -0.5000  0.0000  0.0000)
     This is a supercell, fractional translations are disabled
 
     Parallelization info
     --------------------
     sticks:   dense  smooth     PW     G-vecs:    dense   smooth      PW
     Min        1113    1113    277                91686    91686   11456
     Max        1116    1116    280                91692    91692   11460
     Sum       17829   17829   4453              1467017  1467017  183325
 


     bravais-lattice index     =            0
     lattice parameter (alat)  =      23.6322  a.u.
     unit-cell volume          =   10858.6228 (a.u.)^3
     number of atoms/cell      =          116
     number of atomic types    =            5
     number of electrons       =       464.00 (up: 236.00, down: 228.00)
     number of Kohn-Sham states=          283
     kinetic-energy cutoff     =     100.0000  Ry
     charge density cutoff     =     400.0000  Ry
     convergence threshold     =      1.0E-06
     mixing beta               =       0.7000
     number of iterations used =            8  local-TF  mixing
     Exchange-correlation= PBESOL
                           (   1   4  10   8   0   0   0)
     nstep                     =          200


     celldm(1)=  23.632159  celldm(2)=   0.000000  celldm(3)=   0.000000
     celldm(4)=   0.000000  celldm(5)=   0.000000  celldm(6)=   0.000000

     crystal axes: (cart. coord. in units of alat)
               a(1) = (   1.000000   0.000000   0.000000 )  
               a(2) = (   0.000000   1.001423   0.000000 )  
               a(3) = (  -0.018199   0.000000   0.821574 )  

     reciprocal axes: (cart. coord. in units 2 pi/alat)
               b(1) = (  1.000000  0.000000  0.022152 )  
               b(2) = (  0.000000  0.998579  0.000000 )  
               b(3) = (  0.000000  0.000000  1.217175 )  


     PseudoPot. # 1 for C  read from file:
     ./pseudo/C.pbesol-nc.UPF
     MD5 check sum: ce26087537ded160c8d400e183a8bf42
     Pseudo is Norm-conserving, Zval =  4.0
     Generated using "atomic" code by A. Dal Corso v.6.5
     Using radial grid of 1073 points,  1 beta functions with: 
                l(1) =   1

     PseudoPot. # 2 for H  read from file:
     ./pseudo/H.pbesol-n-nc.UPF
     MD5 check sum: 7995ef24074557c85b430109caaacc09
     Pseudo is Norm-conserving, Zval =  1.0
     Generated using "atomic" code by A. Dal Corso v.6.5
     Using radial grid of  929 points,  0 beta functions with: 

     PseudoPot. # 3 for N  read from file:
     ./pseudo/N.pbesol-nc.UPF
     MD5 check sum: e18cc5e4b8a5600c1a19b30c2cab1ca0
     Pseudo is Norm-conserving, Zval =  5.0
     Generated using "atomic" code by A. Dal Corso v.6.5
     Using radial grid of 1085 points,  1 beta functions with: 
                l(1) =   1

     PseudoPot. # 4 for Ni read from file:
     ./pseudo/Ni.pbesol-n-nc.UPF
     MD5 check sum: 623411631e0c2eb7c0b2b9815547d2d9
     Pseudo is Norm-conserving + core correction, Zval = 10.0
     Generated using "atomic" code by A. Dal Corso v.6.5
     Using radial grid of 1195 points,  2 beta functions with: 
                l(1) =   1
                l(2) =   2

     PseudoPot. # 5 for O  read from file:
     ./pseudo/O.pbesol-nc.UPF
     MD5 check sum: 73d10e7e91dbfcbe8a7e362101007f84
     Pseudo is Norm-conserving, Zval =  6.0
     Generated using "atomic" code by A. Dal Corso v.6.5
     Using radial grid of 1095 points,  1 beta functions with: 
                l(1) =   1

     atomic species   valence    mass     pseudopotential
        C              4.00    12.01070     C ( 1.00)
        H              1.00     1.00794     H ( 1.00)
        N              5.00    14.00670     N ( 1.00)
        Ni            10.00    58.69340     Ni( 1.00)
        O              6.00    15.99940     O ( 1.00)

     Starting magnetic structure 
     atomic species   magnetization
        C            0.000
        H            0.000
        N            0.000
        Ni           0.250
        O            0.000

     No symmetry found



   Cartesian axes

     site n.     atom                  positions (alat units)
         1           C   tau(   1) = (   0.2787122   0.9714307   0.4288486  )
         2           C   tau(   2) = (   0.0379730   0.0311503   0.0183277  )
         3           C   tau(   3) = (   0.3806882   0.0117868   0.4489838  )
         4           C   tau(   4) = (   0.1394042   0.9891499   0.0379124  )
         5           C   tau(   5) = (   0.4400787   0.9715829   0.5343281  )
         6           C   tau(   6) = (   0.1997920   0.0283934   0.1231482  )
         7           C   tau(   7) = (   0.1986011   0.5304580   0.4324635  )
         8           C   tau(   8) = (   0.4580372   0.4720800   0.0229252  )
         9           C   tau(   9) = (   0.2341003   0.6142040   0.4982314  )
        10           C   tau(  10) = (   0.4948422   0.3892302   0.0892369  )
        11           C   tau(  11) = (   0.2384981   0.8904717   0.4955761  )
        12           C   tau(  12) = (  -0.0008282   0.1123917   0.0856467  )
        13           C   tau(  13) = (   0.3947360   0.8906489   0.5977380  )
        14           C   tau(  14) = (   0.1557890   0.1097029   0.1871645  )
        15           C   tau(  15) = (   0.0756247   0.6098498   0.5975737  )
        16           C   tau(  16) = (   0.3367152   0.3921904   0.1884642  )
        17           C   tau(  17) = (   0.0350715   0.5258264   0.5351012  )
        18           C   tau(  18) = (   0.2948780   0.4753867   0.1254988  )
        19           C   tau(  19) = (   0.0981522   0.4849593   0.4519611  )
        20           C   tau(  20) = (   0.3569104   0.5163900   0.0416029  )
        21           C   tau(  21) = (   0.4248178   0.0994604   0.3833638  )
        22           C   tau(  22) = (   0.1639424   0.9010006   0.7933713  )
        23           C   tau(  23) = (   0.0588120   0.3950355   0.3866953  )
        24           C   tau(  24) = (   0.2984059   0.6050320   0.7961934  )
        25           C   tau(  25) = (   0.7787122   0.9714307   0.4288486  )
        26           C   tau(  26) = (   0.5379730   0.0311503   0.0183277  )
        27           C   tau(  27) = (   0.8806882   0.0117868   0.4489838  )
        28           C   tau(  28) = (   0.6394042   0.9891499   0.0379124  )
        29           C   tau(  29) = (   0.9400787   0.9715829   0.5343281  )
        30           C   tau(  30) = (   0.6997920   0.0283934   0.1231482  )
        31           C   tau(  31) = (   0.6986021   0.5304580   0.4324635  )
        32           C   tau(  32) = (   0.9580382   0.4720800   0.0229252  )
        33           C   tau(  33) = (   0.7341003   0.6142040   0.4982314  )
        34           C   tau(  34) = (   0.9948422   0.3892302   0.0892369  )
        35           C   tau(  35) = (   0.7384981   0.8904717   0.4955761  )
        36           C   tau(  36) = (   0.4991718   0.1123917   0.0856467  )
        37           C   tau(  37) = (   0.8947360   0.8906489   0.5977380  )
        38           C   tau(  38) = (   0.6557880   0.1097029   0.1871645  )
        39           C   tau(  39) = (   0.5756247   0.6098498   0.5975737  )
        40           C   tau(  40) = (   0.8367152   0.3921904   0.1884642  )
        41           C   tau(  41) = (   0.5350715   0.5258264   0.5351012  )
        42           C   tau(  42) = (   0.7948780   0.4753867   0.1254988  )
        43           C   tau(  43) = (   0.5981522   0.4849593   0.4519611  )
        44           C   tau(  44) = (   0.8569104   0.5163900   0.0416029  )
        45           C   tau(  45) = (   0.9248178   0.0994604   0.3833638  )
        46           C   tau(  46) = (   0.6639424   0.9010006   0.7933713  )
        47           C   tau(  47) = (   0.5588110   0.3950355   0.3866953  )
        48           C   tau(  48) = (   0.7984059   0.6050320   0.7961934  )
        49           C   tau(  49) = (   0.5464825   0.0063120   0.5609265  )
        50           C   tau(  50) = (   0.3058921   0.9922874   0.1490114  )
        51           C   tau(  51) = (   0.9297415   0.4857745   0.5601115  )
        52           C   tau(  52) = (   0.5094807   0.5076495   0.7592274  )
        53           C   tau(  53) = (   0.0464825   0.0063120   0.5609265  )
        54           C   tau(  54) = (   0.8058921   0.9922884   0.1490122  )
        55           C   tau(  55) = (   0.4297415   0.4857745   0.5601115  )
        56           C   tau(  56) = (   0.0094817   0.5076495   0.7592283  )
        57           H   tau(  57) = (   0.2290596   1.0009978   0.3640502  )
        58           H   tau(  58) = (   0.4693669   0.0026958   0.7751545  )
        59           H   tau(  59) = (   0.2505234   0.5016080   0.3691185  )
        60           H   tau(  60) = (   0.3118554   0.6514319   0.4868937  )
        61           H   tau(  61) = (   0.0732386   0.3533532   0.0780726  )
        62           H   tau(  62) = (   0.1594426   0.8563401   0.4835457  )
        63           H   tau(  63) = (   0.4206861   0.1479423   0.0738480  )
        64           H   tau(  64) = (   0.4386511   0.8563902   0.6644572  )
        65           H   tau(  65) = (   0.2006191   0.1433067   0.2536997  )
        66           H   tau(  66) = (   0.0290492   0.6438591   0.6626884  )
        67           H   tau(  67) = (   0.2907535   0.3580349   0.2539083  )
        68           H   tau(  68) = (   0.2157623   0.5059201   0.1439924  )
        69           H   tau(  69) = (   0.7290596   1.0009978   0.3640502  )
        70           H   tau(  70) = (   0.9693669   0.0026958   0.7751545  )
        71           H   tau(  71) = (   0.7505234   0.5016080   0.3691185  )
        72           H   tau(  72) = (   0.8118554   0.6514319   0.4868937  )
        73           H   tau(  73) = (   0.5732386   0.3533532   0.0780726  )
        74           H   tau(  74) = (   0.6594426   0.8563401   0.4835457  )
        75           H   tau(  75) = (   0.9206861   0.1479423   0.0738480  )
        76           H   tau(  76) = (   0.9386511   0.8563902   0.6644572  )
        77           H   tau(  77) = (   0.7006201   0.1433067   0.2536997  )
        78           H   tau(  78) = (   0.5290492   0.6438591   0.6626884  )
        79           H   tau(  79) = (   0.7907535   0.3580349   0.2539083  )
        80           H   tau(  80) = (   0.7157623   0.5059201   0.1439924  )
        81           N   tau(  81) = (   0.2956096   0.8524646   0.5790685  )
        82           N   tau(  82) = (   0.0569790   0.1490689   0.1692870  )
        83           N   tau(  83) = (   0.1736962   0.6512356   0.5798983  )
        84           N   tau(  84) = (   0.4350238   0.3514275   0.1709211  )
        85           N   tau(  85) = (   0.7956096   0.8524646   0.5790685  )
        86           N   tau(  86) = (   0.5569790   0.1490689   0.1692870  )
        87           N   tau(  87) = (   0.6736972   0.6512356   0.5798983  )
        88           N   tau(  88) = (   0.9350238   0.3514275   0.1709211  )
        89           N   tau(  89) = (   0.6317623   0.0352902   0.5822406  )
        90           N   tau(  90) = (   0.3909349   0.9622056   0.1697413  )
        91           N   tau(  91) = (   0.8452806   0.4536858   0.5801957  )
        92           N   tau(  92) = (   0.5652007   0.5360970   0.6910154  )
        93           N   tau(  93) = (   0.1317623   0.0352902   0.5822406  )
        94           N   tau(  94) = (   0.8909349   0.9622076   0.1697413  )
        95           N   tau(  95) = (   0.3452806   0.4536858   0.5801957  )
        96           N   tau(  96) = (   0.0652017   0.5360980   0.6910162  )
        97           Ni  tau(  97) = (   0.2317814   0.7525556   0.6871039  )
        98           Ni  tau(  98) = (   0.4937992   0.2483520   0.2786599  )
        99           Ni  tau(  99) = (   0.7317814   0.7525556   0.6871039  )
       100           Ni  tau( 100) = (   0.9937992   0.2483520   0.2786599  )
       101           O   tau( 101) = (   0.1158100   0.3481839   0.3145586  )
       102           O   tau( 102) = (   0.3551690   0.6519036   0.7240468  )
       103           O   tau( 103) = (   0.3707656   0.1477170   0.3098797  )
       104           O   tau( 104) = (   0.1091506   0.8535652   0.7199135  )
       105           O   tau( 105) = (   0.4642788   0.3566669   0.3968154  )
       106           O   tau( 106) = (   0.2033039   0.6423280   0.8050417  )
       107           O   tau( 107) = (   0.0200847   0.1353504   0.3952413  )
       108           O   tau( 108) = (   0.2588616   0.8639860   0.8046490  )
       109           O   tau( 109) = (   0.6158110   0.3481839   0.3145586  )
       110           O   tau( 110) = (   0.8551690   0.6519036   0.7240468  )
       111           O   tau( 111) = (   0.8707656   0.1477170   0.3098797  )
       112           O   tau( 112) = (   0.6091506   0.8535652   0.7199135  )
       113           O   tau( 113) = (   0.9642788   0.3566669   0.3968154  )
       114           O   tau( 114) = (   0.7033039   0.6423280   0.8050417  )
       115           O   tau( 115) = (   0.5200847   0.1353504   0.3952413  )
       116           O   tau( 116) = (   0.7588616   0.8639860   0.8046490  )

     number of k points=     1  Marzari-Vanderbilt smearing, width (Ry)=  0.2000
                       cart. coord. in units 2pi/alat
        k(    1) = (   0.0000000   0.0000000   0.0000000), wk =   1.0000000

     Dense  grid:   733509 G-vectors     FFT dimensions: ( 160, 160, 125)

     Estimated max dynamical RAM per process >     343.37 MB

     Estimated total dynamical RAM >      10.73 GB
     Generating pointlists ...
     new r_m :   0.0358 (alat units)  0.8461 (a.u.) for type    1
     new r_m :   0.0358 (alat units)  0.8461 (a.u.) for type    2
     new r_m :   0.0382 (alat units)  0.9023 (a.u.) for type    3
     new r_m :   0.0654 (alat units)  1.5454 (a.u.) for type    4
     new r_m :   0.0423 (alat units)  0.9991 (a.u.) for type    5

     Check: negative core charge=   -0.000145

     Initial potential from superposition of free atoms

     starting charge  463.99639, renormalised to  464.00000
     Starting wfcs are  412 randomized atomic wfcs

     total cpu time spent up to now is       46.9 secs

     Self-consistent Calculation

     iteration #  1     ecut=   100.00 Ry     beta= 0.70
     Davidson diagonalization with overlap
     ethr =  1.00E-02,  avg # of iterations =  6.5

     total cpu time spent up to now is      167.8 secs

     total energy              =   -1857.45436781 Ry
     Harris-Foulkes estimate   =   -1866.44541690 Ry
     estimated scf accuracy    <      22.92511212 Ry

     total magnetization       =     8.00 Bohr mag/cell
     absolute magnetization    =     8.82 Bohr mag/cell

     iteration #  2     ecut=   100.00 Ry     beta= 0.70
     Davidson diagonalization with overlap
     ethr =  4.94E-03,  avg # of iterations =  2.0

     total cpu time spent up to now is      239.4 secs

     total energy              =   -1861.41618281 Ry
     Harris-Foulkes estimate   =   -1865.61842479 Ry
     estimated scf accuracy    <      19.78623787 Ry

     total magnetization       =     8.00 Bohr mag/cell
     absolute magnetization    =     8.27 Bohr mag/cell

     iteration #  3     ecut=   100.00 Ry     beta= 0.70
     Davidson diagonalization with overlap
     ethr =  4.26E-03,  avg # of iterations =  1.0

     total cpu time spent up to now is      304.4 secs

     total energy              =   -1860.94375299 Ry
     Harris-Foulkes estimate   =   -1862.17304083 Ry
     estimated scf accuracy    <       4.06734960 Ry

     total magnetization       =     8.00 Bohr mag/cell
     absolute magnetization    =     8.20 Bohr mag/cell

     iteration #  4     ecut=   100.00 Ry     beta= 0.70
     Davidson diagonalization with overlap
     ethr =  8.77E-04,  avg # of iterations =  7.5

     total cpu time spent up to now is      381.8 secs

     total energy              =   -1860.96979387 Ry
     Harris-Foulkes estimate   =   -1862.34427942 Ry
     estimated scf accuracy    <      13.69086772 Ry

     total magnetization       =     8.00 Bohr mag/cell
     absolute magnetization    =     8.26 Bohr mag/cell

     iteration #  5     ecut=   100.00 Ry     beta= 0.70
     Davidson diagonalization with overlap
     ethr =  8.77E-04,  avg # of iterations =  1.5

     total cpu time spent up to now is      447.5 secs

     total energy              =   -1861.51962295 Ry
     Harris-Foulkes estimate   =   -1861.59195524 Ry
     estimated scf accuracy    <       0.26753428 Ry

     total magnetization       =     8.00 Bohr mag/cell
     absolute magnetization    =     8.23 Bohr mag/cell

     iteration #  6     ecut=   100.00 Ry     beta= 0.70
     Davidson diagonalization with overlap
     ethr =  5.77E-05,  avg # of iterations =  5.0

     total cpu time spent up to now is      534.6 secs

     total energy              =   -1861.54958973 Ry
     Harris-Foulkes estimate   =   -1861.59905659 Ry
     estimated scf accuracy    <       1.15777691 Ry

     total magnetization       =     8.00 Bohr mag/cell
     absolute magnetization    =     8.23 Bohr mag/cell

     iteration #  7     ecut=   100.00 Ry     beta= 0.70
     Davidson diagonalization with overlap
     ethr =  5.77E-05,  avg # of iterations =  1.0

     total cpu time spent up to now is      600.3 secs

     total energy              =   -1861.45389632 Ry
     Harris-Foulkes estimate   =   -1861.57211176 Ry
     estimated scf accuracy    <       0.75631594 Ry

     total magnetization       =     8.00 Bohr mag/cell
     absolute magnetization    =     8.23 Bohr mag/cell

     iteration #  8     ecut=   100.00 Ry     beta= 0.70
     Davidson diagonalization with overlap
     ethr =  5.77E-05,  avg # of iterations =  1.5

     total cpu time spent up to now is      666.2 secs

     total energy              =   -1861.50863870 Ry
     Harris-Foulkes estimate   =   -1861.52189672 Ry
     estimated scf accuracy    <       0.15262508 Ry

     total magnetization       =     8.00 Bohr mag/cell
     absolute magnetization    =     8.24 Bohr mag/cell

     iteration #  9     ecut=   100.00 Ry     beta= 0.70
     Davidson diagonalization with overlap
     ethr =  3.29E-05,  avg # of iterations =  2.5

     total cpu time spent up to now is      732.2 secs

     total energy              =   -1861.51450117 Ry
     Harris-Foulkes estimate   =   -1861.51528406 Ry
     estimated scf accuracy    <       0.02456593 Ry

     total magnetization       =     8.00 Bohr mag/cell
     absolute magnetization    =     8.23 Bohr mag/cell

     iteration # 10     ecut=   100.00 Ry     beta= 0.70
     Davidson diagonalization with overlap
     ethr =  5.29E-06,  avg # of iterations =  9.0

     total cpu time spent up to now is      814.0 secs

     total energy              =   -1861.51644307 Ry
     Harris-Foulkes estimate   =   -1861.51887269 Ry
     estimated scf accuracy    <       0.07219342 Ry

     total magnetization       =     8.00 Bohr mag/cell
     absolute magnetization    =     8.22 Bohr mag/cell

     iteration # 11     ecut=   100.00 Ry     beta= 0.70
     Davidson diagonalization with overlap
     ethr =  5.29E-06,  avg # of iterations =  1.0

     total cpu time spent up to now is      879.1 secs

     total energy              =   -1861.51920837 Ry
     Harris-Foulkes estimate   =   -1861.51902823 Ry
     estimated scf accuracy    <       0.01872067 Ry

     total magnetization       =     8.00 Bohr mag/cell
     absolute magnetization    =     8.21 Bohr mag/cell

     iteration # 12     ecut=   100.00 Ry     beta= 0.70
     Davidson diagonalization with overlap
     ethr =  4.03E-06,  avg # of iterations =  2.5

     total cpu time spent up to now is      947.3 secs

     total energy              =   -1861.52096865 Ry
     Harris-Foulkes estimate   =   -1861.52015587 Ry
     estimated scf accuracy    <       0.00238787 Ry

     total magnetization       =     8.00 Bohr mag/cell
     absolute magnetization    =     8.20 Bohr mag/cell

     iteration # 13     ecut=   100.00 Ry     beta= 0.70
     Davidson diagonalization with overlap
     ethr =  5.15E-07,  avg # of iterations = 14.5

     total cpu time spent up to now is     1033.3 secs

     total energy              =   -1861.52122977 Ry
     Harris-Foulkes estimate   =   -1861.52113062 Ry
     estimated scf accuracy    <       0.00148631 Ry

     total magnetization       =     8.00 Bohr mag/cell
     absolute magnetization    =     8.20 Bohr mag/cell

     iteration # 14     ecut=   100.00 Ry     beta= 0.70
     Davidson diagonalization with overlap
     ethr =  3.20E-07,  avg # of iterations =  1.0

     total cpu time spent up to now is     1098.8 secs

     total energy              =   -1861.52142033 Ry
     Harris-Foulkes estimate   =   -1861.52145260 Ry
     estimated scf accuracy    <       0.00366693 Ry

     total magnetization       =     8.00 Bohr mag/cell
     absolute magnetization    =     8.20 Bohr mag/cell

     iteration # 15     ecut=   100.00 Ry     beta= 0.70
     Davidson diagonalization with overlap
     ethr =  3.20E-07,  avg # of iterations =  1.0

     total cpu time spent up to now is     1163.9 secs

     total energy              =   -1861.52162736 Ry
     Harris-Foulkes estimate   =   -1861.52156768 Ry
     estimated scf accuracy    <       0.00052033 Ry

     total magnetization       =     8.00 Bohr mag/cell
     absolute magnetization    =     8.20 Bohr mag/cell

     iteration # 16     ecut=   100.00 Ry     beta= 0.70
     Davidson diagonalization with overlap
     ethr =  1.12E-07,  avg # of iterations =  2.0

     total cpu time spent up to now is     1230.8 secs

     total energy              =   -1861.52165595 Ry
     Harris-Foulkes estimate   =   -1861.52165221 Ry
     estimated scf accuracy    <       0.00022556 Ry

     total magnetization       =     8.00 Bohr mag/cell
     absolute magnetization    =     8.20 Bohr mag/cell

     iteration # 17     ecut=   100.00 Ry     beta= 0.70
     Davidson diagonalization with overlap
     ethr =  4.86E-08,  avg # of iterations =  2.0

     total cpu time spent up to now is     1297.6 secs

     total energy              =   -1861.52166300 Ry
     Harris-Foulkes estimate   =   -1861.52166629 Ry
     estimated scf accuracy    <       0.00009147 Ry

     total magnetization       =     8.00 Bohr mag/cell
     absolute magnetization    =     8.20 Bohr mag/cell

     iteration # 18     ecut=   100.00 Ry     beta= 0.70
     Davidson diagonalization with overlap
     ethr =  1.97E-08,  avg # of iterations =  2.0

     total cpu time spent up to now is     1363.3 secs

     total energy              =   -1861.52166083 Ry
     Harris-Foulkes estimate   =   -1861.52167040 Ry
     estimated scf accuracy    <       0.00016074 Ry

     total magnetization       =     8.00 Bohr mag/cell
     absolute magnetization    =     8.20 Bohr mag/cell

     iteration # 19     ecut=   100.00 Ry     beta= 0.70
     Davidson diagonalization with overlap
     ethr =  1.97E-08,  avg # of iterations =  2.0

     total cpu time spent up to now is     1428.9 secs

     total energy              =   -1861.52166372 Ry
     Harris-Foulkes estimate   =   -1861.52166469 Ry
     estimated scf accuracy    <       0.00003963 Ry

     total magnetization       =     8.00 Bohr mag/cell
     absolute magnetization    =     8.20 Bohr mag/cell

     iteration # 20     ecut=   100.00 Ry     beta= 0.70
     Davidson diagonalization with overlap
     ethr =  8.54E-09,  avg # of iterations =  3.0

     total cpu time spent up to now is     1495.5 secs

     total energy              =   -1861.52166406 Ry
     Harris-Foulkes estimate   =   -1861.52166598 Ry
     estimated scf accuracy    <       0.00003434 Ry

     total magnetization       =     8.00 Bohr mag/cell
     absolute magnetization    =     8.20 Bohr mag/cell

     iteration # 21     ecut=   100.00 Ry     beta= 0.70
     Davidson diagonalization with overlap
     ethr =  7.40E-09,  avg # of iterations =  1.0

     total cpu time spent up to now is     1559.7 secs

     total energy              =   -1861.52166441 Ry
     Harris-Foulkes estimate   =   -1861.52166682 Ry
     estimated scf accuracy    <       0.00003285 Ry

     total magnetization       =     8.00 Bohr mag/cell
     absolute magnetization    =     8.20 Bohr mag/cell

     iteration # 22     ecut=   100.00 Ry     beta= 0.70
     Davidson diagonalization with overlap
     ethr =  7.08E-09,  avg # of iterations =  1.0

     total cpu time spent up to now is     1625.2 secs

     total energy              =   -1861.52166572 Ry
     Harris-Foulkes estimate   =   -1861.52166579 Ry
     estimated scf accuracy    <       0.00000494 Ry

     total magnetization       =     8.00 Bohr mag/cell
     absolute magnetization    =     8.20 Bohr mag/cell

     iteration # 23     ecut=   100.00 Ry     beta= 0.70
     Davidson diagonalization with overlap
     ethr =  1.06E-09,  avg # of iterations =  3.5

     total cpu time spent up to now is     1700.8 secs

     total energy              =   -1861.52166660 Ry
     Harris-Foulkes estimate   =   -1861.52166618 Ry
     estimated scf accuracy    <       0.00000360 Ry

     total magnetization       =     8.00 Bohr mag/cell
     absolute magnetization    =     8.20 Bohr mag/cell

     iteration # 24     ecut=   100.00 Ry     beta= 0.70
     Davidson diagonalization with overlap
     ethr =  7.76E-10,  avg # of iterations =  2.0

     total cpu time spent up to now is     1767.1 secs

     total energy              =   -1861.52166686 Ry
     Harris-Foulkes estimate   =   -1861.52166697 Ry
     estimated scf accuracy    <       0.00000296 Ry

     total magnetization       =     8.00 Bohr mag/cell
     absolute magnetization    =     8.20 Bohr mag/cell

     iteration # 25     ecut=   100.00 Ry     beta= 0.70
     Davidson diagonalization with overlap
     ethr =  6.37E-10,  avg # of iterations =  1.0

     total cpu time spent up to now is     1832.6 secs

     total energy              =   -1861.52166692 Ry
     Harris-Foulkes estimate   =   -1861.52166710 Ry
     estimated scf accuracy    <       0.00000353 Ry

     total magnetization       =     8.00 Bohr mag/cell
     absolute magnetization    =     8.20 Bohr mag/cell

     iteration # 26     ecut=   100.00 Ry     beta= 0.70
     Davidson diagonalization with overlap
     ethr =  6.37E-10,  avg # of iterations =  1.0
 
     Magnetic moment per site:
     atom:    1    charge:    0.8434    magn:    0.0064    constr:    0.0000
     atom:    2    charge:    0.8438    magn:    0.0064    constr:    0.0000
     atom:    3    charge:    0.8464    magn:    0.0053    constr:    0.0000
     atom:    4    charge:    0.8460    magn:    0.0053    constr:    0.0000
     atom:    5    charge:    0.8433    magn:    0.0045    constr:    0.0000
     atom:    6    charge:    0.8446    magn:    0.0046    constr:    0.0000
     atom:    7    charge:    0.8455    magn:    0.0074    constr:    0.0000
     atom:    8    charge:    0.8424    magn:    0.0033    constr:    0.0000
     atom:    9    charge:    0.8333    magn:    0.0028    constr:    0.0000
     atom:   10    charge:    0.8373    magn:    0.0056    constr:    0.0000
     atom:   11    charge:    0.8346    magn:    0.0054    constr:    0.0000
     atom:   12    charge:    0.8346    magn:    0.0055    constr:    0.0000
     atom:   13    charge:    0.8398    magn:    0.0055    constr:    0.0000
     atom:   14    charge:    0.8390    magn:    0.0056    constr:    0.0000
     atom:   15    charge:    0.8528    magn:    0.0013    constr:    0.0000
     atom:   16    charge:    0.8392    magn:    0.0049    constr:    0.0000
     atom:   17    charge:    0.8479    magn:    0.0095    constr:    0.0000
     atom:   18    charge:    0.8457    magn:    0.0050    constr:    0.0000
     atom:   19    charge:    0.8495    magn:    0.0036    constr:    0.0000
     atom:   20    charge:    0.8454    magn:    0.0049    constr:    0.0000
     atom:   21    charge:    0.8218    magn:   -0.0020    constr:    0.0000
     atom:   22    charge:    0.8225    magn:   -0.0018    constr:    0.0000
     atom:   23    charge:    0.8226    magn:   -0.0016    constr:    0.0000
     atom:   24    charge:    0.8230    magn:   -0.0016    constr:    0.0000
     atom:   25    charge:    0.8434    magn:    0.0064    constr:    0.0000
     atom:   26    charge:    0.8438    magn:    0.0064    constr:    0.0000
     atom:   27    charge:    0.8464    magn:    0.0053    constr:    0.0000
     atom:   28    charge:    0.8460    magn:    0.0053    constr:    0.0000
     atom:   29    charge:    0.8433    magn:    0.0045    constr:    0.0000
     atom:   30    charge:    0.8446    magn:    0.0046    constr:    0.0000
     atom:   31    charge:    0.8455    magn:    0.0074    constr:    0.0000
     atom:   32    charge:    0.8424    magn:    0.0033    constr:    0.0000
     atom:   33    charge:    0.8333    magn:    0.0028    constr:    0.0000
     atom:   34    charge:    0.8373    magn:    0.0056    constr:    0.0000
     atom:   35    charge:    0.8346    magn:    0.0054    constr:    0.0000
     atom:   36    charge:    0.8346    magn:    0.0055    constr:    0.0000
     atom:   37    charge:    0.8398    magn:    0.0055    constr:    0.0000
     atom:   38    charge:    0.8390    magn:    0.0056    constr:    0.0000
     atom:   39    charge:    0.8528    magn:    0.0013    constr:    0.0000
     atom:   40    charge:    0.8392    magn:    0.0049    constr:    0.0000
     atom:   41    charge:    0.8479    magn:    0.0095    constr:    0.0000
     atom:   42    charge:    0.8457    magn:    0.0050    constr:    0.0000
     atom:   43    charge:    0.8495    magn:    0.0036    constr:    0.0000
     atom:   44    charge:    0.8454    magn:    0.0049    constr:    0.0000
     atom:   45    charge:    0.8218    magn:   -0.0020    constr:    0.0000
     atom:   46    charge:    0.8225    magn:   -0.0018    constr:    0.0000
     atom:   47    charge:    0.8226    magn:   -0.0016    constr:    0.0000
     atom:   48    charge:    0.8230    magn:   -0.0016    constr:    0.0000
     atom:   49    charge:    0.8814    magn:    0.0047    constr:    0.0000
     atom:   50    charge:    0.8835    magn:    0.0046    constr:    0.0000
     atom:   51    charge:    0.8865    magn:    0.0041    constr:    0.0000
     atom:   52    charge:    0.8652    magn:    0.0054    constr:    0.0000
     atom:   53    charge:    0.8814    magn:    0.0047    constr:    0.0000
     atom:   54    charge:    0.8835    magn:    0.0046    constr:    0.0000
     atom:   55    charge:    0.8865    magn:    0.0041    constr:    0.0000
     atom:   56    charge:    0.8652    magn:    0.0054    constr:    0.0000
     atom:   57    charge:    0.4877    magn:   -0.0013    constr:    0.0000
     atom:   58    charge:    0.4872    magn:   -0.0013    constr:    0.0000
     atom:   59    charge:    0.4854    magn:   -0.0015    constr:    0.0000
     atom:   60    charge:    0.4903    magn:   -0.0008    constr:    0.0000
     atom:   61    charge:    0.4875    magn:   -0.0010    constr:    0.0000
     atom:   62    charge:    0.4920    magn:   -0.0006    constr:    0.0000
     atom:   63    charge:    0.4923    magn:   -0.0006    constr:    0.0000
     atom:   64    charge:    0.4854    magn:   -0.0008    constr:    0.0000
     atom:   65    charge:    0.4846    magn:   -0.0008    constr:    0.0000
     atom:   66    charge:    0.4749    magn:    0.0033    constr:    0.0000
     atom:   67    charge:    0.4870    magn:   -0.0008    constr:    0.0000
     atom:   68    charge:    0.4866    magn:   -0.0014    constr:    0.0000
     atom:   69    charge:    0.4877    magn:   -0.0013    constr:    0.0000
     atom:   70    charge:    0.4872    magn:   -0.0013    constr:    0.0000
     atom:   71    charge:    0.4854    magn:   -0.0015    constr:    0.0000
     atom:   72    charge:    0.4903    magn:   -0.0008    constr:    0.0000
     atom:   73    charge:    0.4875    magn:   -0.0010    constr:    0.0000
     atom:   74    charge:    0.4920    magn:   -0.0006    constr:    0.0000
     atom:   75    charge:    0.4923    magn:   -0.0006    constr:    0.0000
     atom:   76    charge:    0.4854    magn:   -0.0008    constr:    0.0000
     atom:   77    charge:    0.4846    magn:   -0.0008    constr:    0.0000
     atom:   78    charge:    0.4749    magn:    0.0033    constr:    0.0000
     atom:   79    charge:    0.4870    magn:   -0.0008    constr:    0.0000
     atom:   80    charge:    0.4866    magn:   -0.0014    constr:    0.0000
     atom:   81    charge:    1.7815    magn:    0.0105    constr:    0.0000
     atom:   82    charge:    1.7808    magn:    0.0103    constr:    0.0000
     atom:   83    charge:    1.7909    magn:    0.0179    constr:    0.0000
     atom:   84    charge:    1.7800    magn:    0.0094    constr:    0.0000
     atom:   85    charge:    1.7815    magn:    0.0105    constr:    0.0000
     atom:   86    charge:    1.7808    magn:    0.0103    constr:    0.0000
     atom:   87    charge:    1.7909    magn:    0.0179    constr:    0.0000
     atom:   88    charge:    1.7800    magn:    0.0095    constr:    0.0000
     atom:   89    charge:    1.7711    magn:    0.0337    constr:    0.0000
     atom:   90    charge:    1.7701    magn:    0.0336    constr:    0.0000
     atom:   91    charge:    1.7705    magn:    0.0311    constr:    0.0000
     atom:   92    charge:    1.8368    magn:    0.0130    constr:    0.0000
     atom:   93    charge:    1.7711    magn:    0.0337    constr:    0.0000
     atom:   94    charge:    1.7701    magn:    0.0336    constr:    0.0000
     atom:   95    charge:    1.7705    magn:    0.0311    constr:    0.0000
     atom:   96    charge:    1.8368    magn:    0.0130    constr:    0.0000
     atom:   97    charge:    7.4334    magn:    1.0759    constr:    0.0000
     atom:   98    charge:    7.4301    magn:    1.0830    constr:    0.0000
     atom:   99    charge:    7.4332    magn:    1.0760    constr:    0.0000
     atom:  100    charge:    7.4309    magn:    1.0828    constr:    0.0000
     atom:  101    charge:    3.2580    magn:    0.0542    constr:    0.0000
     atom:  102    charge:    3.2593    magn:    0.0524    constr:    0.0000
     atom:  103    charge:    3.2570    magn:    0.0593    constr:    0.0000
     atom:  104    charge:    3.2550    magn:    0.0584    constr:    0.0000
     atom:  105    charge:    3.2543    magn:    0.0562    constr:    0.0000
     atom:  106    charge:    3.2595    magn:    0.0557    constr:    0.0000
     atom:  107    charge:    3.2553    magn:    0.0593    constr:    0.0000
     atom:  108    charge:    3.2535    magn:    0.0580    constr:    0.0000
     atom:  109    charge:    3.2580    magn:    0.0542    constr:    0.0000
     atom:  110    charge:    3.2593    magn:    0.0524    constr:    0.0000
     atom:  111    charge:    3.2569    magn:    0.0593    constr:    0.0000
     atom:  112    charge:    3.2550    magn:    0.0584    constr:    0.0000
     atom:  113    charge:    3.2543    magn:    0.0562    constr:    0.0000
     atom:  114    charge:    3.2594    magn:    0.0557    constr:    0.0000
     atom:  115    charge:    3.2554    magn:    0.0593    constr:    0.0000
     atom:  116    charge:    3.2534    magn:    0.0580    constr:    0.0000

     total cpu time spent up to now is     1896.8 secs

     End of self-consistent calculation

 ------ SPIN UP ------------


          k = 0.0000 0.0000 0.0000 ( 91663 PWs)   bands (ev):

   -21.8311 -21.8202 -21.8136 -21.8122 -21.6958 -21.6914 -21.6753 -21.6752
   -20.5474 -20.5235 -18.8318 -18.8167 -18.8003 -18.7982 -18.7738 -18.7718
   -18.7581 -18.7527 -18.6614 -18.6454 -18.5645 -18.5459 -18.5077 -18.4896
   -18.4735 -18.4635 -16.5981 -16.5760 -16.5741 -16.5481 -16.5281 -16.4998
   -15.6009 -15.5882 -15.3079 -15.3034 -15.0195 -15.0150 -15.0081 -14.9806
   -14.7666 -14.7615 -13.9133 -13.8902 -13.8080 -13.7504 -13.7118 -13.6939
   -12.0860 -12.0702 -11.7784 -11.7694 -11.3604 -11.3562 -11.2434 -11.2355
   -11.2233 -11.1989 -10.9851 -10.9410 -10.7898 -10.7674 -10.7494 -10.7420
   -10.0675 -10.0420  -9.0457  -8.9858  -8.8790  -8.8251  -8.7951  -8.7701
    -8.7267  -8.7042  -8.0281  -8.0234  -7.8524  -7.8395  -7.7000  -7.6484
    -7.6477  -7.6292  -7.4441  -7.4129  -7.2971  -7.2551  -7.1680  -7.1505
    -7.0484  -7.0297  -7.0270  -7.0204  -6.8720  -6.8421  -6.6960  -6.6415
    -6.6155  -6.4189  -6.4144  -6.3817  -6.2052  -6.1583  -6.1293  -6.0604
    -6.0342  -6.0026  -5.9831  -5.9531  -5.9024  -5.8746  -5.8373  -5.8286
    -5.7615  -5.7244  -5.6878  -5.6595  -5.6454  -5.6150  -5.5723  -5.5369
    -5.5063  -5.4155  -5.3688  -5.2929  -5.2616  -5.2083  -5.1631  -5.0489
    -5.0377  -5.0285  -4.9971  -4.8444  -4.8395  -4.8017  -4.7992  -4.7728
    -4.6350  -4.4734  -4.3590  -4.2997  -4.1318  -4.0687  -4.0429  -4.0116
    -3.9733  -3.8691  -3.8593  -3.8048  -3.7705  -3.7229  -3.6766  -3.6288
    -3.5559  -3.4513  -3.4209  -3.3982  -3.3705  -3.3013  -3.2841  -3.2364
    -3.1207  -3.0520  -3.0284  -2.9698  -2.9645  -2.8899  -2.8787  -2.8662
    -2.8450  -2.7838  -2.7365  -2.7086  -2.6202  -2.6187  -2.5676  -2.5496
    -2.5392  -2.4895  -2.4778  -2.4644  -2.4274  -2.4207  -2.3740  -2.3157
    -2.3065  -2.2232  -2.2143  -2.1780  -2.1679  -2.0861  -2.0816  -2.0594
    -1.9708  -1.9614  -1.9313  -1.8741  -1.8154  -1.8081  -1.7648  -1.7246
    -1.7202  -1.6326  -1.6323  -1.6243  -1.5526  -1.5483  -1.5314  -1.4982
    -1.4881  -1.4531  -1.4192  -1.3562  -1.3542  -1.2850  -1.2776  -1.2657
    -1.2516  -1.2138  -1.1927  -1.1492  -1.0555  -1.0077  -0.9960  -0.9943
    -0.4118  -0.2778   0.3485   0.4180   0.4725   0.4888   0.5613   0.7393
     0.7766   0.7867   0.8150   0.8311   1.9298   2.1617   2.4028   2.4396
     2.5380   2.6277   2.7502   2.7550   3.1369   3.2081   3.2718   3.3998
     3.4596   3.4934   3.5639   3.5698   4.5365   4.6071   4.6956   5.0406
     5.0707   5.1401   5.1837   5.1998   5.2624   5.2930   5.4114   5.4257
     5.5364   5.6020   5.6033   5.7741   5.7903   5.7945   5.8252   5.8899
     5.9773   6.0350   6.1240   6.1374   6.2614   6.2900   6.3670   6.4322
     6.4886   6.5306   6.5677

 ------ SPIN DOWN ----------


          k = 0.0000 0.0000 0.0000 ( 91663 PWs)   bands (ev):

   -21.7288 -21.7171 -21.7088 -21.7075 -21.5913 -21.5869 -21.5685 -21.5683
   -20.5094 -20.4851 -18.7191 -18.6891 -18.6691 -18.6683 -18.6430 -18.6367
   -18.6230 -18.6197 -18.6059 -18.6051 -18.5279 -18.5029 -18.4712 -18.4527
   -18.4368 -18.4229 -16.5172 -16.4933 -16.4828 -16.4567 -16.4366 -16.4074
   -15.5568 -15.5420 -15.2673 -15.2636 -14.9773 -14.9722 -14.9660 -14.9382
   -14.7332 -14.7285 -13.8793 -13.8558 -13.7691 -13.7113 -13.6706 -13.6525
   -12.0439 -12.0280 -11.7436 -11.7343 -11.3255 -11.3211 -11.2061 -11.1972
   -11.1855 -11.1608 -10.9537 -10.9090 -10.7567 -10.7343 -10.7164 -10.7090
   -10.0347 -10.0086  -9.0199  -8.9588  -8.8474  -8.7955  -8.7674  -8.7416
    -8.6914  -8.6688  -7.9829  -7.9798  -7.8042  -7.7945  -7.6542  -7.5999
    -7.5985  -7.5807  -7.3997  -7.3662  -7.2477  -7.2102  -7.1270  -7.1113
    -7.0059  -6.9919  -6.9850  -6.9807  -6.8264  -6.7932  -6.6398  -6.5813
    -6.5497  -6.3567  -6.3483  -6.3085  -6.1063  -6.0468  -6.0253  -5.9842
    -5.9470  -5.8966  -5.8709  -5.8412  -5.8019  -5.7524  -5.7433  -5.7188
    -5.6463  -5.6182  -5.6012  -5.5489  -5.5396  -5.4745  -5.4685  -5.4338
    -5.4173  -5.3332  -5.3071  -5.2063  -5.1825  -5.1710  -5.1235  -4.9895
    -4.9777  -4.9740  -4.9335  -4.7662  -4.7659  -4.7602  -4.7271  -4.6878
    -4.5587  -4.3892  -4.3204  -4.2438  -4.0265  -3.9584  -3.9356  -3.9012
    -3.7739  -3.7477  -3.7122  -3.6919  -3.6707  -3.5833  -3.5356  -3.4851
    -3.4513  -3.3651  -3.2290  -3.1696  -3.0661  -3.0637  -2.9778  -2.9739
    -2.8966  -2.8414  -2.8360  -2.8266  -2.7762  -2.7639  -2.7527  -2.7377
    -2.6309  -2.5651  -2.4747  -2.4740  -2.4224  -2.4066  -2.3696  -2.3637
    -2.3204  -2.2903  -2.2868  -2.1679  -2.1426  -2.1309  -2.0810  -2.0307
    -2.0043  -1.9610  -1.9530  -1.8826  -1.8374  -1.7867  -1.7511  -1.7271
    -1.7132  -1.7113  -1.6917  -1.6229  -1.5600  -1.5397  -1.4942  -1.4803
    -1.4089  -1.3877  -1.3152  -1.2921  -1.2252  -1.2036  -1.1529  -1.1363
    -1.1225  -1.1190  -1.0733  -0.9517  -0.8563  -0.7368  -0.6765  -0.5737
    -0.5596  -0.5497  -0.5329  -0.5297  -0.4890  -0.4308  -0.4075  -0.3942
    -0.2653  -0.1648   0.5098   0.9301   1.1569   1.2171   1.2301   1.2941
     1.4275   1.4637   1.4728   1.4922   2.0358   2.2639   2.4991   2.5537
     2.6338   2.7255   2.8584   2.8647   3.2166   3.2880   3.3490   3.4723
     3.5460   3.5860   3.6548   3.6608   4.5878   4.6813   4.7521   5.1058
     5.1279   5.1922   5.2464   5.2727   5.3389   5.3665   5.4734   5.4864
     5.5767   5.6617   5.6640   5.8440   5.8619   5.8685   5.8935   5.9615
     6.0179   6.0744   6.1845   6.1854   6.3292   6.3454   6.4345   6.4900
     6.5500   6.6026   6.6319

     the spin up/dw Fermi energies are     0.9695    0.6448 ev

!    total energy              =   -1861.52166678 Ry
     Harris-Foulkes estimate   =   -1861.52166710 Ry
     estimated scf accuracy    <       0.00000070 Ry

     The total energy is the sum of the following terms:

     one-electron contribution =   -2516.38033257 Ry
     hartree contribution      =    1429.89218208 Ry
     xc contribution           =    -554.18754021 Ry
     ewald contribution        =    -223.46195829 Ry
     Dispersion Correction     =      -0.55997670 Ry
     smearing contrib. (-TS)   =       3.17595889 Ry

     total magnetization       =     8.00 Bohr mag/cell
     absolute magnetization    =     8.20 Bohr mag/cell

     convergence has been achieved in  26 iterations

     Forces acting on atoms (cartesian axes, Ry/au):

     atom    1 type  1   force =     0.01296815    0.00531973   -0.00180875
     atom    2 type  1   force =     0.01211998   -0.00552443   -0.00079034
     atom    3 type  1   force =    -0.01090129    0.01725490   -0.02627164
     atom    4 type  1   force =    -0.01009059   -0.01720016   -0.02590424
     atom    5 type  1   force =     0.05519387    0.01217805    0.01767488
     atom    6 type  1   force =     0.05362871   -0.01276953    0.01611978
     atom    7 type  1   force =    -0.00706694   -0.00567602   -0.00035542
     atom    8 type  1   force =     0.05398644    0.00704153   -0.04883692
     atom    9 type  1   force =    -0.02501437    0.01725890    0.02844819
     atom   10 type  1   force =     0.00222264   -0.01722780    0.02081380
     atom   11 type  1   force =    -0.00376858   -0.00238726    0.00821946
     atom   12 type  1   force =    -0.00318127    0.00344454    0.00780061
     atom   13 type  1   force =    -0.01941106   -0.02016159    0.01210617
     atom   14 type  1   force =    -0.01778783    0.02008841    0.01327584
     atom   15 type  1   force =     0.01333887    0.00328060    0.07106418
     atom   16 type  1   force =    -0.00844681    0.00343938   -0.00036011
     atom   17 type  1   force =    -0.12364427   -0.06771328   -0.14158809
     atom   18 type  1   force =     0.01679388   -0.00879126   -0.00561740
     atom   19 type  1   force =    -0.00071004   -0.01308897   -0.01488174
     atom   20 type  1   force =    -0.03349222    0.02702828   -0.00704674
     atom   21 type  1   force =    -0.00183465    0.00024427   -0.00177355
     atom   22 type  1   force =    -0.00015460    0.00184455   -0.00017252
     atom   23 type  1   force =     0.00020128   -0.00587459    0.00133100
     atom   24 type  1   force =    -0.00064678    0.00200583   -0.00241435
     atom   25 type  1   force =     0.01296705    0.00531875   -0.00180875
     atom   26 type  1   force =     0.01211812   -0.00552379   -0.00078997
     atom   27 type  1   force =    -0.01090187    0.01725529   -0.02627134
     atom   28 type  1   force =    -0.01009026   -0.01719913   -0.02590274
     atom   29 type  1   force =     0.05519429    0.01217653    0.01767508
     atom   30 type  1   force =     0.05362165   -0.01276522    0.01612360
     atom   31 type  1   force =    -0.00709598   -0.00568381   -0.00034802
     atom   32 type  1   force =     0.05396379    0.00704929   -0.04883183
     atom   33 type  1   force =    -0.02499884    0.01726148    0.02844352
     atom   34 type  1   force =     0.00222661   -0.01723325    0.02081835
     atom   35 type  1   force =    -0.00376878   -0.00238756    0.00821867
     atom   36 type  1   force =    -0.00318320    0.00344079    0.00779523
     atom   37 type  1   force =    -0.01940918   -0.02016101    0.01210687
     atom   38 type  1   force =    -0.01775503    0.02008566    0.01328838
     atom   39 type  1   force =     0.01334978    0.00328715    0.07106559
     atom   40 type  1   force =    -0.00844444    0.00343780   -0.00035999
     atom   41 type  1   force =    -0.12364166   -0.06771122   -0.14159231
     atom   42 type  1   force =     0.01679484   -0.00879108   -0.00561862
     atom   43 type  1   force =    -0.00070180   -0.01308622   -0.01488443
     atom   44 type  1   force =    -0.03348041    0.02702344   -0.00704900
     atom   45 type  1   force =    -0.00184375    0.00022912   -0.00176319
     atom   46 type  1   force =    -0.00016758    0.00186312   -0.00015639
     atom   47 type  1   force =     0.00024388   -0.00586192    0.00132834
     atom   48 type  1   force =    -0.00063864    0.00199063   -0.00240594
     atom   49 type  1   force =    -0.11616027   -0.02375002   -0.03182210
     atom   50 type  1   force =    -0.11356010    0.02665468   -0.03097837
     atom   51 type  1   force =     0.08836550    0.02568777   -0.05712602
     atom   52 type  1   force =    -0.08922729   -0.05133050    0.11874869
     atom   53 type  1   force =    -0.11615998   -0.02374961   -0.03182265
     atom   54 type  1   force =    -0.11358774    0.02666211   -0.03098854
     atom   55 type  1   force =     0.08836389    0.02568727   -0.05712783
     atom   56 type  1   force =    -0.08921442   -0.05132239    0.11872883
     atom   57 type  2   force =     0.00303139    0.00052872    0.00217594
     atom   58 type  2   force =     0.00353290   -0.00028487    0.00223122
     atom   59 type  2   force =    -0.00296536   -0.00270285    0.00088507
     atom   60 type  2   force =    -0.00518087    0.00321456    0.00077184
     atom   61 type  2   force =     0.00107380   -0.00007509   -0.00118430
     atom   62 type  2   force =     0.00712399   -0.00342165   -0.00334931
     atom   63 type  2   force =     0.00609666    0.00149512   -0.00234909
     atom   64 type  2   force =     0.00101893    0.00167084    0.00073759
     atom   65 type  2   force =     0.00057779   -0.00172994   -0.00023929
     atom   66 type  2   force =    -0.06818787    0.13950597   -0.06035435
     atom   67 type  2   force =     0.00137993    0.00021472   -0.00021875
     atom   68 type  2   force =     0.00039293    0.00353012   -0.00427804
     atom   69 type  2   force =     0.00303144    0.00052870    0.00217604
     atom   70 type  2   force =     0.00353268   -0.00028503    0.00223104
     atom   71 type  2   force =    -0.00295777   -0.00270505    0.00087873
     atom   72 type  2   force =    -0.00518068    0.00321444    0.00077133
     atom   73 type  2   force =     0.00107367   -0.00007414   -0.00118509
     atom   74 type  2   force =     0.00712417   -0.00342146   -0.00334941
     atom   75 type  2   force =     0.00609688    0.00149527   -0.00234919
     atom   76 type  2   force =     0.00101864    0.00167113    0.00073715
     atom   77 type  2   force =     0.00056606   -0.00173478   -0.00025037
     atom   78 type  2   force =    -0.06818491    0.13950677   -0.06035603
     atom   79 type  2   force =     0.00137998    0.00021450   -0.00021854
     atom   80 type  2   force =     0.00039286    0.00353013   -0.00427817
     atom   81 type  3   force =     0.01398721   -0.00410786    0.00299520
     atom   82 type  3   force =     0.01247559    0.00265312    0.00119058
     atom   83 type  3   force =     0.08842817    0.04109029   -0.03091519
     atom   84 type  3   force =     0.00794048    0.00031772   -0.00805450
     atom   85 type  3   force =     0.01398569   -0.00410936    0.00299731
     atom   86 type  3   force =     0.01246163    0.00265998    0.00119424
     atom   87 type  3   force =     0.08840421    0.04108317   -0.03090280
     atom   88 type  3   force =     0.00793695    0.00032170   -0.00805778
     atom   89 type  3   force =     0.06097119    0.02126299    0.02038919
     atom   90 type  3   force =     0.06070694   -0.02151389    0.01995519
     atom   91 type  3   force =    -0.05251733   -0.01822087    0.01979857
     atom   92 type  3   force =     0.11803868   -0.08982974    0.10927722
     atom   93 type  3   force =     0.06097022    0.02126383    0.02039003
     atom   94 type  3   force =     0.06073468   -0.02152338    0.01996149
     atom   95 type  3   force =    -0.05251869   -0.01822104    0.01979809
     atom   96 type  3   force =     0.11802474   -0.08983547    0.10928705
     atom   97 type  4   force =     0.01068493    0.00015421   -0.00355852
     atom   98 type  4   force =     0.00104091   -0.00238977    0.00638746
     atom   99 type  4   force =     0.01068202    0.00015925   -0.00356730
     atom  100 type  4   force =     0.00103403   -0.00239466    0.00639003
     atom  101 type  5   force =     0.00039180    0.00440557    0.00167517
     atom  102 type  5   force =     0.01324030   -0.00007640    0.00494599
     atom  103 type  5   force =     0.00083515    0.00548919    0.00580575
     atom  104 type  5   force =    -0.00222637   -0.00803235    0.00516831
     atom  105 type  5   force =     0.00184218    0.00153400   -0.00404933
     atom  106 type  5   force =     0.00311423    0.00400747    0.00567813
     atom  107 type  5   force =    -0.00545862   -0.00054527   -0.00507389
     atom  108 type  5   force =    -0.00508565    0.00057846   -0.00428400
     atom  109 type  5   force =     0.00036807    0.00439828    0.00167677
     atom  110 type  5   force =     0.01324318   -0.00007049    0.00493293
     atom  111 type  5   force =     0.00081423    0.00549286    0.00579116
     atom  112 type  5   force =    -0.00223352   -0.00804458    0.00514895
     atom  113 type  5   force =     0.00186365    0.00155164   -0.00404348
     atom  114 type  5   force =     0.00309606    0.00401754    0.00567375
     atom  115 type  5   force =    -0.00548389   -0.00054720   -0.00508094
     atom  116 type  5   force =    -0.00506096    0.00056669   -0.00428208

     Total force =     0.662686     Total SCF correction =     0.001770

     BFGS Geometry Optimization

     number of scf cycles    =   1
     number of bfgs steps    =   0

     energy   new            =   -1861.5216667846 Ry

     new trust radius        =       0.1998010310 bohr
     new conv_thr            =       0.0000010000 Ry


ATOMIC_POSITIONS (crystal)
C             0.2887590547        0.9702747857        0.5218908400
C             0.0388911188        0.0308725648        0.0222672935
C             0.3901480835        0.0124991073        0.5451388782
C             0.1397927328        0.9870172059        0.0448118008
C             0.4542671083        0.9707165845        0.6512813453
C             0.2048044206        0.0278134227        0.1507232497
C             0.2078816275        0.5294641594        0.5263656939
C             0.4607836704        0.4717065405        0.0253886524
C             0.2441051774        0.6140602763        0.6079002253
C             0.4969325615        0.3879490378        0.1096890156
C             0.2493242362        0.8891051262        0.6036263437
C             0.0009416958        0.1123775492        0.1046487710
C             0.4071669645        0.8885310705        0.7281755290
C             0.1591947483        0.1103958373        0.2284957728
C             0.0894930499        0.6091216218        0.7310121640
C             0.3405322340        0.3917783314        0.2293754523
C             0.0415602465        0.5222177703        0.6440194990
C             0.2983633713        0.4743395248        0.1524646757
C             0.1081200051        0.4837169245        0.5493495151
C             0.3564081641        0.5167980821        0.0502750575
C             0.4332307039        0.0993293218        0.4665296531
C             0.1815102964        0.8997979418        0.9656631142
C             0.0673877650        0.3942257687        0.4707445531
C             0.3160133682        0.6042567565        0.9689826489
C             0.7887590082        0.9702747441        0.5218908403
C             0.5388910405        0.0308725916        0.0222673124
C             0.8901480593        0.0124991237        0.5451388935
C             0.6397927484        0.9870172494        0.0448118781
C             0.9542671263        0.9707165200        0.6512813559
C             0.7048041257        0.0278136046        0.1507234466
C             0.7078814057        0.5294638302        0.5263660753
C             0.9607837169        0.4717068684        0.0253889145
C             0.7441058303        0.6140603850        0.6078999847
C             0.9969327340        0.3879488078        0.1096892499
C             0.7493242269        0.8891051135        0.6036263028
C             0.5009416092        0.1123773909        0.1046484938
C             0.9071670448        0.8885310948        0.7281755648
C             0.6591951481        0.1103957211        0.2284964187
C             0.5894935129        0.6091218990        0.7310122365
C             0.8405323343        0.3917782644        0.2293754585
C             0.5415603530        0.5222178575        0.6440192817
C             0.7983634106        0.4743395324        0.1524646126
C             0.6081203511        0.4837170409        0.5493493769
C             0.8564086616        0.5167978775        0.0502749409
C             0.9332303287        0.0993286814        0.4665301870
C             0.6815097621        0.8997987262        0.9656639450
C             0.5673885650        0.3942263041        0.4707444160
C             0.8160137208        0.6042561141        0.9689830821
C             0.5539628240        0.0052994409        0.6811070014
C             0.3043586417        0.9920032956        0.1797774577
C             0.9458346580        0.4861694387        0.6788117216
C             0.5226346378        0.5047590257        0.9302291564
C             0.0539628355        0.0052994584        0.6811069729
C             0.8043574624        0.9920046094        0.1797779336
C             0.4458345881        0.4861694174        0.6788116286
C             0.0226361638        0.5047593687        0.9302291339
H             0.2372543138        0.9995973412        0.4432250719
H             0.4866895870        0.0026799629        0.9436139191
H             0.2585753498        0.5007807910        0.4493275854
H             0.3224224940        0.6506418317        0.5926747537
H             0.0750123279        0.3528478270        0.0949670028
H             0.1704523138        0.8549784181        0.5883874936
H             0.4225777795        0.1477951763        0.0897650101
H             0.4534138074        0.8552436016        0.8087989895
H             0.2062632248        0.1430299014        0.3087846755
H             0.0407870416        0.6488388352        0.8034994467
H             0.2964361868        0.3575350732        0.3090397334
H             0.2189646168        0.5053501653        0.1750436593
H             0.7372543157        0.9995973401        0.4432250771
H             0.9866895776        0.0026799558        0.9436139099
H             0.7585756649        0.5007806980        0.4493272590
H             0.8224225015        0.6506418263        0.5926747273
H             0.5750123217        0.3528478674        0.0949669620
H             0.6704523213        0.8549784259        0.5883874884
H             0.9225777888        0.1477951829        0.0897650046
H             0.9534137950        0.8552436135        0.8087989672
H             0.7062637181        0.1430296966        0.3087841048
H             0.5407871651        0.6488388691        0.8034993597
H             0.7964361894        0.3575350638        0.3090397441
H             0.7189646138        0.5053501660        0.1750436526
N             0.3090316794        0.8510794220        0.7049822680
N             0.0612580234        0.1489691080        0.2061133206
N             0.1902548787        0.6520462735        0.7042457115
N             0.4391384530        0.3509414252        0.2076261528
N             0.8090316170        0.8510793588        0.7049823768
N             0.5612574361        0.1489693974        0.2061135094
N             0.6902548766        0.6520459725        0.7042463498
N             0.9391383008        0.3509415934        0.2076259837
N             0.6472591214        0.0361384693        0.7097391459
N             0.3972825325        0.9599289291        0.2076327929
N             0.8559292759        0.4522710757        0.7072197263
N             0.5856052646        0.5315392374        0.8467153283
N             0.1472590809        0.0361385047        0.7097391894
N             0.8972837122        0.9599305281        0.2076331176
N             0.3559292182        0.4522710684        0.7072197016
N             0.0856056841        0.5315399955        0.8467168345
Ni            0.2474507995        0.7514925160        0.8361427183
Ni            0.5000220336        0.2478980201        0.3395069866
Ni            0.7474506681        0.7514927291        0.8361422662
Ni            1.0000217450        0.2478978135        0.3395071190
O             0.1227961491        0.3478751576        0.3829592798
O             0.3717729026        0.6509737716        0.8815467436
O             0.3776707818        0.1477389463        0.3774770256
O             0.1250086351        0.8520125923        0.8765271940
O             0.4731431564        0.3562248192        0.4827854392
O             0.2212741016        0.6415843358        0.9801694525
O             0.0286042613        0.1351349594        0.4808166689
O             0.2764667840        0.8627824429        0.9791783524
O             0.6227961467        0.3478748495        0.3829593621
O             0.8717730119        0.6509740213        0.8815460709
O             0.8776698826        0.1477391014        0.3774762741
O             0.6250083145        0.8520120756        0.8765261968
O             0.9731440707        0.3562255645        0.4827857406
O             0.7212733289        0.6415847615        0.9801692269
O             0.5286031852        0.1351348780        0.4808163059
O             0.7764678305        0.8627819455        0.9791784511



     Writing output data file /nfs/hpc/share/gantzlen/NiPyC2_relax_sc211_meta_functionalized_C-N_pbesol_relax.save/
     NEW-OLD atomic charge density approx. for the potential

     Check: negative core charge=   -0.000145

     total cpu time spent up to now is     1923.1 secs

     Self-consistent Calculation

     iteration #  1     ecut=   100.00 Ry     beta= 0.70
     Davidson diagonalization with overlap
     ethr =  1.00E-06,  avg # of iterations = 11.5

     total cpu time spent up to now is     2269.0 secs

     total energy              =   -1861.35784218 Ry
     Harris-Foulkes estimate   =   -1861.72579769 Ry
     estimated scf accuracy    <       1.07043129 Ry

     total magnetization       =     8.00 Bohr mag/cell
     absolute magnetization    =     8.20 Bohr mag/cell

     iteration #  2     ecut=   100.00 Ry     beta= 0.70
     Davidson diagonalization with overlap
     ethr =  2.31E-04,  avg # of iterations =  2.0

     total cpu time spent up to now is     2342.6 secs

     total energy              =   -1861.39327909 Ry
     Harris-Foulkes estimate   =   -1861.66467883 Ry
     estimated scf accuracy    <       1.60708332 Ry

     total magnetization       =     8.00 Bohr mag/cell
     absolute magnetization    =     8.20 Bohr mag/cell

     iteration #  3     ecut=   100.00 Ry     beta= 0.70
     Davidson diagonalization with overlap
     ethr =  2.31E-04,  avg # of iterations =  1.0

     total cpu time spent up to now is     2408.0 secs

     total energy              =   -1861.51019559 Ry
     Harris-Foulkes estimate   =   -1861.61168494 Ry
     estimated scf accuracy    <       0.80783672 Ry

     total magnetization       =     8.00 Bohr mag/cell
     absolute magnetization    =     8.18 Bohr mag/cell

     iteration #  4     ecut=   100.00 Ry     beta= 0.70
     Davidson diagonalization with overlap
     ethr =  1.74E-04,  avg # of iterations =  1.0

     total cpu time spent up to now is     2473.6 secs

     total energy              =   -1861.55803189 Ry
     Harris-Foulkes estimate   =   -1861.56215569 Ry
     estimated scf accuracy    <       0.01505371 Ry

     total magnetization       =     8.00 Bohr mag/cell
     absolute magnetization    =     8.19 Bohr mag/cell

     iteration #  5     ecut=   100.00 Ry     beta= 0.70
     Davidson diagonalization with overlap
     ethr =  3.24E-06,  avg # of iterations =  5.5

     total cpu time spent up to now is     2549.8 secs

     total energy              =   -1861.55832552 Ry
     Harris-Foulkes estimate   =   -1861.56088591 Ry
     estimated scf accuracy    <       0.02946381 Ry

     total magnetization       =     8.00 Bohr mag/cell
     absolute magnetization    =     8.19 Bohr mag/cell

     iteration #  6     ecut=   100.00 Ry     beta= 0.70
     Davidson diagonalization with overlap
     ethr =  3.24E-06,  avg # of iterations =  1.5

     total cpu time spent up to now is     2615.6 secs

     total energy              =   -1861.55954515 Ry
     Harris-Foulkes estimate   =   -1861.56001224 Ry
     estimated scf accuracy    <       0.00428833 Ry

     total magnetization       =     8.00 Bohr mag/cell
     absolute magnetization    =     8.19 Bohr mag/cell

     iteration #  7     ecut=   100.00 Ry     beta= 0.70
     Davidson diagonalization with overlap
     ethr =  9.24E-07,  avg # of iterations =  1.0

     total cpu time spent up to now is     2681.0 secs

     total energy              =   -1861.55969989 Ry
     Harris-Foulkes estimate   =   -1861.55976170 Ry
     estimated scf accuracy    <       0.00062118 Ry

     total magnetization       =     8.00 Bohr mag/cell
     absolute magnetization    =     8.19 Bohr mag/cell

     iteration #  8     ecut=   100.00 Ry     beta= 0.70
     Davidson diagonalization with overlap
     ethr =  1.34E-07,  avg # of iterations =  3.0

     total cpu time spent up to now is     2748.9 secs

     total energy              =   -1861.55965464 Ry
     Harris-Foulkes estimate   =   -1861.55976738 Ry
     estimated scf accuracy    <       0.00117274 Ry

     total magnetization       =     8.00 Bohr mag/cell
     absolute magnetization    =     8.19 Bohr mag/cell

     iteration #  9     ecut=   100.00 Ry     beta= 0.70
     Davidson diagonalization with overlap
     ethr =  1.34E-07,  avg # of iterations =  1.5

     total cpu time spent up to now is     2814.9 secs

     total energy              =   -1861.55969378 Ry
     Harris-Foulkes estimate   =   -1861.55973955 Ry
     estimated scf accuracy    <       0.00057002 Ry

     total magnetization       =     8.00 Bohr mag/cell
     absolute magnetization    =     8.19 Bohr mag/cell

     iteration # 10     ecut=   100.00 Ry     beta= 0.70
     Davidson diagonalization with overlap
     ethr =  1.23E-07,  avg # of iterations =  1.0

     total cpu time spent up to now is     2880.4 secs

     total energy              =   -1861.55970956 Ry
     Harris-Foulkes estimate   =   -1861.55971397 Ry
     estimated scf accuracy    <       0.00005151 Ry

     total magnetization       =     8.00 Bohr mag/cell
     absolute magnetization    =     8.19 Bohr mag/cell

     iteration # 11     ecut=   100.00 Ry     beta= 0.70
     Davidson diagonalization with overlap
     ethr =  1.11E-08,  avg # of iterations =  3.5

     total cpu time spent up to now is     2951.7 secs

     total energy              =   -1861.55971301 Ry
     Harris-Foulkes estimate   =   -1861.55971413 Ry
     estimated scf accuracy    <       0.00002116 Ry

     total magnetization       =     8.00 Bohr mag/cell
     absolute magnetization    =     8.19 Bohr mag/cell

     iteration # 12     ecut=   100.00 Ry     beta= 0.70
     Davidson diagonalization with overlap
     ethr =  4.56E-09,  avg # of iterations =  2.0

     total cpu time spent up to now is     3018.5 secs

     total energy              =   -1861.55971258 Ry
     Harris-Foulkes estimate   =   -1861.55971724 Ry
     estimated scf accuracy    <       0.00007015 Ry

     total magnetization       =     8.00 Bohr mag/cell
     absolute magnetization    =     8.19 Bohr mag/cell

     iteration # 13     ecut=   100.00 Ry     beta= 0.70
     Davidson diagonalization with overlap
     ethr =  4.56E-09,  avg # of iterations =  1.0

     total cpu time spent up to now is     3084.2 secs

     total energy              =   -1861.55971544 Ry
     Harris-Foulkes estimate   =   -1861.55971585 Ry
     estimated scf accuracy    <       0.00000926 Ry

     total magnetization       =     8.00 Bohr mag/cell
     absolute magnetization    =     8.19 Bohr mag/cell

     iteration # 14     ecut=   100.00 Ry     beta= 0.70
     Davidson diagonalization with overlap
     ethr =  1.99E-09,  avg # of iterations =  1.0

     total cpu time spent up to now is     3150.0 secs

     total energy              =   -1861.55971598 Ry
     Harris-Foulkes estimate   =   -1861.55971660 Ry
     estimated scf accuracy    <       0.00001008 Ry

     total magnetization       =     8.00 Bohr mag/cell
     absolute magnetization    =     8.19 Bohr mag/cell

     iteration # 15     ecut=   100.00 Ry     beta= 0.70
     Davidson diagonalization with overlap
     ethr =  1.99E-09,  avg # of iterations =  1.5

     total cpu time spent up to now is     3216.0 secs

     total energy              =   -1861.55971665 Ry
     Harris-Foulkes estimate   =   -1861.55971665 Ry
     estimated scf accuracy    <       0.00000278 Ry

     total magnetization       =     8.00 Bohr mag/cell
     absolute magnetization    =     8.19 Bohr mag/cell

     iteration # 16     ecut=   100.00 Ry     beta= 0.70
     Davidson diagonalization with overlap
     ethr =  5.98E-10,  avg # of iterations =  3.0

     total cpu time spent up to now is     3283.9 secs

     total energy              =   -1861.55971675 Ry
     Harris-Foulkes estimate   =   -1861.55971682 Ry
     estimated scf accuracy    <       0.00000119 Ry

     total magnetization       =     8.00 Bohr mag/cell
     absolute magnetization    =     8.19 Bohr mag/cell

     iteration # 17     ecut=   100.00 Ry     beta= 0.70
     Davidson diagonalization with overlap
     ethr =  2.56E-10,  avg # of iterations =  2.0

     total cpu time spent up to now is     3350.4 secs

     total energy              =   -1861.55971682 Ry
     Harris-Foulkes estimate   =   -1861.55971688 Ry
     estimated scf accuracy    <       0.00000157 Ry

     total magnetization       =     8.00 Bohr mag/cell
     absolute magnetization    =     8.19 Bohr mag/cell

     iteration # 18     ecut=   100.00 Ry     beta= 0.70
     Davidson diagonalization with overlap
     ethr =  2.56E-10,  avg # of iterations =  1.5
 
     Magnetic moment per site:
     atom:    1    charge:    0.8437    magn:    0.0054    constr:    0.0000
     atom:    2    charge:    0.8439    magn:    0.0054    constr:    0.0000
     atom:    3    charge:    0.8425    magn:    0.0059    constr:    0.0000
     atom:    4    charge:    0.8424    magn:    0.0059    constr:    0.0000
     atom:    5    charge:    0.8518    magn:    0.0042    constr:    0.0000
     atom:    6    charge:    0.8531    magn:    0.0042    constr:    0.0000
     atom:    7    charge:    0.8422    magn:    0.0082    constr:    0.0000
     atom:    8    charge:    0.8549    magn:    0.0034    constr:    0.0000
     atom:    9    charge:    0.8421    magn:    0.0017    constr:    0.0000
     atom:   10    charge:    0.8361    magn:    0.0061    constr:    0.0000
     atom:   11    charge:    0.8323    magn:    0.0057    constr:    0.0000
     atom:   12    charge:    0.8328    magn:    0.0057    constr:    0.0000
     atom:   13    charge:    0.8383    magn:    0.0058    constr:    0.0000
     atom:   14    charge:    0.8373    magn:    0.0059    constr:    0.0000
     atom:   15    charge:    0.8108    magn:    0.0020    constr:    0.0000
     atom:   16    charge:    0.8387    magn:    0.0055    constr:    0.0000
     atom:   17    charge:    0.8339    magn:    0.0083    constr:    0.0000
     atom:   18    charge:    0.8467    magn:    0.0040    constr:    0.0000
     atom:   19    charge:    0.8562    magn:    0.0037    constr:    0.0000
     atom:   20    charge:    0.8386    magn:    0.0062    constr:    0.0000
     atom:   21    charge:    0.8255    magn:   -0.0018    constr:    0.0000
     atom:   22    charge:    0.8255    magn:   -0.0018    constr:    0.0000
     atom:   23    charge:    0.8262    magn:   -0.0014    constr:    0.0000
     atom:   24    charge:    0.8261    magn:   -0.0016    constr:    0.0000
     atom:   25    charge:    0.8437    magn:    0.0054    constr:    0.0000
     atom:   26    charge:    0.8439    magn:    0.0054    constr:    0.0000
     atom:   27    charge:    0.8425    magn:    0.0059    constr:    0.0000
     atom:   28    charge:    0.8424    magn:    0.0059    constr:    0.0000
     atom:   29    charge:    0.8518    magn:    0.0042    constr:    0.0000
     atom:   30    charge:    0.8531    magn:    0.0042    constr:    0.0000
     atom:   31    charge:    0.8422    magn:    0.0082    constr:    0.0000
     atom:   32    charge:    0.8549    magn:    0.0034    constr:    0.0000
     atom:   33    charge:    0.8421    magn:    0.0017    constr:    0.0000
     atom:   34    charge:    0.8361    magn:    0.0061    constr:    0.0000
     atom:   35    charge:    0.8323    magn:    0.0057    constr:    0.0000
     atom:   36    charge:    0.8328    magn:    0.0057    constr:    0.0000
     atom:   37    charge:    0.8383    magn:    0.0058    constr:    0.0000
     atom:   38    charge:    0.8373    magn:    0.0059    constr:    0.0000
     atom:   39    charge:    0.8108    magn:    0.0020    constr:    0.0000
     atom:   40    charge:    0.8387    magn:    0.0055    constr:    0.0000
     atom:   41    charge:    0.8339    magn:    0.0083    constr:    0.0000
     atom:   42    charge:    0.8467    magn:    0.0040    constr:    0.0000
     atom:   43    charge:    0.8562    magn:    0.0037    constr:    0.0000
     atom:   44    charge:    0.8386    magn:    0.0062    constr:    0.0000
     atom:   45    charge:    0.8255    magn:   -0.0018    constr:    0.0000
     atom:   46    charge:    0.8255    magn:   -0.0018    constr:    0.0000
     atom:   47    charge:    0.8262    magn:   -0.0014    constr:    0.0000
     atom:   48    charge:    0.8261    magn:   -0.0016    constr:    0.0000
     atom:   49    charge:    0.8580    magn:    0.0044    constr:    0.0000
     atom:   50    charge:    0.8601    magn:    0.0043    constr:    0.0000
     atom:   51    charge:    0.8714    magn:    0.0038    constr:    0.0000
     atom:   52    charge:    0.8660    magn:    0.0054    constr:    0.0000
     atom:   53    charge:    0.8580    magn:    0.0044    constr:    0.0000
     atom:   54    charge:    0.8601    magn:    0.0043    constr:    0.0000
     atom:   55    charge:    0.8714    magn:    0.0038    constr:    0.0000
     atom:   56    charge:    0.8660    magn:    0.0054    constr:    0.0000
     atom:   57    charge:    0.4859    magn:   -0.0012    constr:    0.0000
     atom:   58    charge:    0.4854    magn:   -0.0012    constr:    0.0000
     atom:   59    charge:    0.4838    magn:   -0.0017    constr:    0.0000
     atom:   60    charge:    0.4855    magn:   -0.0005    constr:    0.0000
     atom:   61    charge:    0.4905    magn:   -0.0009    constr:    0.0000
     atom:   62    charge:    0.4922    magn:   -0.0007    constr:    0.0000
     atom:   63    charge:    0.4926    magn:   -0.0008    constr:    0.0000
     atom:   64    charge:    0.4879    magn:   -0.0007    constr:    0.0000
     atom:   65    charge:    0.4875    magn:   -0.0007    constr:    0.0000
     atom:   66    charge:    0.4860    magn:    0.0023    constr:    0.0000
     atom:   67    charge:    0.4876    magn:   -0.0010    constr:    0.0000
     atom:   68    charge:    0.4805    magn:   -0.0013    constr:    0.0000
     atom:   69    charge:    0.4859    magn:   -0.0012    constr:    0.0000
     atom:   70    charge:    0.4854    magn:   -0.0012    constr:    0.0000
     atom:   71    charge:    0.4838    magn:   -0.0017    constr:    0.0000
     atom:   72    charge:    0.4855    magn:   -0.0005    constr:    0.0000
     atom:   73    charge:    0.4905    magn:   -0.0009    constr:    0.0000
     atom:   74    charge:    0.4922    magn:   -0.0007    constr:    0.0000
     atom:   75    charge:    0.4926    magn:   -0.0008    constr:    0.0000
     atom:   76    charge:    0.4879    magn:   -0.0007    constr:    0.0000
     atom:   77    charge:    0.4875    magn:   -0.0007    constr:    0.0000
     atom:   78    charge:    0.4860    magn:    0.0023    constr:    0.0000
     atom:   79    charge:    0.4876    magn:   -0.0010    constr:    0.0000
     atom:   80    charge:    0.4805    magn:   -0.0013    constr:    0.0000
     atom:   81    charge:    1.7862    magn:    0.0090    constr:    0.0000
     atom:   82    charge:    1.7853    magn:    0.0089    constr:    0.0000
     atom:   83    charge:    1.7794    magn:    0.0156    constr:    0.0000
     atom:   84    charge:    1.7819    magn:    0.0086    constr:    0.0000
     atom:   85    charge:    1.7862    magn:    0.0090    constr:    0.0000
     atom:   86    charge:    1.7853    magn:    0.0089    constr:    0.0000
     atom:   87    charge:    1.7794    magn:    0.0156    constr:    0.0000
     atom:   88    charge:    1.7819    magn:    0.0086    constr:    0.0000
     atom:   89    charge:    1.7083    magn:    0.0400    constr:    0.0000
     atom:   90    charge:    1.7081    magn:    0.0398    constr:    0.0000
     atom:   91    charge:    1.7171    magn:    0.0389    constr:    0.0000
     atom:   92    charge:    1.7406    magn:    0.0197    constr:    0.0000
     atom:   93    charge:    1.7083    magn:    0.0400    constr:    0.0000
     atom:   94    charge:    1.7081    magn:    0.0398    constr:    0.0000
     atom:   95    charge:    1.7171    magn:    0.0389    constr:    0.0000
     atom:   96    charge:    1.7406    magn:    0.0197    constr:    0.0000
     atom:   97    charge:    7.4376    magn:    1.0469    constr:    0.0000
     atom:   98    charge:    7.4328    magn:    1.0676    constr:    0.0000
     atom:   99    charge:    7.4373    magn:    1.0470    constr:    0.0000
     atom:  100    charge:    7.4327    magn:    1.0676    constr:    0.0000
     atom:  101    charge:    3.2593    magn:    0.0527    constr:    0.0000
     atom:  102    charge:    3.2585    magn:    0.0518    constr:    0.0000
     atom:  103    charge:    3.2588    magn:    0.0569    constr:    0.0000
     atom:  104    charge:    3.2549    magn:    0.0573    constr:    0.0000
     atom:  105    charge:    3.2561    magn:    0.0533    constr:    0.0000
     atom:  106    charge:    3.2584    magn:    0.0557    constr:    0.0000
     atom:  107    charge:    3.2563    magn:    0.0560    constr:    0.0000
     atom:  108    charge:    3.2542    magn:    0.0549    constr:    0.0000
     atom:  109    charge:    3.2593    magn:    0.0527    constr:    0.0000
     atom:  110    charge:    3.2585    magn:    0.0518    constr:    0.0000
     atom:  111    charge:    3.2588    magn:    0.0569    constr:    0.0000
     atom:  112    charge:    3.2549    magn:    0.0573    constr:    0.0000
     atom:  113    charge:    3.2561    magn:    0.0533    constr:    0.0000
     atom:  114    charge:    3.2584    magn:    0.0557    constr:    0.0000
     atom:  115    charge:    3.2563    magn:    0.0560    constr:    0.0000
     atom:  116    charge:    3.2542    magn:    0.0549    constr:    0.0000

     total cpu time spent up to now is     3414.8 secs

     End of self-consistent calculation

 ------ SPIN UP ------------


          k = 0.0000 0.0000 0.0000 ( 91663 PWs)   bands (ev):

   -21.8282 -21.8258 -21.7966 -21.7916 -21.6962 -21.6957 -21.6698 -21.6670
   -19.4878 -19.4650 -18.7988 -18.7970 -18.7945 -18.7896 -18.7576 -18.7566
   -18.7492 -18.7409 -18.6655 -18.6565 -18.6280 -18.6128 -18.5649 -18.5540
   -18.1138 -18.0961 -16.2632 -16.2519 -16.1577 -16.1362 -16.1111 -16.0723
   -15.4871 -15.4672 -15.2519 -15.2053 -14.9721 -14.9608 -14.9270 -14.9108
   -14.3077 -14.2981 -13.9259 -13.8849 -13.8717 -13.8481 -13.7585 -13.7431
   -12.0792 -12.0731 -11.7244 -11.7224 -11.5564 -11.5366 -11.4934 -11.4856
   -11.4389 -11.4305 -11.0194 -10.9692 -10.8949 -10.8785 -10.8712 -10.8666
    -9.6682  -9.6299  -8.9693  -8.9429  -8.8863  -8.8678  -8.8269  -8.8077
    -8.7047  -8.6646  -8.1190  -8.1113  -7.9996  -7.9108  -7.8913  -7.8787
    -7.5542  -7.5432  -7.4507  -7.3061  -7.2285  -7.1654  -7.1265  -7.1055
    -7.1009  -7.0934  -7.0194  -6.9769  -6.8865  -6.8808  -6.7350  -6.6177
    -6.5652  -6.4701  -6.2711  -6.2120  -6.1767  -6.1719  -6.1487  -6.0451
    -6.0139  -5.9913  -5.9729  -5.9232  -5.8807  -5.8634  -5.8499  -5.8172
    -5.7472  -5.7187  -5.6700  -5.6380  -5.6305  -5.5881  -5.5191  -5.4817
    -5.4769  -5.4089  -5.3408  -5.2731  -5.1822  -5.1732  -5.1132  -5.0292
    -5.0227  -4.9953  -4.9116  -4.8766  -4.8436  -4.7967  -4.7918  -4.6238
    -4.5561  -4.4620  -4.3652  -4.1916  -4.1292  -4.0421  -4.0275  -4.0166
    -3.9642  -3.8687  -3.8421  -3.8261  -3.7687  -3.7288  -3.7064  -3.6256
    -3.6055  -3.4975  -3.4008  -3.3427  -3.3357  -3.2875  -3.2298  -3.2153
    -3.1185  -3.0698  -3.0412  -2.9928  -2.9694  -2.9660  -2.9451  -2.9439
[...]
     estimated scf accuracy    <          6.9E-09 Ry

     The total energy is the sum of the following terms:

     one-electron contribution =   -2486.84637068 Ry
     hartree contribution      =    1414.89157788 Ry
     xc contribution           =    -553.87876304 Ry
     ewald contribution        =    -238.74346786 Ry
     Dispersion Correction     =      -0.56082256 Ry
     smearing contrib. (-TS)   =       3.20007316 Ry

     total magnetization       =     8.00 Bohr mag/cell
     absolute magnetization    =     8.20 Bohr mag/cell

     convergence has been achieved in  13 iterations

     Forces acting on atoms (cartesian axes, Ry/au):

     atom    1 type  1   force =    -0.00027877    0.00019609   -0.00018136
     atom    2 type  1   force =    -0.00001435   -0.00020138   -0.00029931
     atom    3 type  1   force =    -0.00001859    0.00000838    0.00015480
     atom    4 type  1   force =    -0.00013799    0.00008065   -0.00012817
     atom    5 type  1   force =    -0.00003159    0.00011633   -0.00006901
     atom    6 type  1   force =    -0.00014976   -0.00024699   -0.00011163
     atom    7 type  1   force =    -0.00016287    0.00071648   -0.00028106
     atom    8 type  1   force =     0.00026543   -0.00000881    0.00019849
     atom    9 type  1   force =     0.00056384   -0.00095420    0.00054945
     atom   10 type  1   force =    -0.00032071   -0.00027437    0.00028368
     atom   11 type  1   force =     0.00022618    0.00018729    0.00011394
     atom   12 type  1   force =     0.00014283    0.00015875    0.00025808
     atom   13 type  1   force =     0.00003664    0.00005090    0.00005281
     atom   14 type  1   force =    -0.00015998    0.00012490    0.00037967
     atom   15 type  1   force =    -0.00029745    0.00004017   -0.00039593
     atom   16 type  1   force =    -0.00000785    0.00006398    0.00048359
     atom   17 type  1   force =     0.00054493   -0.00069691    0.00051572
     atom   18 type  1   force =     0.00018829    0.00055172    0.00005763
     atom   19 type  1   force =    -0.00039327   -0.00020971   -0.00019121
     atom   20 type  1   force =     0.00039768   -0.00018350    0.00014980
     atom   21 type  1   force =    -0.00003385    0.00010868    0.00017802
     atom   22 type  1   force =    -0.00007209   -0.00031282    0.00004094
     atom   23 type  1   force =     0.00044523   -0.00033238   -0.00000483
     atom   24 type  1   force =     0.00035277   -0.00041952   -0.00037721
     atom   25 type  1   force =    -0.00026555    0.00019834   -0.00017797
     atom   26 type  1   force =    -0.00001288   -0.00020881   -0.00029700
     atom   27 type  1   force =    -0.00004204   -0.00000481    0.00014362
     atom   28 type  1   force =    -0.00015896    0.00008118   -0.00013839
     atom   29 type  1   force =    -0.00019770    0.00005565   -0.00011904
     atom   30 type  1   force =    -0.00016227   -0.00022048   -0.00014208
     atom   31 type  1   force =    -0.00036019    0.00069379   -0.00015630
     atom   32 type  1   force =     0.00027480   -0.00004076    0.00024946
     atom   33 type  1   force =     0.00073924   -0.00095847    0.00038053
     atom   34 type  1   force =    -0.00037734   -0.00028523    0.00029775
     atom   35 type  1   force =     0.00023873    0.00019307    0.00011220
     atom   36 type  1   force =     0.00012899    0.00013771    0.00026279
     atom   37 type  1   force =     0.00000701    0.00002359    0.00005683
     atom   38 type  1   force =    -0.00015979    0.00012558    0.00039877
     atom   39 type  1   force =    -0.00027582    0.00008646   -0.00034555
     atom   40 type  1   force =    -0.00001978    0.00004885    0.00047982
     atom   41 type  1   force =     0.00056310   -0.00063543    0.00058575
     atom   42 type  1   force =     0.00018642    0.00054995    0.00005629
     atom   43 type  1   force =    -0.00024106   -0.00014375   -0.00024068
     atom   44 type  1   force =     0.00038990   -0.00015591    0.00014239
     atom   45 type  1   force =    -0.00002635    0.00012996    0.00016458
     atom   46 type  1   force =    -0.00006720   -0.00030265    0.00004089
     atom   47 type  1   force =     0.00041073   -0.00035173    0.00002229
     atom   48 type  1   force =     0.00037021   -0.00043960   -0.00034443
     atom   49 type  1   force =    -0.00069534   -0.00015074   -0.00044663
     atom   50 type  1   force =    -0.00027639   -0.00004629    0.00008429
     atom   51 type  1   force =     0.00048948   -0.00015471   -0.00018232
     atom   52 type  1   force =    -0.00030105    0.00018074    0.00041511
     atom   53 type  1   force =     0.00026702    0.00018129   -0.00010940
     atom   54 type  1   force =    -0.00009176   -0.00011339    0.00019283
     atom   55 type  1   force =     0.00018929   -0.00029208   -0.00008218
     atom   56 type  1   force =    -0.00007789    0.00039174    0.00006231
     atom   57 type  2   force =     0.00007141   -0.00003304    0.00016242
     atom   58 type  2   force =    -0.00020613   -0.00019967    0.00019722
     atom   59 type  2   force =     0.00026774    0.00040983    0.00079305
     atom   60 type  2   force =     0.00027367    0.00081820    0.00039011
     atom   61 type  2   force =    -0.00061817    0.00042502   -0.00017483
     atom   62 type  2   force =    -0.00019245    0.00017456    0.00001425
     atom   63 type  2   force =     0.00016282   -0.00006914    0.00005353
     atom   64 type  2   force =     0.00013198    0.00017265    0.00027250
     atom   65 type  2   force =     0.00018100    0.00018137   -0.00001883
     atom   66 type  2   force =     0.00005787    0.00073064    0.00022385
     atom   67 type  2   force =     0.00036293   -0.00034157   -0.00000388
     atom   68 type  2   force =     0.00022366   -0.00042415   -0.00072631
     atom   69 type  2   force =     0.00006411   -0.00002836    0.00015480
     atom   70 type  2   force =    -0.00020530   -0.00019911    0.00020687
     atom   71 type  2   force =     0.00035147    0.00037960    0.00070224
     atom   72 type  2   force =     0.00022151    0.00078245    0.00040295
     atom   73 type  2   force =    -0.00062093    0.00043545   -0.00019023
     atom   74 type  2   force =    -0.00018872    0.00017398    0.00001719
     atom   75 type  2   force =     0.00016537   -0.00007983    0.00005877
     atom   76 type  2   force =     0.00013561    0.00017527    0.00027181
     atom   77 type  2   force =     0.00018638    0.00017635   -0.00002254
     atom   78 type  2   force =     0.00004570    0.00073440    0.00020353
     atom   79 type  2   force =     0.00037527   -0.00032122   -0.00002193
     atom   80 type  2   force =     0.00024941   -0.00044208   -0.00072376
     atom   81 type  3   force =     0.00004709    0.00022025   -0.00019711
     atom   82 type  3   force =     0.00001814    0.00001276    0.00013183
     atom   83 type  3   force =     0.00011429   -0.00016924   -0.00078932
     atom   84 type  3   force =    -0.00015766   -0.00015976    0.00092468
     atom   85 type  3   force =     0.00005712    0.00022374   -0.00019014
     atom   86 type  3   force =     0.00003444    0.00001469    0.00012347
     atom   87 type  3   force =     0.00002042   -0.00013620   -0.00067798
     atom   88 type  3   force =    -0.00014081   -0.00014667    0.00092585
     atom   89 type  3   force =     0.00002367    0.00010855   -0.00013353
     atom   90 type  3   force =    -0.00041485    0.00011240    0.00030629
     atom   91 type  3   force =     0.00011410    0.00038979   -0.00027493
     atom   92 type  3   force =    -0.00009860   -0.00082859   -0.00094929
     atom   93 type  3   force =    -0.00075288   -0.00014993   -0.00041876
     atom   94 type  3   force =    -0.00056715    0.00016683    0.00023504
     atom   95 type  3   force =     0.00035305    0.00048140   -0.00036451
     atom   96 type  3   force =    -0.00028515   -0.00096198   -0.00064186
     atom   97 type  4   force =     0.00050580   -0.00010178   -0.00015461
     atom   98 type  4   force =     0.00021194    0.00008984   -0.00004144
     atom   99 type  4   force =     0.00049194   -0.00009980   -0.00016785
     atom  100 type  4   force =     0.00022602    0.00010038   -0.00005059
     atom  101 type  5   force =    -0.00041436    0.00006297    0.00000509
     atom  102 type  5   force =     0.00004378    0.00017151   -0.00051912
     atom  103 type  5   force =     0.00003117    0.00009149   -0.00033708
     atom  104 type  5   force =    -0.00052463   -0.00047080   -0.00022450
     atom  105 type  5   force =     0.00004386   -0.00018289    0.00012943
     atom  106 type  5   force =     0.00024722    0.00010639   -0.00015401
     atom  107 type  5   force =    -0.00047809    0.00039145    0.00018499
     atom  108 type  5   force =    -0.00032932   -0.00011912   -0.00037696
     atom  109 type  5   force =    -0.00043128    0.00004693   -0.00001171
     atom  110 type  5   force =     0.00003765    0.00016907   -0.00052816
     atom  111 type  5   force =     0.00003768    0.00008166   -0.00032509
     atom  112 type  5   force =    -0.00052758   -0.00048367   -0.00022927
     atom  113 type  5   force =    -0.00000499   -0.00018925    0.00015955
     atom  114 type  5   force =     0.00023675    0.00009862   -0.00016187
     atom  115 type  5   force =    -0.00046241    0.00040266    0.00017771
     atom  116 type  5   force =    -0.00033284   -0.00011212   -0.00037045

     Total force =     0.006068     Total SCF correction =     0.000176

     bfgs converged in  47 scf cycles and  46 bfgs steps
     (criteria: energy <  1.0E-04 Ry, force <  1.0E-03 Ry/Bohr)

     End of BFGS Geometry Optimization

     Final energy   =   -1861.9377730962 Ry
Begin final coordinates

ATOMIC_POSITIONS (crystal)
C             0.2881083263        0.9692998592        0.5225654363
C             0.0377316789        0.0279388143        0.0218003650
C             0.3883604427        0.0144269295        0.5464534900
C             0.1381134341        0.9827728590        0.0446735293
C             0.4504134790        0.9740547270        0.6524422555
C             0.2002911900        0.0223033481        0.1510828898
C             0.2081233451        0.5306868698        0.5238443860
C             0.4642519261        0.4754274519        0.0364497586
C             0.2420109623        0.6154424106        0.6071285648
C             0.5002793390        0.3879958251        0.1132172848
C             0.2519200794        0.8861410861        0.6023588845
C             0.0013509021        0.1099778220        0.1033159958
C             0.4080761283        0.8903990566        0.7294279445
C             0.1579868163        0.1050704572        0.2295669325
C             0.0857140457        0.6026131377        0.7349912646
C             0.3405423548        0.3880463378        0.2259177812
C             0.0444944755        0.5176778211        0.6413217424
C             0.3001487967        0.4743861509        0.1528326112
C             0.1093985711        0.4818881092        0.5415836438
C             0.3620455951        0.5208725176        0.0571291023
C             0.4299047342        0.1013801428        0.4661186379
C             0.1800581100        0.8963210570        0.9633857805
C             0.0712724541        0.3921032453        0.4613217033
C             0.3233828692        0.6114218809        0.9780179642
C             0.7881084587        0.9693004483        0.5225663902
C             0.5377332857        0.0279407326        0.0218002523
C             0.8883607625        0.0144280793        0.5464538229
C             0.6381139015        0.9827720352        0.0446742257
C             0.9504157162        0.9740554303        0.6524421894
C             0.7002902567        0.0223005849        0.1510843751
C             0.7081252357        0.5306867606        0.5238430611
C             0.9642503244        0.4754261626        0.0364526694
C             0.7420077672        0.6154407055        0.6071349466
C             1.0002819002        0.3879979756        0.1132228324
C             0.7519194005        0.8861411881        0.6023586638
C             0.5013533204        0.1099805194        0.1033149954
C             0.9080767398        0.8903999363        0.7294277964
C             0.6579872053        0.1050700380        0.2295665109
C             0.5857159394        0.6026060114        0.7349881598
C             0.8405415139        0.3880475200        0.2259215172
C             0.5444930828        0.5176756865        0.6413143290
C             0.8001459238        0.4743870395        0.1528343759
C             0.6093944907        0.4818852545        0.5415799688
C             0.8620427691        0.5208700153        0.0571280095
C             0.9299051345        0.1013795264        0.4661185539
C             0.6800581184        0.8963198655        0.9633863600
C             0.5712698732        0.3921036991        0.4613168491
C             0.8233821358        0.6114227435        0.9780168657
C             0.5514588377        0.0143031064        0.6884740034
C             0.3013168489        0.9815388827        0.1862868845
C             0.9446328938        0.4759035630        0.6694165188
C             0.5281507371        0.5175159153        0.9403779510
C             0.0514495101        0.0142994102        0.6884686098
C             0.8013169629        0.9815392145        0.1862765572
C             0.4446323864        0.4759108821        0.6694100825
C             0.0281564626        0.5175099703        0.9403922104
H             0.2363369058        0.9975117790        0.4439564187
H             0.4859446558        0.0008477883        0.9426564903
H             0.2606605310        0.5043284398        0.4475842302
H             0.3176634979        0.6551779652        0.5897361078
H             0.0789441205        0.3529337338        0.0998760824
H             0.1747368825        0.8485879543        0.5849846038
H             0.4240644432        0.1475236143        0.0867176678
H             0.4541621304        0.8590423956        0.8119057989
H             0.2045567172        0.1363615204        0.3116564551
H             0.0262586566        0.6680124756        0.7408549165
H             0.2941293546        0.3517467501        0.3022395633
H             0.2210953289        0.5051089595        0.1734787816
H             0.7363384230        0.9975119808        0.4439569147
H             0.9859455057        0.0008472354        0.9426527225
H             0.7606587098        0.5043291306        0.4475909818
H             0.8176615849        0.6551813521        0.5897376386
H             0.5789409364        0.3529277411        0.0998760018
H             0.6747357712        0.8485888662        0.5849834679
H             0.9240649501        0.1475268805        0.0867143185
H             0.9541610830        0.8590421352        0.8119063191
H             0.7045559136        0.1363622028        0.3116565050
H             0.5262642683        0.6680064608        0.7408648106
H             0.7941285126        0.3517428480        0.3022424161
H             0.7210913651        0.5051137542        0.1734765792
N             0.3112955323        0.8484502384        0.7039248808
N             0.0607836253        0.1464280266        0.2055186365
N             0.1889866337        0.6486593572        0.7085202605
N             0.4392546226        0.3471895449        0.2065335642
N             0.8112959034        0.8484505090        0.7039239289
N             0.5607837467        0.1464280152        0.2055200399
N             0.6889878108        0.6486548932        0.7085198076
N             0.9392535720        0.3471889985        0.2065353082
N             0.6364348612        0.0420896676        0.7261132931
N             0.3860127990        0.9523137828        0.2232414745
N             0.8609943636        0.4490209787        0.7084843138
N             0.5845417691        0.5558372162        0.8640625785
N             0.1364421713        0.0420925188        0.7261162643
N             0.8860132845        0.9523158460        0.2232475167
N             0.3609926188        0.4490164437        0.7084829107
N             0.0845356278        0.5558379591        0.8640571544
Ni            0.2505558929        0.7502172350        0.8363933049
Ni            0.5005205483        0.2446999508        0.3382611802
Ni            0.7505579068        0.7502170425        0.8363938888
Ni            1.0005188358        0.2446990632        0.3382622700
O             0.1269985131        0.3449984971        0.3752092310
O             0.3778730417        0.6542226988        0.8869813256
O             0.3729701992        0.1534465501        0.3817445710
O             0.1224823868        0.8417772903        0.8819936103
O             0.4764988948        0.3545370369        0.4745159082
O             0.2308868704        0.6531026217        0.9932118883
O             0.0275996179        0.1324666012        0.4753274814
O             0.2784436402        0.8680037844        0.9700613587
O             0.6270001176        0.3450002436        0.3752093475
O             0.8778742481        0.6542256079        0.8869839016
O             0.8729705804        0.1534468257        0.3817438007
O             0.6224827229        0.8417786163        0.8819929667
O             0.9765025737        0.3545381898        0.4745165990
O             0.7308886505        0.6531066177        0.9932161271
O             0.5275985599        0.1324665780        0.4753286655
O             0.7784440574        0.8680021699        0.9700613617
End final coordinates



     Writing output data file /nfs/hpc/share/gantzlen/NiPyC2_relax_sc211_meta_functionalized_C-N_pbesol_relax.save/
 
     init_run     :     44.22s CPU     45.70s WALL (       1 calls)
     electrons    :  47509.59s CPU  49704.80s WALL (      47 calls)
     update_pot   :    293.05s CPU    310.28s WALL (      46 calls)
     forces       :    865.27s CPU    890.58s WALL (      47 calls)

     Called by init_run:
     wfcinit      :     36.77s CPU     37.85s WALL (       1 calls)
     potinit      :      3.25s CPU      3.51s WALL (       1 calls)
     hinit0       :      2.70s CPU      2.80s WALL (       1 calls)

     Called by electrons:
     c_bands      :  44389.11s CPU  46134.22s WALL (     640 calls)
     sum_band     :   2014.21s CPU   2263.97s WALL (     640 calls)
     v_of_rho     :    518.81s CPU    589.16s WALL (     674 calls)
     mix_rho      :    587.58s CPU    689.36s WALL (     640 calls)

     Called by c_bands:
     init_us_2    :     44.71s CPU     46.11s WALL (    1281 calls)
     regterg      :  44304.80s CPU  45813.69s WALL (     640 calls)

     Called by sum_band:

     Called by *egterg:
     h_psi        :  16951.62s CPU  18030.11s WALL (    2020 calls)
     g_psi        :     10.69s CPU     10.74s WALL (    1379 calls)
     rdiaghg      :   1574.20s CPU   1583.30s WALL (    1960 calls)

     Called by h_psi:
     h_psi:calbec :   4821.64s CPU   4895.12s WALL (    2020 calls)
     vloc_psi     :   7223.27s CPU   8215.80s WALL (    2020 calls)
     add_vuspsi   :   4859.92s CPU   4872.13s WALL (    2020 calls)

     General routines
     calbec       :   5459.43s CPU   5541.98s WALL (    2208 calls)
     fft          :    361.10s CPU    455.98s WALL (   10652 calls)
     ffts         :    394.69s CPU    473.28s WALL (   11140 calls)
     fftw         :   7480.05s CPU   8678.68s WALL (  494978 calls)
 
     Parallel routines
     fft_scatt_xy :   1656.35s CPU   1670.56s WALL (  516770 calls)
     fft_scatt_yz :   1678.06s CPU   2993.24s WALL (  516770 calls)
 
     PWSCF        :     13h32m CPU     14h 9m WALL

 
   This run was terminated on:   2:22:48  26Jun2020            

=------------------------------------------------------------------------------=
   JOB DONE.
=------------------------------------------------------------------------------=
QE finished Fri Jun 26 02:22:48 PDT 2020
