/apps/openmpi/3.1_intel-19/bin/mpiexec
starting QE Wed Jun 24 14:19:31 PDT 2020

     Program PWSCF v.6.5 starts on 24Jun2020 at 14:19:33 

     This program is part of the open-source Quantum ESPRESSO suite
     for quantum simulation of materials; please cite
         "P. Giannozzi et al., J. Phys.:Condens. Matter 21 395502 (2009);
         "P. Giannozzi et al., J. Phys.:Condens. Matter 29 465901 (2017);
          URL http://www.quantum-espresso.org", 
     in publications or presentations arising from this work. More details at
     http://www.quantum-espresso.org/quote

     Parallel version (MPI), running on    32 processors

     MPI processes distributed on     1 nodes
     K-points division:     npool     =       2
     R & G space division:  proc/nbgrp/npool/nimage =      16
     Reading input from QE_input_scripts/pw.NiPyC2_relax_sc211_meta_functionalized_CH-O_pbesol_relax.in
Warning: card &CELL ignored
Warning: card    CELL_DYNAMICS = 'BFGS' ignored
Warning: card    CELL_DOFREE = 'XYZ' ignored
Warning: card / ignored

     Current dimensions of program PWSCF are:
     Max number of different atomic species (ntypx) = 10
     Max number of k-points (npk) =  40000
     Max angular momentum in pseudopotentials (lmaxx) =  3

     -------------------------------------------------
     Parameters for Dispersion (Grimme-D2) Correction:
     -------------------------------------------------
       atom      VdW radius       C_6     

        C          2.744         60.710
        H          1.892          4.857
        N          2.640         42.670
        Ni         2.952        374.666
        O          2.536         24.284

     gamma-point specific algorithms are used

     Subspace diagonalization in iterative solution of the eigenvalue problem:
     a serial algorithm will be used

 
     Parallelization info
     --------------------
     sticks:   dense  smooth     PW     G-vecs:    dense   smooth      PW
     Min        1113    1113    277                91686    91686   11456
     Max        1116    1116    280                91692    91692   11460
     Sum       17829   17829   4453              1467017  1467017  183325
 


     bravais-lattice index     =            0
     lattice parameter (alat)  =      23.6322  a.u.
     unit-cell volume          =   10858.6228 (a.u.)^3
     number of atoms/cell      =          124
     number of atomic types    =            5
     number of electrons       =       480.00 (up: 244.00, down: 236.00)
     number of Kohn-Sham states=          293
     kinetic-energy cutoff     =     100.0000  Ry
     charge density cutoff     =     400.0000  Ry
     convergence threshold     =      1.0E-06
     mixing beta               =       0.7000
     number of iterations used =            8  local-TF  mixing
     Exchange-correlation= PBESOL
                           (   1   4  10   8   0   0   0)
     nstep                     =          200


     celldm(1)=  23.632159  celldm(2)=   0.000000  celldm(3)=   0.000000
     celldm(4)=   0.000000  celldm(5)=   0.000000  celldm(6)=   0.000000

     crystal axes: (cart. coord. in units of alat)
               a(1) = (   1.000000   0.000000   0.000000 )  
               a(2) = (   0.000000   1.001423   0.000000 )  
               a(3) = (  -0.018199   0.000000   0.821574 )  

     reciprocal axes: (cart. coord. in units 2 pi/alat)
               b(1) = (  1.000000  0.000000  0.022152 )  
               b(2) = (  0.000000  0.998579  0.000000 )  
               b(3) = (  0.000000  0.000000  1.217175 )  


     PseudoPot. # 1 for C  read from file:
     ./pseudo/C.pbesol-nc.UPF
     MD5 check sum: ce26087537ded160c8d400e183a8bf42
     Pseudo is Norm-conserving, Zval =  4.0
     Generated using "atomic" code by A. Dal Corso v.6.5
     Using radial grid of 1073 points,  1 beta functions with: 
                l(1) =   1

     PseudoPot. # 2 for H  read from file:
     ./pseudo/H.pbesol-n-nc.UPF
     MD5 check sum: 7995ef24074557c85b430109caaacc09
     Pseudo is Norm-conserving, Zval =  1.0
     Generated using "atomic" code by A. Dal Corso v.6.5
     Using radial grid of  929 points,  0 beta functions with: 

     PseudoPot. # 3 for N  read from file:
     ./pseudo/N.pbesol-nc.UPF
     MD5 check sum: e18cc5e4b8a5600c1a19b30c2cab1ca0
     Pseudo is Norm-conserving, Zval =  5.0
     Generated using "atomic" code by A. Dal Corso v.6.5
     Using radial grid of 1085 points,  1 beta functions with: 
                l(1) =   1

     PseudoPot. # 4 for Ni read from file:
     ./pseudo/Ni.pbesol-n-nc.UPF
     MD5 check sum: 623411631e0c2eb7c0b2b9815547d2d9
     Pseudo is Norm-conserving + core correction, Zval = 10.0
     Generated using "atomic" code by A. Dal Corso v.6.5
     Using radial grid of 1195 points,  2 beta functions with: 
                l(1) =   1
                l(2) =   2

     PseudoPot. # 5 for O  read from file:
     ./pseudo/O.pbesol-nc.UPF
     MD5 check sum: 73d10e7e91dbfcbe8a7e362101007f84
     Pseudo is Norm-conserving, Zval =  6.0
     Generated using "atomic" code by A. Dal Corso v.6.5
     Using radial grid of 1095 points,  1 beta functions with: 
                l(1) =   1

     atomic species   valence    mass     pseudopotential
        C              4.00    12.01070     C ( 1.00)
        H              1.00     1.00794     H ( 1.00)
        N              5.00    14.00670     N ( 1.00)
        Ni            10.00    58.69340     Ni( 1.00)
        O              6.00    15.99940     O ( 1.00)

     Starting magnetic structure 
     atomic species   magnetization
        C            0.000
        H            0.000
        N            0.000
        Ni           0.250
        O            0.000

     No symmetry found



   Cartesian axes

     site n.     atom                  positions (alat units)
         1           C   tau(   1) = (   0.2787122   0.9714307   0.4288486  )
         2           C   tau(   2) = (   0.0379730   0.0311503   0.0183277  )
         3           C   tau(   3) = (   0.3806882   0.0117868   0.4489838  )
         4           C   tau(   4) = (   0.1394042   0.9891499   0.0379124  )
         5           C   tau(   5) = (   0.4400787   0.9715829   0.5343281  )
         6           C   tau(   6) = (   0.1997920   0.0283934   0.1231482  )
         7           C   tau(   7) = (   0.1986011   0.5304580   0.4324635  )
         8           C   tau(   8) = (   0.4580372   0.4720800   0.0229252  )
         9           C   tau(   9) = (   0.2341003   0.6142040   0.4982314  )
        10           C   tau(  10) = (   0.4948422   0.3892302   0.0892369  )
        11           C   tau(  11) = (   0.2384981   0.8904717   0.4955761  )
        12           C   tau(  12) = (  -0.0008282   0.1123917   0.0856467  )
        13           C   tau(  13) = (   0.3947360   0.8906489   0.5977380  )
        14           C   tau(  14) = (   0.1557890   0.1097029   0.1871645  )
        15           C   tau(  15) = (   0.0756247   0.6098498   0.5975737  )
        16           C   tau(  16) = (   0.3367152   0.3921904   0.1884642  )
        17           C   tau(  17) = (   0.0350715   0.5258264   0.5351012  )
        18           C   tau(  18) = (   0.2948780   0.4753867   0.1254988  )
        19           C   tau(  19) = (   0.0981522   0.4849593   0.4519611  )
        20           C   tau(  20) = (   0.3569104   0.5163900   0.0416029  )
        21           C   tau(  21) = (   0.4248178   0.0994604   0.3833638  )
        22           C   tau(  22) = (   0.1639424   0.9010006   0.7933713  )
        23           C   tau(  23) = (   0.0588120   0.3950355   0.3866953  )
        24           C   tau(  24) = (   0.2984059   0.6050320   0.7961934  )
        25           C   tau(  25) = (   0.7787122   0.9714307   0.4288486  )
        26           C   tau(  26) = (   0.5379730   0.0311503   0.0183277  )
        27           C   tau(  27) = (   0.8806882   0.0117868   0.4489838  )
        28           C   tau(  28) = (   0.6394042   0.9891499   0.0379124  )
        29           C   tau(  29) = (   0.9400787   0.9715829   0.5343281  )
        30           C   tau(  30) = (   0.6997920   0.0283934   0.1231482  )
        31           C   tau(  31) = (   0.6986021   0.5304580   0.4324635  )
        32           C   tau(  32) = (   0.9580382   0.4720800   0.0229252  )
        33           C   tau(  33) = (   0.7341003   0.6142040   0.4982314  )
        34           C   tau(  34) = (   0.9948422   0.3892302   0.0892369  )
        35           C   tau(  35) = (   0.7384981   0.8904717   0.4955761  )
        36           C   tau(  36) = (   0.4991718   0.1123917   0.0856467  )
        37           C   tau(  37) = (   0.8947360   0.8906489   0.5977380  )
        38           C   tau(  38) = (   0.6557880   0.1097029   0.1871645  )
        39           C   tau(  39) = (   0.5756247   0.6098498   0.5975737  )
        40           C   tau(  40) = (   0.8367152   0.3921904   0.1884642  )
        41           C   tau(  41) = (   0.5350715   0.5258264   0.5351012  )
        42           C   tau(  42) = (   0.7948780   0.4753867   0.1254988  )
        43           C   tau(  43) = (   0.5981522   0.4849593   0.4519611  )
        44           C   tau(  44) = (   0.8569104   0.5163900   0.0416029  )
        45           C   tau(  45) = (   0.9248178   0.0994604   0.3833638  )
        46           C   tau(  46) = (   0.6639424   0.9010006   0.7933713  )
        47           C   tau(  47) = (   0.5588110   0.3950355   0.3866953  )
        48           C   tau(  48) = (   0.7984059   0.6050320   0.7961934  )
        49           C   tau(  49) = (   0.5511701   0.0060656   0.5641948  )
        50           C   tau(  50) = (   0.9470955   0.9981277   0.7499815  )
        51           C   tau(  51) = (   0.2732959   0.4957787   0.3443990  )
        52           C   tau(  52) = (   0.5144000   0.5073121   0.7563273  )
        53           C   tau(  53) = (   0.7068575   0.0060266   0.3388641  )
        54           C   tau(  54) = (   0.8106003   0.9924656   0.1522550  )
        55           C   tau(  55) = (   0.4249755   0.4858916   0.5632713  )
        56           C   tau(  56) = (   0.0144010   0.5073121   0.7563281  )
        57           H   tau(  57) = (   0.2290596   1.0009978   0.3640502  )
        58           H   tau(  58) = (   0.4693669   0.0026958   0.7751545  )
        59           H   tau(  59) = (   0.0198054   1.0002267   0.5533467  )
        60           H   tau(  60) = (   0.2791988   1.0000865   0.1418054  )
        61           H   tau(  61) = (   0.3118554   0.6514319   0.4868937  )
        62           H   tau(  62) = (   0.0732386   0.3533532   0.0780726  )
        63           H   tau(  63) = (   0.1594426   0.8563401   0.4835457  )
        64           H   tau(  64) = (   0.4206861   0.1479423   0.0738480  )
        65           H   tau(  65) = (   0.4386511   0.8563902   0.6644572  )
        66           H   tau(  66) = (   0.2006191   0.1433067   0.2536997  )
        67           H   tau(  67) = (   0.0290492   0.6438591   0.6626884  )
        68           H   tau(  68) = (   0.2907535   0.3580349   0.2539083  )
        69           H   tau(  69) = (   0.2157623   0.5059201   0.1439924  )
        70           H   tau(  70) = (   0.7505234   0.5016080   0.3691185  )
        71           H   tau(  71) = (   0.8118554   0.6514319   0.4868937  )
        72           H   tau(  72) = (   0.5732386   0.3533532   0.0780726  )
        73           H   tau(  73) = (   0.6594426   0.8563401   0.4835457  )
        74           H   tau(  74) = (   0.9206861   0.1479423   0.0738480  )
        75           H   tau(  75) = (   0.9386511   0.8563902   0.6644572  )
        76           H   tau(  76) = (   0.7006201   0.1433067   0.2536997  )
        77           H   tau(  77) = (   0.5290492   0.6438591   0.6626884  )
        78           H   tau(  78) = (   0.7907535   0.3580349   0.2539083  )
        79           H   tau(  79) = (   0.9564147   0.4939330   0.5533319  )
        80           H   tau(  80) = (   0.7157623   0.5059201   0.1439924  )
        81           H   tau(  81) = (   0.5928638   0.0672716   0.5209611  )
        82           H   tau(  82) = (   0.9689601   0.9368546   0.6941128  )
        83           H   tau(  83) = (   0.2538113   0.4325859   0.2898029  )
        84           H   tau(  84) = (   0.4941599   0.5698520   0.7012563  )
        85           H   tau(  85) = (   0.7298243   0.0672576   0.2833938  )
        86           H   tau(  86) = (   0.8513079   0.9309151   0.1085719  )
        87           H   tau(  87) = (   0.3868580   0.4220869   0.5204969  )
        88           H   tau(  88) = (  -0.0058391   0.5698530   0.7012572  )
        89           N   tau(  89) = (   0.2956096   0.8524646   0.5790685  )
        90           N   tau(  90) = (   0.0569790   0.1490689   0.1692870  )
        91           N   tau(  91) = (   0.1736962   0.6512356   0.5798983  )
        92           N   tau(  92) = (   0.4350238   0.3514275   0.1709211  )
        93           N   tau(  93) = (   0.7956096   0.8524646   0.5790685  )
        94           N   tau(  94) = (   0.5569790   0.1490689   0.1692870  )
        95           N   tau(  95) = (   0.6736972   0.6512356   0.5798983  )
        96           N   tau(  96) = (   0.9350238   0.3514275   0.1709211  )
        97           Ni  tau(  97) = (   0.2317814   0.7525556   0.6871039  )
        98           Ni  tau(  98) = (   0.4937992   0.2483520   0.2786599  )
        99           Ni  tau(  99) = (   0.7317814   0.7525556   0.6871039  )
       100           Ni  tau( 100) = (   0.9937992   0.2483520   0.2786599  )
       101           O   tau( 101) = (   0.1158100   0.3481839   0.3145586  )
       102           O   tau( 102) = (   0.3551690   0.6519036   0.7240468  )
       103           O   tau( 103) = (   0.3707656   0.1477170   0.3098797  )
       104           O   tau( 104) = (   0.1091506   0.8535652   0.7199135  )
       105           O   tau( 105) = (   0.4642788   0.3566669   0.3968154  )
       106           O   tau( 106) = (   0.2033039   0.6423280   0.8050417  )
       107           O   tau( 107) = (   0.0200847   0.1353504   0.3952413  )
       108           O   tau( 108) = (   0.2588616   0.8639860   0.8046490  )
       109           O   tau( 109) = (   0.6158110   0.3481839   0.3145586  )
       110           O   tau( 110) = (   0.8551690   0.6519036   0.7240468  )
       111           O   tau( 111) = (   0.8707656   0.1477170   0.3098797  )
       112           O   tau( 112) = (   0.6091506   0.8535652   0.7199135  )
       113           O   tau( 113) = (   0.9642788   0.3566669   0.3968154  )
       114           O   tau( 114) = (   0.7033039   0.6423280   0.8050417  )
       115           O   tau( 115) = (   0.5200847   0.1353504   0.3952413  )
       116           O   tau( 116) = (   0.7588616   0.8639860   0.8046490  )
       117           O   tau( 117) = (   0.5978619   0.9671697   0.6399521  )
       118           O   tau( 118) = (   0.8595599   0.0383916   0.7379552  )
       119           O   tau( 119) = (   0.3598457   0.5394958   0.3324451  )
       120           O   tau( 120) = (   0.6016205   0.4647976   0.7449263  )
       121           O   tau( 121) = (   0.6187451   0.9671486   0.3263334  )
       122           O   tau( 122) = (   0.8582019   0.0305254   0.2278866  )
       123           O   tau( 123) = (   0.3749393   0.5257963   0.6370889  )
       124           O   tau( 124) = (   0.1016215   0.4647986   0.7449271  )

     number of k points=     1  Marzari-Vanderbilt smearing, width (Ry)=  0.2000
                       cart. coord. in units 2pi/alat
        k(    1) = (   0.0000000   0.0000000   0.0000000), wk =   1.0000000

     Dense  grid:   733509 G-vectors     FFT dimensions: ( 160, 160, 125)

     Estimated max dynamical RAM per process >     353.37 MB

     Estimated total dynamical RAM >      11.04 GB
     Generating pointlists ...
     new r_m :   0.0354 (alat units)  0.8359 (a.u.) for type    1
     new r_m :   0.0354 (alat units)  0.8359 (a.u.) for type    2
     new r_m :   0.0445 (alat units)  1.0514 (a.u.) for type    3
     new r_m :   0.0654 (alat units)  1.5454 (a.u.) for type    4
     new r_m :   0.0403 (alat units)  0.9524 (a.u.) for type    5

     Check: negative core charge=   -0.000145

     Initial potential from superposition of free atoms

     starting charge  479.99635, renormalised to  480.00000
     Starting wfcs are  420 randomized atomic wfcs

     total cpu time spent up to now is       47.7 secs

     Self-consistent Calculation

     iteration #  1     ecut=   100.00 Ry     beta= 0.70
     Davidson diagonalization with overlap
     ethr =  1.00E-02,  avg # of iterations =  4.0

     total cpu time spent up to now is      167.3 secs

     total energy              =   -1964.18837851 Ry
     Harris-Foulkes estimate   =   -1972.50797047 Ry
     estimated scf accuracy    <      21.61350795 Ry

     total magnetization       =     8.00 Bohr mag/cell
     absolute magnetization    =     8.80 Bohr mag/cell

     iteration #  2     ecut=   100.00 Ry     beta= 0.70
     Davidson diagonalization with overlap
     ethr =  4.50E-03,  avg # of iterations =  2.0

     total cpu time spent up to now is      237.1 secs

     total energy              =   -1967.95807847 Ry
     Harris-Foulkes estimate   =   -1971.93075045 Ry
     estimated scf accuracy    <      19.78104314 Ry

     total magnetization       =     8.00 Bohr mag/cell
     absolute magnetization    =     8.23 Bohr mag/cell

     iteration #  3     ecut=   100.00 Ry     beta= 0.70
     Davidson diagonalization with overlap
     ethr =  4.12E-03,  avg # of iterations =  1.0

     total cpu time spent up to now is      301.8 secs

     total energy              =   -1967.21482250 Ry
     Harris-Foulkes estimate   =   -1968.63317661 Ry
     estimated scf accuracy    <       4.32498068 Ry

     total magnetization       =     8.00 Bohr mag/cell
     absolute magnetization    =     8.18 Bohr mag/cell

     iteration #  4     ecut=   100.00 Ry     beta= 0.70
     Davidson diagonalization with overlap
     ethr =  9.01E-04,  avg # of iterations =  7.0

     total cpu time spent up to now is      385.4 secs

     total energy              =   -1967.22094254 Ry
     Harris-Foulkes estimate   =   -1969.11862862 Ry
     estimated scf accuracy    <      22.22696907 Ry

     total magnetization       =     8.00 Bohr mag/cell
     absolute magnetization    =     8.25 Bohr mag/cell

     iteration #  5     ecut=   100.00 Ry     beta= 0.70
     Davidson diagonalization with overlap
     ethr =  9.01E-04,  avg # of iterations =  1.5

     total cpu time spent up to now is      449.1 secs

     total energy              =   -1967.89436536 Ry
     Harris-Foulkes estimate   =   -1968.03360880 Ry
     estimated scf accuracy    <       0.49841132 Ry

     total magnetization       =     8.00 Bohr mag/cell
     absolute magnetization    =     8.24 Bohr mag/cell

     iteration #  6     ecut=   100.00 Ry     beta= 0.70
     Davidson diagonalization with overlap
     ethr =  1.04E-04,  avg # of iterations =  6.0

     total cpu time spent up to now is      524.0 secs

     total energy              =   -1967.99320221 Ry
     Harris-Foulkes estimate   =   -1968.04379670 Ry
     estimated scf accuracy    <       1.48727126 Ry

     total magnetization       =     8.00 Bohr mag/cell
     absolute magnetization    =     8.24 Bohr mag/cell

     iteration #  7     ecut=   100.00 Ry     beta= 0.70
     Davidson diagonalization with overlap
     ethr =  1.04E-04,  avg # of iterations =  1.0

     total cpu time spent up to now is      589.4 secs

     total energy              =   -1967.88332940 Ry
     Harris-Foulkes estimate   =   -1968.02242482 Ry
     estimated scf accuracy    <       1.27141371 Ry

     total magnetization       =     8.00 Bohr mag/cell
     absolute magnetization    =     8.24 Bohr mag/cell

     iteration #  8     ecut=   100.00 Ry     beta= 0.70
     Davidson diagonalization with overlap
     ethr =  1.04E-04,  avg # of iterations =  1.0

     total cpu time spent up to now is      653.6 secs

     total energy              =   -1967.92546066 Ry
     Harris-Foulkes estimate   =   -1967.94098508 Ry
     estimated scf accuracy    <       0.13907269 Ry

     total magnetization       =     8.00 Bohr mag/cell
     absolute magnetization    =     8.25 Bohr mag/cell

     iteration #  9     ecut=   100.00 Ry     beta= 0.70
     Davidson diagonalization with overlap
     ethr =  2.90E-05,  avg # of iterations =  5.0

     total cpu time spent up to now is      724.6 secs

     total energy              =   -1967.93407350 Ry
     Harris-Foulkes estimate   =   -1967.93871215 Ry
     estimated scf accuracy    <       0.12989589 Ry

     total magnetization       =     8.00 Bohr mag/cell
     absolute magnetization    =     8.25 Bohr mag/cell

     iteration # 10     ecut=   100.00 Ry     beta= 0.70
     Davidson diagonalization with overlap
     ethr =  2.71E-05,  avg # of iterations =  1.0

     total cpu time spent up to now is      789.0 secs

     total energy              =   -1967.93210546 Ry
     Harris-Foulkes estimate   =   -1967.93814336 Ry
     estimated scf accuracy    <       0.07902001 Ry

     total magnetization       =     8.00 Bohr mag/cell
     absolute magnetization    =     8.25 Bohr mag/cell

     iteration # 11     ecut=   100.00 Ry     beta= 0.70
     Davidson diagonalization with overlap
     ethr =  1.65E-05,  avg # of iterations =  2.5

     total cpu time spent up to now is      856.1 secs

     total energy              =   -1967.94041178 Ry
     Harris-Foulkes estimate   =   -1967.93826246 Ry
     estimated scf accuracy    <       0.01592027 Ry

     total magnetization       =     8.00 Bohr mag/cell
     absolute magnetization    =     8.24 Bohr mag/cell

     iteration # 12     ecut=   100.00 Ry     beta= 0.70
     Davidson diagonalization with overlap
     ethr =  3.32E-06,  avg # of iterations =  7.0

     total cpu time spent up to now is      934.4 secs

     total energy              =   -1967.94186889 Ry
     Harris-Foulkes estimate   =   -1967.94145068 Ry
     estimated scf accuracy    <       0.00362077 Ry

     total magnetization       =     8.00 Bohr mag/cell
     absolute magnetization    =     8.22 Bohr mag/cell

     iteration # 13     ecut=   100.00 Ry     beta= 0.70
     Davidson diagonalization with overlap
     ethr =  7.54E-07,  avg # of iterations =  3.0

     total cpu time spent up to now is     1003.1 secs

     total energy              =   -1967.94214088 Ry
     Harris-Foulkes estimate   =   -1967.94266017 Ry
     estimated scf accuracy    <       0.01429824 Ry

     total magnetization       =     8.00 Bohr mag/cell
     absolute magnetization    =     8.21 Bohr mag/cell

     iteration # 14     ecut=   100.00 Ry     beta= 0.70
     Davidson diagonalization with overlap
     ethr =  7.54E-07,  avg # of iterations =  2.0

     total cpu time spent up to now is     1069.0 secs

     total energy              =   -1967.94305887 Ry
     Harris-Foulkes estimate   =   -1967.94268428 Ry
     estimated scf accuracy    <       0.00073721 Ry

     total magnetization       =     8.00 Bohr mag/cell
     absolute magnetization    =     8.21 Bohr mag/cell

     iteration # 15     ecut=   100.00 Ry     beta= 0.70
     Davidson diagonalization with overlap
     ethr =  1.54E-07,  avg # of iterations =  3.5

     total cpu time spent up to now is     1138.4 secs

     total energy              =   -1967.94325411 Ry
     Harris-Foulkes estimate   =   -1967.94310575 Ry
     estimated scf accuracy    <       0.00037276 Ry

     total magnetization       =     8.00 Bohr mag/cell
     absolute magnetization    =     8.21 Bohr mag/cell

     iteration # 16     ecut=   100.00 Ry     beta= 0.70
     Davidson diagonalization with overlap
     ethr =  7.77E-08,  avg # of iterations =  3.5

     total cpu time spent up to now is     1207.3 secs

     total energy              =   -1967.94328091 Ry
     Harris-Foulkes estimate   =   -1967.94327726 Ry
     estimated scf accuracy    <       0.00021332 Ry

     total magnetization       =     8.00 Bohr mag/cell
     absolute magnetization    =     8.21 Bohr mag/cell

     iteration # 17     ecut=   100.00 Ry     beta= 0.70
     Davidson diagonalization with overlap
     ethr =  4.44E-08,  avg # of iterations =  1.5

     total cpu time spent up to now is     1272.4 secs

     total energy              =   -1967.94329774 Ry
     Harris-Foulkes estimate   =   -1967.94329516 Ry
     estimated scf accuracy    <       0.00015290 Ry

     total magnetization       =     8.00 Bohr mag/cell
     absolute magnetization    =     8.21 Bohr mag/cell

     iteration # 18     ecut=   100.00 Ry     beta= 0.70
     Davidson diagonalization with overlap
     ethr =  3.19E-08,  avg # of iterations =  2.0

     total cpu time spent up to now is     1338.3 secs

     total energy              =   -1967.94330844 Ry
     Harris-Foulkes estimate   =   -1967.94330724 Ry
     estimated scf accuracy    <       0.00004585 Ry

     total magnetization       =     8.00 Bohr mag/cell
     absolute magnetization    =     8.21 Bohr mag/cell

     iteration # 19     ecut=   100.00 Ry     beta= 0.70
     Davidson diagonalization with overlap
     ethr =  9.55E-09,  avg # of iterations =  2.5

     total cpu time spent up to now is     1403.6 secs

     total energy              =   -1967.94330833 Ry
     Harris-Foulkes estimate   =   -1967.94331255 Ry
     estimated scf accuracy    <       0.00005315 Ry

     total magnetization       =     8.00 Bohr mag/cell
     absolute magnetization    =     8.21 Bohr mag/cell

     iteration # 20     ecut=   100.00 Ry     beta= 0.70
     Davidson diagonalization with overlap
     ethr =  9.55E-09,  avg # of iterations =  1.0

     total cpu time spent up to now is     1468.3 secs

     total energy              =   -1967.94331086 Ry
     Harris-Foulkes estimate   =   -1967.94331252 Ry
     estimated scf accuracy    <       0.00004607 Ry

     total magnetization       =     8.00 Bohr mag/cell
     absolute magnetization    =     8.21 Bohr mag/cell

     iteration # 21     ecut=   100.00 Ry     beta= 0.70
     Davidson diagonalization with overlap
     ethr =  9.55E-09,  avg # of iterations =  1.5

     total cpu time spent up to now is     1533.9 secs

     total energy              =   -1967.94331250 Ry
     Harris-Foulkes estimate   =   -1967.94331247 Ry
     estimated scf accuracy    <       0.00001272 Ry

     total magnetization       =     8.00 Bohr mag/cell
     absolute magnetization    =     8.21 Bohr mag/cell

     iteration # 22     ecut=   100.00 Ry     beta= 0.70
     Davidson diagonalization with overlap
     ethr =  2.65E-09,  avg # of iterations =  2.0

     total cpu time spent up to now is     1600.0 secs

     total energy              =   -1967.94331242 Ry
     Harris-Foulkes estimate   =   -1967.94331308 Ry
     estimated scf accuracy    <       0.00000512 Ry

     total magnetization       =     8.00 Bohr mag/cell
     absolute magnetization    =     8.21 Bohr mag/cell

     iteration # 23     ecut=   100.00 Ry     beta= 0.70
     Davidson diagonalization with overlap
     ethr =  1.07E-09,  avg # of iterations =  2.5

     total cpu time spent up to now is     1666.8 secs

     total energy              =   -1967.94331257 Ry
     Harris-Foulkes estimate   =   -1967.94331278 Ry
     estimated scf accuracy    <       0.00000449 Ry

     total magnetization       =     8.00 Bohr mag/cell
     absolute magnetization    =     8.21 Bohr mag/cell

     iteration # 24     ecut=   100.00 Ry     beta= 0.70
     Davidson diagonalization with overlap
     ethr =  9.35E-10,  avg # of iterations =  1.0

     total cpu time spent up to now is     1732.2 secs

     total energy              =   -1967.94331259 Ry
     Harris-Foulkes estimate   =   -1967.94331289 Ry
     estimated scf accuracy    <       0.00000502 Ry

     total magnetization       =     8.00 Bohr mag/cell
     absolute magnetization    =     8.21 Bohr mag/cell

     iteration # 25     ecut=   100.00 Ry     beta= 0.70
     Davidson diagonalization with overlap
     ethr =  9.35E-10,  avg # of iterations =  1.5
 
     Magnetic moment per site:
     atom:    1    charge:    0.8172    magn:    0.0050    constr:    0.0000
     atom:    2    charge:    0.8138    magn:    0.0084    constr:    0.0000
     atom:    3    charge:    0.8187    magn:    0.0043    constr:    0.0000
     atom:    4    charge:    0.8186    magn:    0.0040    constr:    0.0000
     atom:    5    charge:    0.8144    magn:    0.0062    constr:    0.0000
     atom:    6    charge:    0.8178    magn:    0.0054    constr:    0.0000
     atom:    7    charge:    0.8152    magn:    0.0081    constr:    0.0000
     atom:    8    charge:    0.8125    magn:    0.0082    constr:    0.0000
     atom:    9    charge:    0.8102    magn:    0.0057    constr:    0.0000
     atom:   10    charge:    0.8096    magn:    0.0054    constr:    0.0000
     atom:   11    charge:    0.8095    magn:    0.0048    constr:    0.0000
     atom:   12    charge:    0.8104    magn:    0.0057    constr:    0.0000
     atom:   13    charge:    0.8129    magn:    0.0051    constr:    0.0000
     atom:   14    charge:    0.8099    magn:    0.0049    constr:    0.0000
     atom:   15    charge:    0.8158    magn:    0.0064    constr:    0.0000
     atom:   16    charge:    0.8153    magn:    0.0065    constr:    0.0000
     atom:   17    charge:    0.8184    magn:    0.0057    constr:    0.0000
     atom:   18    charge:    0.8182    magn:    0.0059    constr:    0.0000
     atom:   19    charge:    0.8194    magn:    0.0037    constr:    0.0000
     atom:   20    charge:    0.8169    magn:    0.0037    constr:    0.0000
     atom:   21    charge:    0.7938    magn:   -0.0012    constr:    0.0000
     atom:   22    charge:    0.7948    magn:   -0.0011    constr:    0.0000
     atom:   23    charge:    0.7947    magn:   -0.0010    constr:    0.0000
     atom:   24    charge:    0.7968    magn:   -0.0013    constr:    0.0000
     atom:   25    charge:    0.8141    magn:    0.0082    constr:    0.0000
     atom:   26    charge:    0.8169    magn:    0.0051    constr:    0.0000
     atom:   27    charge:    0.8182    magn:    0.0032    constr:    0.0000
     atom:   28    charge:    0.8172    magn:    0.0036    constr:    0.0000
     atom:   29    charge:    0.8190    magn:    0.0059    constr:    0.0000
     atom:   30    charge:    0.8164    magn:    0.0062    constr:    0.0000
     atom:   31    charge:    0.8179    magn:    0.0048    constr:    0.0000
     atom:   32    charge:    0.8128    magn:    0.0084    constr:    0.0000
     atom:   33    charge:    0.8094    magn:    0.0049    constr:    0.0000
     atom:   34    charge:    0.8101    magn:    0.0055    constr:    0.0000
     atom:   35    charge:    0.8102    magn:    0.0056    constr:    0.0000
     atom:   36    charge:    0.8087    magn:    0.0049    constr:    0.0000
     atom:   37    charge:    0.8175    magn:    0.0064    constr:    0.0000
     atom:   38    charge:    0.8170    magn:    0.0071    constr:    0.0000
     atom:   39    charge:    0.8166    magn:    0.0067    constr:    0.0000
     atom:   40    charge:    0.8108    magn:    0.0049    constr:    0.0000
     atom:   41    charge:    0.8154    magn:    0.0065    constr:    0.0000
     atom:   42    charge:    0.8171    magn:    0.0054    constr:    0.0000
     atom:   43    charge:    0.8190    magn:    0.0042    constr:    0.0000
     atom:   44    charge:    0.8178    magn:    0.0041    constr:    0.0000
     atom:   45    charge:    0.7973    magn:   -0.0007    constr:    0.0000
     atom:   46    charge:    0.7978    magn:    0.0000    constr:    0.0000
     atom:   47    charge:    0.7941    magn:   -0.0010    constr:    0.0000
     atom:   48    charge:    0.7949    magn:   -0.0012    constr:    0.0000
     atom:   49    charge:    0.8135    magn:    0.0040    constr:    0.0000
     atom:   50    charge:    0.8205    magn:    0.0013    constr:    0.0000
     atom:   51    charge:    0.8196    magn:    0.0010    constr:    0.0000
     atom:   52    charge:    0.8182    magn:    0.0013    constr:    0.0000
     atom:   53    charge:    0.8224    magn:    0.0020    constr:    0.0000
     atom:   54    charge:    0.8155    magn:    0.0041    constr:    0.0000
     atom:   55    charge:    0.8155    magn:    0.0031    constr:    0.0000
     atom:   56    charge:    0.8174    magn:    0.0008    constr:    0.0000
     atom:   57    charge:    0.4761    magn:   -0.0011    constr:    0.0000
     atom:   58    charge:    0.4768    magn:   -0.0012    constr:    0.0000
     atom:   59    charge:    0.4732    magn:   -0.0011    constr:    0.0000
     atom:   60    charge:    0.4748    magn:   -0.0011    constr:    0.0000
     atom:   61    charge:    0.4769    magn:   -0.0008    constr:    0.0000
     atom:   62    charge:    0.4760    magn:   -0.0009    constr:    0.0000
     atom:   63    charge:    0.4792    magn:   -0.0010    constr:    0.0000
     atom:   64    charge:    0.4783    magn:   -0.0009    constr:    0.0000
     atom:   65    charge:    0.4753    magn:   -0.0008    constr:    0.0000
     atom:   66    charge:    0.4759    magn:   -0.0006    constr:    0.0000
     atom:   67    charge:    0.4929    magn:   -0.0003    constr:    0.0000
     atom:   68    charge:    0.4928    magn:   -0.0003    constr:    0.0000
     atom:   69    charge:    0.4744    magn:   -0.0011    constr:    0.0000
     atom:   70    charge:    0.4751    magn:   -0.0012    constr:    0.0000
     atom:   71    charge:    0.4788    magn:   -0.0010    constr:    0.0000
     atom:   72    charge:    0.4753    magn:   -0.0009    constr:    0.0000
     atom:   73    charge:    0.4770    magn:   -0.0008    constr:    0.0000
     atom:   74    charge:    0.4776    magn:   -0.0008    constr:    0.0000
     atom:   75    charge:    0.4916    magn:   -0.0001    constr:    0.0000
     atom:   76    charge:    0.4932    magn:    0.0001    constr:    0.0000
     atom:   77    charge:    0.4908    magn:   -0.0002    constr:    0.0000
     atom:   78    charge:    0.4760    magn:   -0.0007    constr:    0.0000
     atom:   79    charge:    0.4733    magn:   -0.0011    constr:    0.0000
     atom:   80    charge:    0.4753    magn:   -0.0011    constr:    0.0000
     atom:   81    charge:    0.4694    magn:    0.0051    constr:    0.0000
     atom:   82    charge:    0.4952    magn:    0.0071    constr:    0.0000
     atom:   83    charge:    0.4943    magn:    0.0070    constr:    0.0000
     atom:   84    charge:    0.4958    magn:    0.0074    constr:    0.0000
     atom:   85    charge:    0.5043    magn:    0.0073    constr:    0.0000
     atom:   86    charge:    0.4714    magn:    0.0050    constr:    0.0000
     atom:   87    charge:    0.4720    magn:    0.0056    constr:    0.0000
     atom:   88    charge:    0.4939    magn:    0.0070    constr:    0.0000
     atom:   89    charge:    2.4470    magn:    0.0120    constr:    0.0000
     atom:   90    charge:    2.4475    magn:    0.0125    constr:    0.0000
     atom:   91    charge:    2.4509    magn:    0.0118    constr:    0.0000
     atom:   92    charge:    2.4473    magn:    0.0122    constr:    0.0000
     atom:   93    charge:    2.4486    magn:    0.0123    constr:    0.0000
     atom:   94    charge:    2.4468    magn:    0.0127    constr:    0.0000
     atom:   95    charge:    2.4501    magn:    0.0120    constr:    0.0000
     atom:   96    charge:    2.4472    magn:    0.0122    constr:    0.0000
     atom:   97    charge:    7.4388    magn:    1.0541    constr:    0.0000
     atom:   98    charge:    7.4362    magn:    1.0505    constr:    0.0000
     atom:   99    charge:    7.4462    magn:    1.0541    constr:    0.0000
     atom:  100    charge:    7.4396    magn:    1.0564    constr:    0.0000
     atom:  101    charge:    3.0141    magn:    0.0436    constr:    0.0000
     atom:  102    charge:    3.0172    magn:    0.0574    constr:    0.0000
     atom:  103    charge:    3.0094    magn:    0.0477    constr:    0.0000
     atom:  104    charge:    3.0155    magn:    0.0437    constr:    0.0000
     atom:  105    charge:    3.0190    magn:    0.0461    constr:    0.0000
     atom:  106    charge:    3.0093    magn:    0.0498    constr:    0.0000
     atom:  107    charge:    3.0071    magn:    0.0446    constr:    0.0000
     atom:  108    charge:    3.0107    magn:    0.0494    constr:    0.0000
     atom:  109    charge:    3.0096    magn:    0.0469    constr:    0.0000
     atom:  110    charge:    3.0146    magn:    0.0445    constr:    0.0000
     atom:  111    charge:    3.0194    magn:    0.0569    constr:    0.0000
     atom:  112    charge:    3.0154    magn:    0.0571    constr:    0.0000
     atom:  113    charge:    3.0119    magn:    0.0482    constr:    0.0000
     atom:  114    charge:    3.0109    magn:    0.0513    constr:    0.0000
     atom:  115    charge:    3.0168    magn:    0.0477    constr:    0.0000
     atom:  116    charge:    3.0159    magn:    0.0401    constr:    0.0000
     atom:  117    charge:    3.0384    magn:    0.0548    constr:    0.0000
     atom:  118    charge:    3.0181    magn:    0.0539    constr:    0.0000
     atom:  119    charge:    3.0173    magn:    0.0531    constr:    0.0000
     atom:  120    charge:    3.0168    magn:    0.0516    constr:    0.0000
     atom:  121    charge:    3.0173    magn:    0.0502    constr:    0.0000
     atom:  122    charge:    3.0462    magn:    0.0498    constr:    0.0000
     atom:  123    charge:    3.0395    magn:    0.0507    constr:    0.0000
     atom:  124    charge:    3.0161    magn:    0.0550    constr:    0.0000

     total cpu time spent up to now is     1797.3 secs

     End of self-consistent calculation

 ------ SPIN UP ------------


          k = 0.0000 0.0000 0.0000 ( 91663 PWs)   bands (ev):

   -22.3887 -22.2937 -21.8963 -21.5758 -21.5033 -21.4953 -21.4873 -21.4451
   -21.2387 -21.1756 -21.1184 -20.7156 -20.7061 -20.7011 -20.6534 -20.6180
   -18.9832 -18.8437 -18.6964 -18.5532 -18.5409 -18.5347 -18.5307 -18.5209
   -18.4075 -18.3726 -18.3538 -18.3071 -18.2633 -18.2479 -18.2233 -18.1499
   -14.8569 -14.8310 -14.7998 -14.7792 -14.7393 -14.7243 -14.7076 -14.6730
   -13.9428 -13.9107 -13.7918 -13.7729 -13.7433 -13.4411 -13.3877 -13.3461
   -11.7318 -11.5715 -11.4867 -11.4532 -11.2730 -11.1832 -11.0774 -11.0356
   -10.9173 -10.8353 -10.7434 -10.7111 -10.6930 -10.6432 -10.5948 -10.5671
    -9.9521  -9.8297  -9.6679  -9.6405  -9.5285  -9.4722  -9.3407  -9.2003
    -8.7101  -8.5651  -8.5263  -8.4077  -8.3632  -8.1727  -7.9816  -7.8489
    -7.8134  -7.5639  -7.3733  -7.3398  -7.2554  -7.1219  -7.0566  -7.0359
    -7.0158  -6.9439  -6.9087  -6.8626  -6.8142  -6.7761  -6.6961  -6.6567
    -6.6057  -6.6007  -6.4864  -6.3397  -6.3131  -6.2751  -6.2176  -6.1875
    -6.1053  -6.0398  -5.9956  -5.9815  -5.8933  -5.8503  -5.8174  -5.7780
    -5.7532  -5.6882  -5.6455  -5.6350  -5.5901  -5.5280  -5.5133  -5.4590
    -5.4556  -5.4310  -5.4065  -5.3733  -5.3404  -5.3174  -5.2995  -5.2510
    -5.2254  -5.1850  -5.1425  -5.1094  -5.0838  -5.0704  -5.0364  -4.9456
    -4.9243  -4.8776  -4.8473  -4.7609  -4.7390  -4.6959  -4.6439  -4.5955
    -4.5503  -4.4955  -4.4679  -4.4046  -4.3664  -4.2501  -4.1936  -4.1139
    -4.1037  -4.0520  -3.9840  -3.9449  -3.8512  -3.8172  -3.7344  -3.6416
    -3.6309  -3.5827  -3.5617  -3.5197  -3.4785  -3.4361  -3.3944  -3.3841
    -3.3160  -3.2920  -3.2227  -3.1677  -3.1586  -3.0354  -3.0093  -2.9396
    -2.8118  -2.7900  -2.6926  -2.6391  -2.5659  -2.3976  -2.3700  -2.3403
    -2.2946  -2.2300  -2.1914  -2.1720  -2.1657  -2.0982  -2.0805  -2.0599
    -2.0337  -1.9600  -1.9455  -1.8422  -1.7961  -1.6793  -1.6660  -1.6624
    -1.6220  -1.5750  -1.5636  -1.5144  -1.4714  -1.4378  -1.4348  -1.3478
    -1.3411  -1.2954  -1.2793  -1.2324  -1.1978  -1.1627  -1.1481  -1.1258
    -1.0978  -1.0775  -1.0477  -1.0275  -1.0198  -0.9986  -0.9627  -0.9318
    -0.9083  -0.8793  -0.8300  -0.7381  -0.5314  -0.4959  -0.3596  -0.2989
    -0.2792   0.0843   0.1887   0.2331   0.7456   0.8035   0.8327   0.9245
     1.0745   1.1096   1.1478   1.1601   2.1033   2.3070   2.3821   2.4956
     2.5136   2.5444   2.6423   2.6875   2.9387   3.0442   3.1198   3.1867
     3.1951   3.2892   3.4042   3.4375   4.6161   4.7816   4.8672   4.9389
     4.9558   5.0333   5.1242   5.1482   5.2252   5.2789   5.3811   5.4769
     5.5131   5.5567   5.5783   5.6182   5.6501   5.6738   5.7480   5.8311
     6.2108   6.2385   6.2999   6.4082   6.5134   6.5908   6.6537   6.9009
     7.0209   7.0897   7.1564   7.2485   7.3908

 ------ SPIN DOWN ----------


          k = 0.0000 0.0000 0.0000 ( 91663 PWs)   bands (ev):

   -22.2775 -22.1851 -21.7889 -21.4822 -21.4120 -21.4006 -21.3946 -21.3520
   -21.1415 -21.0742 -21.0159 -20.6140 -20.5997 -20.5928 -20.5427 -20.5131
   -18.8675 -18.7216 -18.5640 -18.4352 -18.4244 -18.4154 -18.4120 -18.4039
   -18.3694 -18.3368 -18.3179 -18.2713 -18.2280 -18.2143 -18.1906 -18.1164
   -14.8185 -14.7934 -14.7608 -14.7409 -14.6998 -14.6860 -14.6677 -14.6324
   -13.8987 -13.8665 -13.7470 -13.7312 -13.6986 -13.4020 -13.3454 -13.3038
   -11.6799 -11.5202 -11.4401 -11.4046 -11.2292 -11.1366 -11.0324 -10.9873
   -10.8725 -10.7918 -10.7016 -10.6707 -10.6539 -10.6036 -10.5545 -10.5276
    -9.9079  -9.7842  -9.6261  -9.5982  -9.4869  -9.4033  -9.2699  -9.1467
    -8.6719  -8.5285  -8.4863  -8.3654  -8.3219  -8.1286  -7.9246  -7.8001
    -7.7436  -7.4812  -7.3040  -7.2745  -7.1983  -7.0608  -7.0036  -6.9813
    -6.9682  -6.8834  -6.8535  -6.8072  -6.7526  -6.7186  -6.6402  -6.5904
    -6.5429  -6.5345  -6.4145  -6.2721  -6.2411  -6.2035  -6.1441  -6.1123
    -6.0208  -5.9702  -5.9061  -5.9030  -5.8223  -5.7670  -5.7314  -5.6888
    -5.6691  -5.6128  -5.5605  -5.5462  -5.5128  -5.4392  -5.4233  -5.3784
    -5.3492  -5.3267  -5.3076  -5.2828  -5.2608  -5.2361  -5.2078  -5.1809
    -5.1329  -5.1102  -5.0680  -5.0511  -5.0236  -5.0146  -4.9824  -4.8940
    -4.8578  -4.8138  -4.7731  -4.6985  -4.6816  -4.6314  -4.5859  -4.5233
    -4.4747  -4.4287  -4.3878  -4.3181  -4.2816  -4.1791  -4.1012  -4.0373
    -4.0107  -3.9527  -3.8961  -3.8491  -3.7720  -3.6990  -3.6469  -3.5021
    -3.4770  -3.4583  -3.3940  -3.3881  -3.3295  -3.3198  -3.3040  -3.2545
    -3.2156  -3.1562  -3.1269  -3.0503  -2.8704  -2.7289  -2.6942  -2.6352
    -2.5531  -2.5329  -2.4875  -2.3436  -2.2960  -2.1727  -2.1303  -2.0423
    -2.0342  -1.9883  -1.9152  -1.8887  -1.8473  -1.8373  -1.8016  -1.7737
    -1.7036  -1.6743  -1.5995  -1.5376  -1.5011  -1.4715  -1.4145  -1.3837
    -1.3700  -1.3423  -1.3214  -1.2826  -1.2392  -1.1957  -1.1470  -1.0514
    -1.0135  -0.9742  -0.9443  -0.8916  -0.8539  -0.8364  -0.7582  -0.6992
    -0.6151  -0.5428  -0.5085  -0.4297  -0.3927  -0.3642  -0.3095  -0.2975
    -0.2830  -0.2760  -0.2667  -0.2265  -0.1924  -0.1747  -0.0999  -0.0371
     0.0096   0.3556   0.4936   0.6185   1.4762   1.4910   1.5219   1.5783
     1.7410   1.7514   1.7784   1.8095   2.1992   2.4006   2.4843   2.5823
     2.6088   2.6367   2.7387   2.7908   3.0422   3.1440   3.2141   3.2766
     3.2829   3.3851   3.4961   3.5273   4.6579   4.8554   4.9424   5.0164
     5.0316   5.1112   5.1927   5.2181   5.2883   5.3425   5.4526   5.5463
     5.5825   5.6206   5.6363   5.6827   5.7238   5.7392   5.8143   5.8855
     6.2469   6.2715   6.3394   6.4482   6.5488   6.6239   6.6849   6.9447
     7.0601   7.1278   7.1851   7.2871   7.4266

     the spin up/dw Fermi energies are     1.2695    0.9571 ev

!    total energy              =   -1967.94331266 Ry
     Harris-Foulkes estimate   =   -1967.94331278 Ry
     estimated scf accuracy    <       0.00000081 Ry

     The total energy is the sum of the following terms:

     one-electron contribution =   -2747.63370802 Ry
     hartree contribution      =    1557.13743832 Ry
     xc contribution           =    -576.45494060 Ry
     ewald contribution        =    -203.08104952 Ry
     Dispersion Correction     =      -0.58910050 Ry
     smearing contrib. (-TS)   =       2.67804764 Ry

     total magnetization       =     8.00 Bohr mag/cell
     absolute magnetization    =     8.21 Bohr mag/cell

     convergence has been achieved in  25 iterations

     Forces acting on atoms (cartesian axes, Ry/au):

     atom    1 type  1   force =     0.00185019   -0.00287509    0.00706784
     atom    2 type  1   force =    -0.02270928   -0.01148286   -0.02759994
     atom    3 type  1   force =     0.00282911    0.01796783   -0.01630332
     atom    4 type  1   force =     0.01094400   -0.01593946   -0.00864557
     atom    5 type  1   force =     0.04751756    0.01386022    0.00676684
     atom    6 type  1   force =    -0.00902138    0.00665319   -0.00219071
     atom    7 type  1   force =     0.02467190   -0.01013236   -0.02658539
     atom    8 type  1   force =     0.02413671    0.01191348   -0.02467105
     atom    9 type  1   force =    -0.01031579    0.01409414    0.01906333
     atom   10 type  1   force =    -0.00352137   -0.00878932    0.02080047
     atom   11 type  1   force =     0.00257481    0.00633609   -0.00242317
     atom   12 type  1   force =     0.00952148    0.01959135    0.01827641
     atom   13 type  1   force =    -0.01072783   -0.00966492    0.00281914
     atom   14 type  1   force =     0.00417379   -0.00110104    0.00018593
     atom   15 type  1   force =     0.04316879    0.03104521   -0.07804916
     atom   16 type  1   force =     0.04407556   -0.03304571   -0.07787448
     atom   17 type  1   force =     0.00994187    0.01120937   -0.01455339
     atom   18 type  1   force =     0.01010154   -0.01111523   -0.01683054
     atom   19 type  1   force =    -0.01247778   -0.01399206   -0.00757093
     atom   20 type  1   force =    -0.01414682    0.01904386   -0.01241696
     atom   21 type  1   force =    -0.01064086    0.00160270   -0.00723483
     atom   22 type  1   force =     0.00978291   -0.00244481    0.00450183
     atom   23 type  1   force =    -0.00933754   -0.00241819    0.00338755
     atom   24 type  1   force =    -0.02886648   -0.00271140    0.03234269
     atom   25 type  1   force =    -0.02649032    0.01064753   -0.02534959
     atom   26 type  1   force =    -0.00271339    0.00411722    0.01172014
     atom   27 type  1   force =     0.01587633    0.02094492   -0.01241141
     atom   28 type  1   force =     0.00482265   -0.02274437   -0.02069421
     atom   29 type  1   force =    -0.00906652   -0.01283235   -0.02132439
     atom   30 type  1   force =     0.05966327   -0.01593990   -0.00934347
     atom   31 type  1   force =    -0.00156600    0.00370409    0.00842503
     atom   32 type  1   force =     0.02422345    0.01226623   -0.02706947
     atom   33 type  1   force =    -0.00462993   -0.01189142   -0.00305069
     atom   34 type  1   force =    -0.00284635   -0.01506710    0.02220100
     atom   35 type  1   force =     0.01228019   -0.01228166    0.01578211
     atom   36 type  1   force =     0.00511978   -0.01185747   -0.00260240
     atom   37 type  1   force =    -0.04533615   -0.04366061   -0.09034775
     atom   38 type  1   force =    -0.05670241    0.05687582   -0.09315120
     atom   39 type  1   force =     0.04874817    0.04000116   -0.07136519
     atom   40 type  1   force =    -0.00661621    0.00245045   -0.00043349
     atom   41 type  1   force =    -0.05103649   -0.01631392   -0.00423646
     atom   42 type  1   force =     0.00779603   -0.00548641   -0.00236230
     atom   43 type  1   force =    -0.00231969   -0.01451089   -0.01334895
     atom   44 type  1   force =    -0.01047978    0.01665680   -0.01045001
     atom   45 type  1   force =     0.04876359   -0.00582274    0.05825259
     atom   46 type  1   force =     0.04354937    0.01437053    0.06497128
     atom   47 type  1   force =     0.00871063    0.00106328   -0.00589442
     atom   48 type  1   force =    -0.01055285    0.00020370    0.00453385
     atom   49 type  1   force =    -0.13206717   -0.06535021   -0.01529595
     atom   50 type  1   force =    -0.00688264    0.13461340    0.12441045
     atom   51 type  1   force =    -0.00234271    0.12507457    0.11757450
     atom   52 type  1   force =     0.04570878   -0.12479117    0.14780108
     atom   53 type  1   force =    -0.03736022   -0.14057410    0.15670496
     atom   54 type  1   force =    -0.11545723    0.04929960   -0.04359586
     atom   55 type  1   force =     0.08978890    0.05278842   -0.02301727
     atom   56 type  1   force =     0.00924378   -0.12709333    0.11771042
     atom   57 type  2   force =     0.00149388    0.00143868   -0.00080446
     atom   58 type  2   force =     0.00051982   -0.00081449    0.00466349
     atom   59 type  2   force =     0.00294512    0.00577793   -0.00440816
     atom   60 type  2   force =    -0.00030844   -0.00210233   -0.00248292
     atom   61 type  2   force =    -0.00325786   -0.00016297   -0.00470857
     atom   62 type  2   force =     0.00062058    0.00198511   -0.00349787
     atom   63 type  2   force =     0.00017675   -0.00024242    0.00049842
     atom   64 type  2   force =     0.00048542    0.00026578    0.00189377
     atom   65 type  2   force =    -0.00213828   -0.00017385    0.00191668
     atom   66 type  2   force =    -0.00173315   -0.00106055   -0.00076895
     atom   67 type  2   force =     0.02564163    0.06380328   -0.04027511
     atom   68 type  2   force =     0.02610733   -0.06427270   -0.03897399
     atom   69 type  2   force =    -0.00239771    0.00527306   -0.00563528
     atom   70 type  2   force =    -0.00208840   -0.00180853   -0.00046892
     atom   71 type  2   force =    -0.00077445    0.00111676    0.00214661
     atom   72 type  2   force =     0.00070900    0.00173774   -0.00256546
     atom   73 type  2   force =     0.00429545   -0.00166651   -0.00731247
     atom   74 type  2   force =     0.00369275   -0.00035009   -0.00713498
     atom   75 type  2   force =    -0.02021610   -0.07075666   -0.03628281
     atom   76 type  2   force =    -0.02306819    0.08586908   -0.04409730
     atom   77 type  2   force =     0.02246063    0.06479586   -0.03852567
     atom   78 type  2   force =     0.00046384    0.00111888   -0.00021445
     atom   79 type  2   force =    -0.00268319   -0.00544982   -0.00400764
     atom   80 type  2   force =     0.00023070    0.00200878   -0.00402112
     atom   81 type  2   force =     0.01259091    0.03918978   -0.03462945
     atom   82 type  2   force =     0.06860959    0.02019237    0.03712318
     atom   83 type  2   force =    -0.07028743    0.01307135    0.03301678
     atom   84 type  2   force =    -0.05056487   -0.00349311    0.04674693
     atom   85 type  2   force =     0.05407421   -0.02529527    0.05792598
     atom   86 type  2   force =     0.00923721   -0.03625200   -0.03702521
     atom   87 type  2   force =    -0.00686000   -0.03856593   -0.03923833
     atom   88 type  2   force =    -0.06860120   -0.01304209    0.03293014
     atom   89 type  3   force =     0.00722917   -0.00336200    0.00588900
     atom   90 type  3   force =    -0.00436748    0.00080029   -0.00848845
     atom   91 type  3   force =    -0.00418460    0.00539570   -0.00525817
     atom   92 type  3   force =    -0.00241829   -0.00373235   -0.00363923
     atom   93 type  3   force =     0.00248504   -0.00653214   -0.00100981
     atom   94 type  3   force =     0.01048106    0.00783336    0.01166873
     atom   95 type  3   force =    -0.01320246    0.00704094    0.00884676
     atom   96 type  3   force =     0.00567421   -0.00012568   -0.00763280
     atom   97 type  4   force =     0.00826438    0.00382537   -0.00025391
     atom   98 type  4   force =    -0.00040323   -0.00112273    0.00179207
     atom   99 type  4   force =     0.02069524   -0.01353471   -0.00408682
     atom  100 type  4   force =     0.01072843    0.00801521    0.00131390
     atom  101 type  5   force =     0.00380543   -0.00458307   -0.00438262
     atom  102 type  5   force =    -0.00193600    0.11099443    0.05512011
     atom  103 type  5   force =     0.00055567   -0.00137125    0.00371710
     atom  104 type  5   force =    -0.00802626   -0.00439135   -0.00630771
     atom  105 type  5   force =    -0.00206388   -0.01629517   -0.00459586
     atom  106 type  5   force =     0.01688120    0.00761870    0.00049927
     atom  107 type  5   force =    -0.02288700   -0.00479811   -0.00538446
     atom  108 type  5   force =    -0.00076350    0.00295629   -0.00022817
     atom  109 type  5   force =     0.00029468    0.00124166    0.00331572
     atom  110 type  5   force =     0.00464194    0.00745182   -0.00485681
     atom  111 type  5   force =    -0.01560220    0.15574191    0.06901466
     atom  112 type  5   force =    -0.02924648   -0.15520125    0.06704994
     atom  113 type  5   force =    -0.00087405    0.00254303   -0.00002051
     atom  114 type  5   force =     0.00517384    0.00921931    0.00331499
     atom  115 type  5   force =    -0.00190723    0.01967575   -0.00089161
     atom  116 type  5   force =    -0.02878590   -0.01474116   -0.00964723
     atom  117 type  5   force =     0.05097717    0.16467006   -0.05865180
     atom  118 type  5   force =     0.01670976   -0.00077877    0.00305784
     atom  119 type  5   force =    -0.01173318   -0.00276270    0.00125575
     atom  120 type  5   force =    -0.03093131    0.00396302   -0.00290350
     atom  121 type  5   force =     0.02488936   -0.00204104    0.00045816
     atom  122 type  5   force =     0.06131675   -0.15039186   -0.06379090
     atom  123 type  5   force =    -0.04280777   -0.10588637   -0.05280947
     atom  124 type  5   force =    -0.02139204    0.00406469   -0.00026253

     Total force =     0.749626     Total SCF correction =     0.002102

     BFGS Geometry Optimization

     number of scf cycles    =   1
     number of bfgs steps    =   0

     energy   new            =   -1967.9433126614 Ry

     new trust radius        =       0.2138067110 bohr
     new conv_thr            =       0.0000010000 Ry


ATOMIC_POSITIONS (crystal)
C             0.2882969164        0.9699285128        0.5223480296
C             0.0373921807        0.0306207910        0.0208864640
C             0.3907384323        0.0125292322        0.5456522966
C             0.1406989939        0.9870704771        0.0457007096
C             0.4539320588        0.9707876648        0.6507195264
C             0.2021362050        0.0286341308        0.1497801672
C             0.2092000768        0.5292758565        0.5250147185
C             0.4595432246        0.4719124052        0.0266333162
C             0.2447183542        0.6139265488        0.6074168575
C             0.4966894899        0.3883056066        0.1096883290
C             0.2495826824        0.8894737318        0.6030781945
C             0.0014890349        0.1130598338        0.1051883274
C             0.4075256920        0.8889746082        0.7276972001
C             0.1601117893        0.1095004754        0.2278215765
C             0.0906155366        0.6102948175        0.7233320746
C             0.3426820707        0.3902366512        0.2253830712
C             0.0473320506        0.5255526528        0.6505624271
C             0.2980696727        0.4742413253        0.1518871424
C             0.1076289031        0.4836787644        0.5497260591
C             0.3572217351        0.5164606995        0.0499984639
C             0.4328529479        0.0993867223        0.4662483700
C             0.1819351858        0.8996166943        0.9659038669
C             0.0669860551        0.3943718190        0.4708504757
C             0.3148518254        0.6040574295        0.9707728115
C             0.7870672945        0.9704999121        0.5206783680
C             0.5382751684        0.0312799734        0.0229116464
C             0.8912941765        0.0126550290        0.5458527499
C             0.6404286738        0.9867829348        0.0450801435
C             0.9515113597        0.9696597679        0.6492726861
C             0.7050359064        0.0276794585        0.1494117643
C             0.7081236317        0.5298605165        0.5268179317
C             0.9595456467        0.4719273106        0.0265097857
C             0.7449382237        0.6128285270        0.6062778738
C             0.9967193662        0.3880403387        0.1097604637
C             0.7500104325        0.8886870377        0.6040158581
C             0.5012832051        0.1117309616        0.1041129631
C             0.9059739024        0.8875381175        0.7228986353
C             0.6574473090        0.1119502922        0.2230142430
C             0.5908578948        0.6106732519        0.7236763324
C             0.8406096272        0.3917365440        0.2293716732
C             0.5447614086        0.5243896542        0.6510938009
C             0.7979856765        0.4744791714        0.1526323297
C             0.6080533290        0.4836568412        0.5494284619
C             0.8573787505        0.5163598343        0.0500997716
C             0.9354280457        0.0990729598        0.4696213023
C             0.6834207024        0.9003272277        0.9690183490
C             0.5677400670        0.3945189290        0.4703724076
C             0.8156007035        0.6041806075        0.9693405162
C             0.5580652110        0.0032956218        0.6859361813
C             0.9635343770        1.0023970991        0.9192667658
C             0.2809360774        0.5003590356        0.4252496801
C             0.5332267199        0.5013179398        0.9281955015
C             0.7129299829        0.0000780308        0.4205280963
C             0.8090465371        0.9931381583        0.1830755933
C             0.4412308615        0.4874315788        0.6844144943
C             0.0316564893        0.5012206618        0.9266466807
H             0.2371864598        0.9996357915        0.4430715664
H             0.4865643676        0.0026575837        0.9437391930
H             0.0321834915        0.9990491467        0.6732929575
H             0.2823246210        0.9985761658        0.1724741169
H             0.3224987293        0.6504991137        0.5923924849
H             0.0749909814        0.3529348809        0.0948478418
H             0.1701619465        0.8551127567        0.5885856709
H             0.4223443159        0.1477432307        0.0899835385
H             0.4532813149        0.8551656538        0.8088597187
H             0.2061649404        0.1430581863        0.3087573952
H             0.0447762791        0.6456400124        0.8045336285
H             0.2974462047        0.3548101520        0.3070436428
H             0.2188452580        0.5054238136        0.1749737547
H             0.7586111895        0.5008185805        0.4492578481
H             0.8226102409        0.6505531888        0.5927455612
H             0.5749955969        0.3529244285        0.0948958656
H             0.6703289084        0.8550525813        0.5881833709
H             0.9224715716        0.1477172068        0.0895185125
H             0.9524805412        0.8521831721        0.8068922521
H             0.7052225295        0.1467314046        0.3065257663
H             0.5446433142        0.6456819540        0.8046237337
H             0.7963974266        0.3575732785        0.3090399549
H             0.9685547037        0.4930007172        0.6732955861
H             0.7189579929        0.5052858813        0.1750568920
H             0.6049043268        0.0688319670        0.6323174088
H             0.9872740276        0.9363762302        0.8467690313
H             0.2572877206        0.4325233310        0.3544415307
H             0.5075981550        0.5688943983        0.8559597028
H             0.7384444595        0.0660931463        0.3479234804
H             0.8540691686        0.9280601689        0.1302440151
H             0.3980609372        0.4198573937        0.6315150281
H             0.0068229926        0.5684919055        0.8552490685
N             0.3087484242        0.8511109386        0.7051313134
N             0.0605362326        0.1488908163        0.2056148021
N             0.1863599990        0.6505379957        0.7055671779
N             0.4387042583        0.3507702894        0.2078535615
N             0.8085412083        0.8509769840        0.7047759898
N             0.5611834461        0.1491879990        0.2066529986
N             0.6859926276        0.6506075154        0.7062936525
N             0.9390429506        0.3509226893        0.2076478721
Ni            0.2473514709        0.7516476411        0.8363129225
Ni            0.4999566172        0.2479515589        0.3392703007
Ni            0.7478738929        0.7509140897        0.8361155080
Ni            1.0004272074        0.2483376833        0.3392456726
O             0.1229349194        0.3474953418        0.3826472730
O             0.3711777452        0.6556670781        0.8841309640
O             0.3776569975        0.1474490576        0.3773694493
O             0.1247524546        0.8521664432        0.8759361209
O             0.4729773584        0.3554714466        0.4827572901
O             0.2218517996        0.6417369287        0.9799027150
O             0.0278664845        0.1349552556        0.4808006731
O             0.2766534783        0.8628829182        0.9793872479
O             0.6227945774        0.3477414666        0.3830437764
O             0.8713998723        0.6512918772        0.8810418496
O             0.8770344812        0.1540878860        0.3807326031
O             0.6239232788        0.8457939596        0.8797144105
O             0.9730319951        0.3562674557        0.4829929438
O             0.7213590394        0.6418045627        0.9800477386
O             0.5287584593        0.1359894005        0.4810320773
O             0.7754588755        0.8621351112        0.9789021191
O             0.6141401324        0.9727531457        0.7759131362
O             0.8766169436        0.0383040930        0.8983784940
O             0.3667146851        0.5386122617        0.4047086774
O             0.6168104134        0.4643044577        0.9065564549
O             0.6270276282        0.9656877557        0.3972285976
O             0.8657848369        0.0241271806        0.2740924467
O             0.3871910783        0.5205747637        0.7727290458
O             0.1172175450        0.4643097539        0.9066934786



     Writing output data file ./QE_relaxation_results/pbesol_relax/NiPyC2_relax_sc211_meta_functionalized_CH-O_pbesol_relax.save/
     NEW-OLD atomic charge density approx. for the potential

     Check: negative core charge=   -0.000145

     total cpu time spent up to now is     1824.1 secs

     Self-consistent Calculation

     iteration #  1     ecut=   100.00 Ry     beta= 0.70
     Davidson diagonalization with overlap
     ethr =  1.00E-06,  avg # of iterations = 10.0

     total cpu time spent up to now is     2169.7 secs

     total energy              =   -1968.21679197 Ry
     Harris-Foulkes estimate   =   -1968.25256179 Ry
     estimated scf accuracy    <       0.11009387 Ry

     total magnetization       =     8.00 Bohr mag/cell
     absolute magnetization    =     8.22 Bohr mag/cell

     iteration #  2     ecut=   100.00 Ry     beta= 0.70
     Davidson diagonalization with overlap
     ethr =  2.29E-05,  avg # of iterations =  2.0

     total cpu time spent up to now is     2237.0 secs

     total energy              =   -1968.21812503 Ry
     Harris-Foulkes estimate   =   -1968.22605906 Ry
     estimated scf accuracy    <       0.02199988 Ry

     total magnetization       =     8.00 Bohr mag/cell
     absolute magnetization    =     8.22 Bohr mag/cell

     iteration #  3     ecut=   100.00 Ry     beta= 0.70
     Davidson diagonalization with overlap
     ethr =  4.58E-06,  avg # of iterations =  2.0

     total cpu time spent up to now is     2311.9 secs

     total energy              =   -1968.21566017 Ry
     Harris-Foulkes estimate   =   -1968.22716655 Ry
     estimated scf accuracy    <       0.13471560 Ry

     total magnetization       =     8.00 Bohr mag/cell
     absolute magnetization    =     8.22 Bohr mag/cell

     iteration #  4     ecut=   100.00 Ry     beta= 0.70
     Davidson diagonalization with overlap
     ethr =  4.58E-06,  avg # of iterations =  2.0

     total cpu time spent up to now is     2379.1 secs

     total energy              =   -1968.22114478 Ry
     Harris-Foulkes estimate   =   -1968.22240850 Ry
     estimated scf accuracy    <       0.01256962 Ry

     total magnetization       =     8.00 Bohr mag/cell
     absolute magnetization    =     8.22 Bohr mag/cell

     iteration #  5     ecut=   100.00 Ry     beta= 0.70
     Davidson diagonalization with overlap
     ethr =  2.62E-06,  avg # of iterations =  1.0

     total cpu time spent up to now is     2443.3 secs

     total energy              =   -1968.22153605 Ry
     Harris-Foulkes estimate   =   -1968.22168757 Ry
     estimated scf accuracy    <       0.00091944 Ry

     total magnetization       =     8.00 Bohr mag/cell
     absolute magnetization    =     8.22 Bohr mag/cell

     iteration #  6     ecut=   100.00 Ry     beta= 0.70
     Davidson diagonalization with overlap
     ethr =  1.92E-07,  avg # of iterations =  2.5

     total cpu time spent up to now is     2510.5 secs

     total energy              =   -1968.22144882 Ry
     Harris-Foulkes estimate   =   -1968.22169623 Ry
     estimated scf accuracy    <       0.00205781 Ry

     total magnetization       =     8.00 Bohr mag/cell
     absolute magnetization    =     8.22 Bohr mag/cell

     iteration #  7     ecut=   100.00 Ry     beta= 0.70
     Davidson diagonalization with overlap
     ethr =  1.92E-07,  avg # of iterations =  2.0

     total cpu time spent up to now is     2577.5 secs

     total energy              =   -1968.22154361 Ry
     Harris-Foulkes estimate   =   -1968.22160520 Ry
     estimated scf accuracy    <       0.00072302 Ry

     total magnetization       =     8.00 Bohr mag/cell
     absolute magnetization    =     8.22 Bohr mag/cell

     iteration #  8     ecut=   100.00 Ry     beta= 0.70
     Davidson diagonalization with overlap
     ethr =  1.51E-07,  avg # of iterations =  1.0

     total cpu time spent up to now is     2641.9 secs

     total energy              =   -1968.22152834 Ry
     Harris-Foulkes estimate   =   -1968.22159066 Ry
     estimated scf accuracy    <       0.00057991 Ry

     total magnetization       =     8.00 Bohr mag/cell
     absolute magnetization    =     8.22 Bohr mag/cell

     iteration #  9     ecut=   100.00 Ry     beta= 0.70
     Davidson diagonalization with overlap
     ethr =  1.21E-07,  avg # of iterations =  1.0

     total cpu time spent up to now is     2707.1 secs

     total energy              =   -1968.22155478 Ry
     Harris-Foulkes estimate   =   -1968.22156476 Ry
     estimated scf accuracy    <       0.00012702 Ry

     total magnetization       =     8.00 Bohr mag/cell
     absolute magnetization    =     8.22 Bohr mag/cell

     iteration # 10     ecut=   100.00 Ry     beta= 0.70
     Davidson diagonalization with overlap
     ethr =  2.65E-08,  avg # of iterations =  2.5

     total cpu time spent up to now is     2773.8 secs

     total energy              =   -1968.22156146 Ry
     Harris-Foulkes estimate   =   -1968.22156082 Ry
     estimated scf accuracy    <       0.00003080 Ry

     total magnetization       =     8.00 Bohr mag/cell
     absolute magnetization    =     8.22 Bohr mag/cell

     iteration # 11     ecut=   100.00 Ry     beta= 0.70
     Davidson diagonalization with overlap
     ethr =  6.42E-09,  avg # of iterations =  3.0

     total cpu time spent up to now is     2843.5 secs

     total energy              =   -1968.22156344 Ry
     Harris-Foulkes estimate   =   -1968.22156327 Ry
     estimated scf accuracy    <       0.00001481 Ry

     total magnetization       =     8.00 Bohr mag/cell
     absolute magnetization    =     8.22 Bohr mag/cell

     iteration # 12     ecut=   100.00 Ry     beta= 0.70
     Davidson diagonalization with overlap
     ethr =  3.09E-09,  avg # of iterations =  2.0

     total cpu time spent up to now is     2910.3 secs

     total energy              =   -1968.22156370 Ry
     Harris-Foulkes estimate   =   -1968.22156538 Ry
     estimated scf accuracy    <       0.00003585 Ry

     total magnetization       =     8.00 Bohr mag/cell
     absolute magnetization    =     8.22 Bohr mag/cell

     iteration # 13     ecut=   100.00 Ry     beta= 0.70
     Davidson diagonalization with overlap
     ethr =  3.09E-09,  avg # of iterations =  2.0

     total cpu time spent up to now is     2977.0 secs

     total energy              =   -1968.22156548 Ry
     Harris-Foulkes estimate   =   -1968.22156537 Ry
     estimated scf accuracy    <       0.00000659 Ry

     total magnetization       =     8.00 Bohr mag/cell
     absolute magnetization    =     8.22 Bohr mag/cell

     iteration # 14     ecut=   100.00 Ry     beta= 0.70
     Davidson diagonalization with overlap
     ethr =  1.37E-09,  avg # of iterations =  2.5

     total cpu time spent up to now is     3045.9 secs

     total energy              =   -1968.22156566 Ry
     Harris-Foulkes estimate   =   -1968.22156583 Ry
     estimated scf accuracy    <       0.00000502 Ry

     total magnetization       =     8.00 Bohr mag/cell
     absolute magnetization    =     8.22 Bohr mag/cell

     iteration # 15     ecut=   100.00 Ry     beta= 0.70
     Davidson diagonalization with overlap
     ethr =  1.05E-09,  avg # of iterations =  1.5

     total cpu time spent up to now is     3111.9 secs

     total energy              =   -1968.22156588 Ry
     Harris-Foulkes estimate   =   -1968.22156590 Ry
     estimated scf accuracy    <       0.00000152 Ry

     total magnetization       =     8.00 Bohr mag/cell
     absolute magnetization    =     8.22 Bohr mag/cell

     iteration # 16     ecut=   100.00 Ry     beta= 0.70
     Davidson diagonalization with overlap
     ethr =  3.17E-10,  avg # of iterations =  1.5
 
     Magnetic moment per site:
     atom:    1    charge:    0.8173    magn:    0.0045    constr:    0.0000
     atom:    2    charge:    0.8209    magn:    0.0081    constr:    0.0000
     atom:    3    charge:    0.8155    magn:    0.0046    constr:    0.0000
     atom:    4    charge:    0.8158    magn:    0.0042    constr:    0.0000
     atom:    5    charge:    0.8235    magn:    0.0059    constr:    0.0000
     atom:    6    charge:    0.8173    magn:    0.0050    constr:    0.0000
     atom:    7    charge:    0.8222    magn:    0.0076    constr:    0.0000
     atom:    8    charge:    0.8185    magn:    0.0078    constr:    0.0000
     atom:    9    charge:    0.8100    magn:    0.0063    constr:    0.0000
     atom:   10    charge:    0.8093    magn:    0.0060    constr:    0.0000
     atom:   11    charge:    0.8087    magn:    0.0052    constr:    0.0000
     atom:   12    charge:    0.8103    magn:    0.0057    constr:    0.0000
     atom:   13    charge:    0.8110    magn:    0.0054    constr:    0.0000
     atom:   14    charge:    0.8099    magn:    0.0053    constr:    0.0000
     atom:   15    charge:    0.8154    magn:    0.0065    constr:    0.0000
     atom:   16    charge:    0.8144    magn:    0.0065    constr:    0.0000
     atom:   17    charge:    0.8179    magn:    0.0054    constr:    0.0000
     atom:   18    charge:    0.8170    magn:    0.0057    constr:    0.0000
     atom:   19    charge:    0.8178    magn:    0.0038    constr:    0.0000
     atom:   20    charge:    0.8166    magn:    0.0035    constr:    0.0000
     atom:   21    charge:    0.7958    magn:   -0.0011    constr:    0.0000
     atom:   22    charge:    0.7955    magn:   -0.0011    constr:    0.0000
     atom:   23    charge:    0.7956    magn:   -0.0009    constr:    0.0000
     atom:   24    charge:    0.7972    magn:   -0.0012    constr:    0.0000
     atom:   25    charge:    0.8219    magn:    0.0076    constr:    0.0000
     atom:   26    charge:    0.8170    magn:    0.0045    constr:    0.0000
     atom:   27    charge:    0.8184    magn:    0.0033    constr:    0.0000
     atom:   28    charge:    0.8174    magn:    0.0040    constr:    0.0000
     atom:   29    charge:    0.8174    magn:    0.0056    constr:    0.0000
     atom:   30    charge:    0.8230    magn:    0.0061    constr:    0.0000
     atom:   31    charge:    0.8188    magn:    0.0042    constr:    0.0000
     atom:   32    charge:    0.8188    magn:    0.0081    constr:    0.0000
     atom:   33    charge:    0.8085    magn:    0.0057    constr:    0.0000
     atom:   34    charge:    0.8101    magn:    0.0055    constr:    0.0000
     atom:   35    charge:    0.8100    magn:    0.0062    constr:    0.0000
     atom:   36    charge:    0.8083    magn:    0.0058    constr:    0.0000
     atom:   37    charge:    0.8143    magn:    0.0064    constr:    0.0000
     atom:   38    charge:    0.8087    magn:    0.0070    constr:    0.0000
     atom:   39    charge:    0.8128    magn:    0.0067    constr:    0.0000
     atom:   40    charge:    0.8102    magn:    0.0052    constr:    0.0000
     atom:   41    charge:    0.8210    magn:    0.0064    constr:    0.0000
     atom:   42    charge:    0.8168    magn:    0.0049    constr:    0.0000
     atom:   43    charge:    0.8169    magn:    0.0045    constr:    0.0000
     atom:   44    charge:    0.8152    magn:    0.0042    constr:    0.0000
     atom:   45    charge:    0.7931    magn:   -0.0006    constr:    0.0000
     atom:   46    charge:    0.7918    magn:   -0.0002    constr:    0.0000
     atom:   47    charge:    0.7953    magn:   -0.0010    constr:    0.0000
     atom:   48    charge:    0.7958    magn:   -0.0011    constr:    0.0000
     atom:   49    charge:    0.8232    magn:    0.0027    constr:    0.0000
     atom:   50    charge:    0.8176    magn:    0.0024    constr:    0.0000
     atom:   51    charge:    0.8170    magn:    0.0020    constr:    0.0000
     atom:   52    charge:    0.8164    magn:    0.0031    constr:    0.0000
     atom:   53    charge:    0.8182    magn:    0.0036    constr:    0.0000
     atom:   54    charge:    0.8247    magn:    0.0030    constr:    0.0000
     atom:   55    charge:    0.8232    magn:    0.0026    constr:    0.0000
     atom:   56    charge:    0.8166    magn:    0.0019    constr:    0.0000
     atom:   57    charge:    0.4739    magn:   -0.0012    constr:    0.0000
     atom:   58    charge:    0.4738    magn:   -0.0012    constr:    0.0000
     atom:   59    charge:    0.4667    magn:   -0.0013    constr:    0.0000
     atom:   60    charge:    0.4714    magn:   -0.0012    constr:    0.0000
     atom:   61    charge:    0.4758    magn:   -0.0009    constr:    0.0000
     atom:   62    charge:    0.4763    magn:   -0.0008    constr:    0.0000
     atom:   63    charge:    0.4778    magn:   -0.0011    constr:    0.0000
     atom:   64    charge:    0.4761    magn:   -0.0012    constr:    0.0000
     atom:   65    charge:    0.4746    magn:   -0.0006    constr:    0.0000
     atom:   66    charge:    0.4764    magn:   -0.0008    constr:    0.0000
     atom:   67    charge:    0.4673    magn:   -0.0002    constr:    0.0000
     atom:   68    charge:    0.4673    magn:   -0.0002    constr:    0.0000
     atom:   69    charge:    0.4682    magn:   -0.0013    constr:    0.0000
     atom:   70    charge:    0.4722    magn:   -0.0012    constr:    0.0000
     atom:   71    charge:    0.4765    magn:   -0.0011    constr:    0.0000
     atom:   72    charge:    0.4755    magn:   -0.0009    constr:    0.0000
     atom:   73    charge:    0.4752    magn:   -0.0009    constr:    0.0000
     atom:   74    charge:    0.4767    magn:   -0.0008    constr:    0.0000
     atom:   75    charge:    0.4639    magn:   -0.0000    constr:    0.0000
     atom:   76    charge:    0.4629    magn:    0.0003    constr:    0.0000
     atom:   77    charge:    0.4667    magn:    0.0000    constr:    0.0000
     atom:   78    charge:    0.4762    magn:   -0.0009    constr:    0.0000
     atom:   79    charge:    0.4671    magn:   -0.0013    constr:    0.0000
     atom:   80    charge:    0.4726    magn:   -0.0012    constr:    0.0000
     atom:   81    charge:    0.4307    magn:    0.0074    constr:    0.0000
     atom:   82    charge:    0.4311    magn:    0.0090    constr:    0.0000
     atom:   83    charge:    0.4341    magn:    0.0088    constr:    0.0000
     atom:   84    charge:    0.4263    magn:    0.0095    constr:    0.0000
     atom:   85    charge:    0.4290    magn:    0.0093    constr:    0.0000
     atom:   86    charge:    0.4450    magn:    0.0066    constr:    0.0000
     atom:   87    charge:    0.4452    magn:    0.0072    constr:    0.0000
     atom:   88    charge:    0.4325    magn:    0.0091    constr:    0.0000
     atom:   89    charge:    2.4496    magn:    0.0117    constr:    0.0000
     atom:   90    charge:    2.4536    magn:    0.0122    constr:    0.0000
     atom:   91    charge:    2.4758    magn:    0.0109    constr:    0.0000
     atom:   92    charge:    2.4718    magn:    0.0112    constr:    0.0000
     atom:   93    charge:    2.4755    magn:    0.0112    constr:    0.0000
     atom:   94    charge:    2.4708    magn:    0.0112    constr:    0.0000
     atom:   95    charge:    2.4690    magn:    0.0111    constr:    0.0000
     atom:   96    charge:    2.4518    magn:    0.0121    constr:    0.0000
     atom:   97    charge:    7.4409    magn:    1.0514    constr:    0.0000
     atom:   98    charge:    7.4404    magn:    1.0610    constr:    0.0000
     atom:   99    charge:    7.4463    magn:    1.0405    constr:    0.0000
     atom:  100    charge:    7.4390    magn:    1.0469    constr:    0.0000
     atom:  101    charge:    3.0120    magn:    0.0445    constr:    0.0000
     atom:  102    charge:    2.9762    magn:    0.0595    constr:    0.0000
     atom:  103    charge:    3.0130    magn:    0.0472    constr:    0.0000
     atom:  104    charge:    3.0119    magn:    0.0455    constr:    0.0000
     atom:  105    charge:    3.0153    magn:    0.0479    constr:    0.0000
     atom:  106    charge:    3.0183    magn:    0.0471    constr:    0.0000
     atom:  107    charge:    3.0225    magn:    0.0403    constr:    0.0000
     atom:  108    charge:    3.0134    magn:    0.0491    constr:    0.0000
     atom:  109    charge:    3.0120    magn:    0.0470    constr:    0.0000
     atom:  110    charge:    3.0119    magn:    0.0454    constr:    0.0000
     atom:  111    charge:    2.9415    magn:    0.0615    constr:    0.0000
     atom:  112    charge:    2.9351    magn:    0.0634    constr:    0.0000
     atom:  113    charge:    3.0145    magn:    0.0477    constr:    0.0000
     atom:  114    charge:    3.0140    magn:    0.0500    constr:    0.0000
     atom:  115    charge:    3.0130    magn:    0.0492    constr:    0.0000
     atom:  116    charge:    3.0269    magn:    0.0378    constr:    0.0000
     atom:  117    charge:    2.9525    magn:    0.0560    constr:    0.0000
     atom:  118    charge:    3.0337    magn:    0.0492    constr:    0.0000
     atom:  119    charge:    3.0297    magn:    0.0503    constr:    0.0000
     atom:  120    charge:    3.0430    magn:    0.0412    constr:    0.0000
     atom:  121    charge:    3.0400    magn:    0.0430    constr:    0.0000
     atom:  122    charge:    2.9604    magn:    0.0545    constr:    0.0000
     atom:  123    charge:    2.9944    magn:    0.0527    constr:    0.0000
     atom:  124    charge:    3.0330    magn:    0.0491    constr:    0.0000

     total cpu time spent up to now is     3176.9 secs

     End of self-consistent calculation

 ------ SPIN UP ------------


[...]
     atom   21 type  1   force =    -0.00842059    0.00592197   -0.00319696
     atom   22 type  1   force =     0.00205905    0.00478431    0.00509861
     atom   23 type  1   force =     0.00261492    0.00062215   -0.00050305
     atom   24 type  1   force =    -0.01621859    0.01989223    0.02259594
     atom   25 type  1   force =    -0.06341209    0.00931644   -0.04923132
     atom   26 type  1   force =    -0.02206643    0.00719571   -0.00164325
     atom   27 type  1   force =     0.01298380    0.01443075    0.00251632
     atom   28 type  1   force =    -0.02371008   -0.02550192   -0.03232546
     atom   29 type  1   force =     0.01066427   -0.02888449    0.01104187
     atom   30 type  1   force =     0.07446850    0.00650061    0.02186669
     atom   31 type  1   force =     0.01571349    0.00380277   -0.00335408
     atom   32 type  1   force =     0.03665972    0.00609406   -0.03223231
     atom   33 type  1   force =    -0.00991520   -0.01523013   -0.00847944
     atom   34 type  1   force =     0.00257899   -0.02133121    0.02186860
     atom   35 type  1   force =     0.00564981   -0.02003440    0.02000300
     atom   36 type  1   force =     0.01328746   -0.01322314   -0.00367858
     atom   37 type  1   force =    -0.04020756    0.00564383   -0.03129990
     atom   38 type  1   force =    -0.06054877    0.01362284   -0.02324106
     atom   39 type  1   force =     0.04666413    0.01246468   -0.02131003
     atom   40 type  1   force =    -0.00373436    0.00312550   -0.00218491
     atom   41 type  1   force =    -0.05622035    0.00883020    0.01973297
     atom   42 type  1   force =    -0.00423619   -0.00659865    0.00860193
     atom   43 type  1   force =     0.01856634   -0.00000313   -0.01636681
     atom   44 type  1   force =    -0.01349385   -0.00197442    0.01048320
     atom   45 type  1   force =     0.03646810    0.00743237    0.04128213
     atom   46 type  1   force =     0.03976037   -0.00170498    0.05411525
     atom   47 type  1   force =     0.00662443   -0.00686827   -0.00390263
     atom   48 type  1   force =     0.00216363   -0.00088263    0.00449706
     atom   49 type  1   force =    -0.03102374    0.00448467   -0.00702326
     atom   50 type  1   force =     0.01928114   -0.00348201    0.01133907
     atom   51 type  1   force =    -0.01883939   -0.00497872    0.00852025
     atom   52 type  1   force =     0.00297749   -0.00532831   -0.00325965
     atom   53 type  1   force =     0.01279401    0.00015249    0.00656581
     atom   54 type  1   force =    -0.02965108    0.00554647   -0.00805960
     atom   55 type  1   force =     0.01984107    0.00018791   -0.00791364
     atom   56 type  1   force =    -0.01437711    0.00053278    0.00894803
     atom   57 type  2   force =    -0.00053628    0.00210094   -0.00099579
     atom   58 type  2   force =    -0.00125775   -0.00712131   -0.00086798
     atom   59 type  2   force =    -0.00375067   -0.00420633   -0.00685743
     atom   60 type  2   force =     0.00179384   -0.00213825   -0.00162697
     atom   61 type  2   force =     0.01946588    0.00507419   -0.00853462
     atom   62 type  2   force =    -0.00252085    0.00024078    0.00213929
     atom   63 type  2   force =     0.00323546    0.00267699    0.00042510
     atom   64 type  2   force =    -0.02105720   -0.00138376   -0.00702941
     atom   65 type  2   force =     0.00381047    0.00179907    0.00196361
     atom   66 type  2   force =     0.00116352   -0.00374858   -0.00154042
     atom   67 type  2   force =    -0.02286640    0.02219461    0.00520843
     atom   68 type  2   force =    -0.02231750   -0.02145629    0.00287066
     atom   69 type  2   force =     0.00397605   -0.00288030   -0.00717681
     atom   70 type  2   force =    -0.00001843   -0.00460466   -0.00216612
     atom   71 type  2   force =     0.01736786   -0.00063332   -0.00564542
     atom   72 type  2   force =     0.01976080   -0.00075569   -0.00525062
     atom   73 type  2   force =    -0.02129788   -0.00636131   -0.00967865
     atom   74 type  2   force =     0.00283576    0.00433821   -0.00142310
     atom   75 type  2   force =     0.02358473   -0.02494087    0.00418382
     atom   76 type  2   force =     0.02877873    0.02629713    0.00322733
     atom   77 type  2   force =    -0.02289412    0.02214582    0.00154032
     atom   78 type  2   force =    -0.00098301    0.00349254   -0.00231403
     atom   79 type  2   force =     0.00359278    0.00258809   -0.00598076
     atom   80 type  2   force =    -0.00132670    0.00243854   -0.00327574
     atom   81 type  2   force =    -0.02284786    0.03259494   -0.06011949
     atom   82 type  2   force =     0.02068580    0.00375017    0.01333950
     atom   83 type  2   force =    -0.02128695    0.00343657    0.01329071
     atom   84 type  2   force =    -0.00994741    0.00143067    0.02965234
     atom   85 type  2   force =     0.01255590    0.00679651    0.02108364
     atom   86 type  2   force =    -0.02099786   -0.03625969   -0.06563018
     atom   87 type  2   force =     0.02208946   -0.02467748   -0.04754281
     atom   88 type  2   force =    -0.02069260   -0.00313299    0.01396472
     atom   89 type  3   force =    -0.01196681   -0.00598683    0.00065363
     atom   90 type  3   force =     0.00421532    0.01498954    0.01914654
     atom   91 type  3   force =    -0.04085419    0.00792658    0.01372752
     atom   92 type  3   force =    -0.04714301   -0.00883155    0.01774123
     atom   93 type  3   force =     0.05287466   -0.01542793    0.02100101
     atom   94 type  3   force =     0.04122143   -0.00369705   -0.00532429
     atom   95 type  3   force =    -0.03152768   -0.00324189   -0.00155457
     atom   96 type  3   force =    -0.00658750   -0.01183614    0.01863283
     atom   97 type  4   force =    -0.00447928    0.00721128   -0.00290329
     atom   98 type  4   force =     0.00135610   -0.00183163   -0.01609092
     atom   99 type  4   force =     0.00117546    0.00109036   -0.01189091
     atom  100 type  4   force =     0.00552209    0.00155359    0.00327410
     atom  101 type  5   force =     0.00288278   -0.00388158   -0.00444092
     atom  102 type  5   force =     0.02895101    0.00411870    0.00278309
     atom  103 type  5   force =     0.00062996   -0.00312294    0.00203413
     atom  104 type  5   force =    -0.00215370   -0.00340437   -0.00455845
     atom  105 type  5   force =    -0.00397929   -0.00835719   -0.00314436
     atom  106 type  5   force =     0.00814851   -0.00876191    0.00030048
     atom  107 type  5   force =    -0.02274667   -0.01543320   -0.00815373
     atom  108 type  5   force =    -0.00846637    0.00459020   -0.00272885
     atom  109 type  5   force =     0.00202495   -0.00075121   -0.00261427
     atom  110 type  5   force =     0.00597922   -0.00048320   -0.00290251
     atom  111 type  5   force =    -0.03390760    0.00759978   -0.00323297
     atom  112 type  5   force =    -0.04337437   -0.01833786   -0.01523028
     atom  113 type  5   force =     0.00751167    0.00507675   -0.00080202
     atom  114 type  5   force =     0.00972756   -0.00098241    0.00164426
     atom  115 type  5   force =     0.00264082    0.01071042   -0.00024810
     atom  116 type  5   force =    -0.00923956    0.00264175   -0.00914941
     atom  117 type  5   force =     0.00605445   -0.01158087    0.03696187
     atom  118 type  5   force =    -0.00239701    0.02003249    0.00963640
     atom  119 type  5   force =     0.00309864    0.01613578    0.00830209
     atom  120 type  5   force =    -0.02480807   -0.00579016    0.02038200
     atom  121 type  5   force =     0.00814498   -0.01972654    0.01792684
     atom  122 type  5   force =     0.00886374    0.01373809    0.03427101
     atom  123 type  5   force =    -0.00790036    0.00657380    0.01815097
     atom  124 type  5   force =    -0.00258150   -0.01709962    0.00793833

     Total force =     0.362352     Total SCF correction =     0.001833

     number of scf cycles    =   4
     number of bfgs steps    =   3

     energy   old            =   -1968.3663333708 Ry
     energy   new            =   -1968.5111286454 Ry

     CASE: energy  _new < energy  _old

     new trust radius        =       0.1075880697 bohr
     new conv_thr            =       0.0000007660 Ry


ATOMIC_POSITIONS (crystal)
C             0.2886551759        0.9707875392        0.5222336725
C             0.0391606652        0.0344948438        0.0267893993
C             0.3904858268        0.0129015461        0.5445672987
C             0.1407234666        0.9867459633        0.0456972872
C             0.4507324442        0.9685456714        0.6493582254
C             0.2020048772        0.0282382726        0.1486145866
C             0.2079801108        0.5327038440        0.5299482155
C             0.4593264147        0.4694101717        0.0330031362
C             0.2456879973        0.6160390507        0.6087125643
C             0.4984220612        0.3868066009        0.1119689923
C             0.2502181312        0.8899565369        0.6034735321
C             0.0025721793        0.1157829469        0.1076930469
C             0.4073303061        0.8880972786        0.7282156168
C             0.1601802371        0.1094919274        0.2273818647
C             0.0894672326        0.6147558082        0.7163320338
C             0.3415411773        0.3857172100        0.2182239859
C             0.0471499870        0.5272680809        0.6463891237
C             0.2977092782        0.4721785347        0.1471853175
C             0.1080224748        0.4831652561        0.5482681782
C             0.3576341059        0.5173025106        0.0481947344
C             0.4328761467        0.1008287661        0.4655156364
C             0.1816147986        0.8987037960        0.9649658202
C             0.0670711195        0.3933630887        0.4699551246
C             0.3154849345        0.6096698802        0.9726106758
C             0.7880331873        0.9671534036        0.5274428937
C             0.5385612929        0.0297072046        0.0232448406
C             0.8908204776        0.0138285063        0.5445132477
C             0.6397984799        0.9853627267        0.0433015192
C             0.9521189156        0.9666906942        0.6443572859
C             0.7032505318        0.0328918015        0.1443169900
C             0.7076796988        0.5286248574        0.5266156531
C             0.9583554659        0.4686142193        0.0322782342
C             0.7458846040        0.6119186138        0.6057548304
C             0.9965883984        0.3863956049        0.1127618198
C             0.7492569438        0.8859472142        0.6060017299
C             0.5000580597        0.1107950996        0.1038245327
C             0.9077149331        0.8817536131        0.7154427774
C             0.6594672968        0.1185166169        0.2160228898
C             0.5892479158        0.6153118258        0.7174971675
C             0.8404238569        0.3918405565        0.2287979555
C             0.5462429823        0.5279421136        0.6469877282
C             0.7980771205        0.4749020251        0.1512326251
C             0.6080366892        0.4827172783        0.5477005659
C             0.8573743123        0.5165156453        0.0497722901
C             0.9336134955        0.1064932179        0.4712261099
C             0.6805144167        0.8922855779        0.9700703800
C             0.5675245028        0.3930805263        0.4692266313
C             0.8158229665        0.6052161907        0.9687285900
C             0.5581419182        0.0087143058        0.6817368402
C             0.9641012774        1.0071657647        0.9224711022
C             0.2803929793        0.5044630010        0.4282256404
C             0.5356377678        0.4993680242        0.9345134173
C             0.7112490425       -0.0033518603        0.4265776694
C             0.8097721233        0.9893767324        0.1763072860
C             0.4407397090        0.4841971059        0.6779655453
C             0.0312631792        0.4972591377        0.9297312858
H             0.2377880899        0.9996470111        0.4436135728
H             0.4868486437        0.0023245975        0.9452415088
H             0.0300691488        0.9983536865        0.6716013452
H             0.2813441680        0.9985547306        0.1715953576
H             0.3227373134        0.6507823859        0.5911585682
H             0.0749766565        0.3530358469        0.0946631229
H             0.1707359693        0.8554514479        0.5887379223
H             0.4216694891        0.1470918060        0.0897461022
H             0.4533686386        0.8551050952        0.8096479113
H             0.2060708936        0.1427273964        0.3087086187
H             0.0481666858        0.6540778395        0.7944821553
H             0.3008847091        0.3463605217        0.2969206480
H             0.2207935245        0.5048126205        0.1731220182
H             0.7578354516        0.5006186730        0.4498782070
H             0.8229437040        0.6501175550        0.5927461880
H             0.5760265774        0.3532992296        0.0943620956
H             0.6703683904        0.8545858672        0.5863445078
H             0.9233935358        0.1481931448        0.0883129879
H             0.9491699734        0.8430084031        0.7961988102
H             0.7023278869        0.1576349395        0.2951987442
H             0.5473320790        0.6545864149        0.7951647591
H             0.7963495442        0.3578694920        0.3089612989
H             0.9703475662        0.4935905507        0.6718853271
H             0.7197868226        0.5053874752        0.1737725284
H             0.5972125120        0.0701533799        0.6241256202
H             0.9970500496        0.9447108926        0.8617471517
H             0.2472661737        0.4400440831        0.3685775027
H             0.5012563182        0.5633162294        0.8746295554
H             0.7453384174        0.0586504688        0.3675950271
H             0.8473306385        0.9257292887        0.1201584913
H             0.4041390908        0.4181773655        0.6229878932
H            -0.0028730053        0.5610911119        0.8693970470
N             0.3083105924        0.8506029434        0.7051839876
N             0.0615212370        0.1510811063        0.2079286618
N             0.1878452424        0.6544553720        0.7043217814
N             0.4403005418        0.3472724278        0.2069130996
N             0.8073175824        0.8466753361        0.7039792912
N             0.5589707596        0.1511003847        0.2031915808
N             0.6878198322        0.6520201932        0.7030675401
N             0.9381475831        0.3495522078        0.2098288533
Ni            0.2493129604        0.7530042912        0.8367514103
Ni            0.5002051409        0.2477486309        0.3389152997
Ni            0.7492103448        0.7502266753        0.8364859446
Ni            1.0007976797        0.2490899626        0.3398560046
O             0.1231052099        0.3469648283        0.3822473875
O             0.3722474285        0.6673365496        0.8956478944
O             0.3766632980        0.1477618627        0.3764793522
O             0.1245235469        0.8518632953        0.8756391313
O             0.4734766773        0.3525658012        0.4811771496
O             0.2194830131        0.6428126955        0.9817441223
O             0.0315363299        0.1338665022        0.4818418795
O             0.2771599391        0.8631793134        0.9792331023
O             0.6236923324        0.3474290271        0.3822333305
O             0.8718561435        0.6517622318        0.8807638171
O             0.8763459555        0.1674654257        0.3962455941
O             0.6221801034        0.8328397508        0.8949265708
O             0.9724662330        0.3566650365        0.4829870150
O             0.7218065857        0.6434690412        0.9811321791
O             0.5277996069        0.1396291044        0.4806071613
O             0.7776995996        0.8595763595        0.9790391029
O             0.6200623802        0.9882934970        0.7727022901
O             0.8748280837        0.0432840131        0.9007484594
O             0.3682886719        0.5425345624        0.4067531986
O             0.6192230312        0.4588822588        0.9082333349
O             0.6241268082        0.9590316123        0.3995159801
O             0.8715603814        0.0092942276        0.2681025612
O             0.3822218800        0.5092566023        0.7672143570
O             0.1187219178        0.4597388495        0.9082378357



     Writing output data file ./QE_relaxation_results/pbesol_relax/NiPyC2_relax_sc211_meta_functionalized_CH-O_pbesol_relax.save/
     NEW-OLD atomic charge density approx. for the potential

     Check: negative core charge=   -0.000145

     total cpu time spent up to now is     6238.0 secs

     Self-consistent Calculation

     iteration #  1     ecut=   100.00 Ry     beta= 0.70
     Davidson diagonalization with overlap
     ethr =  1.00E-06,  avg # of iterations =  9.0

     total cpu time spent up to now is     6513.7 secs

     total energy              =   -1968.57374667 Ry
     Harris-Foulkes estimate   =   -1968.58278457 Ry
     estimated scf accuracy    <       0.02786063 Ry

     total magnetization       =     8.00 Bohr mag/cell
     absolute magnetization    =     8.25 Bohr mag/cell

     iteration #  2     ecut=   100.00 Ry     beta= 0.70
     Davidson diagonalization with overlap
     ethr =  5.80E-06,  avg # of iterations =  2.0

     total cpu time spent up to now is     6580.2 secs

     total energy              =   -1968.57300681 Ry
     Harris-Foulkes estimate   =   -1968.57720008 Ry
     estimated scf accuracy    <       0.01832968 Ry

     total magnetization       =     8.00 Bohr mag/cell
     absolute magnetization    =     8.25 Bohr mag/cell

     iteration #  3     ecut=   100.00 Ry     beta= 0.70
     Davidson diagonalization with overlap
     ethr =  3.82E-06,  avg # of iterations =  2.0

     total cpu time spent up to now is     6647.2 secs

     total energy              =   -1968.57362470 Ry
     Harris-Foulkes estimate   =   -1968.57783225 Ry
     estimated scf accuracy    <       0.03968508 Ry

     total magnetization       =     8.00 Bohr mag/cell
     absolute magnetization    =     8.26 Bohr mag/cell

     iteration #  4     ecut=   100.00 Ry     beta= 0.70
     Davidson diagonalization with overlap
     ethr =  3.82E-06,  avg # of iterations =  1.0

     total cpu time spent up to now is     6712.1 secs

     total energy              =   -1968.57537973 Ry
     Harris-Foulkes estimate   =   -1968.57583377 Ry
     estimated scf accuracy    <       0.00372705 Ry

     total magnetization       =     8.00 Bohr mag/cell
     absolute magnetization    =     8.25 Bohr mag/cell

     iteration #  5     ecut=   100.00 Ry     beta= 0.70
     Davidson diagonalization with overlap
     ethr =  7.76E-07,  avg # of iterations =  1.5

     total cpu time spent up to now is     6778.2 secs

     total energy              =   -1968.57553446 Ry
     Harris-Foulkes estimate   =   -1968.57580133 Ry
     estimated scf accuracy    <       0.00291633 Ry

     total magnetization       =     8.00 Bohr mag/cell
     absolute magnetization    =     8.25 Bohr mag/cell

     iteration #  6     ecut=   100.00 Ry     beta= 0.70
     Davidson diagonalization with overlap
     ethr =  6.08E-07,  avg # of iterations =  1.0

     total cpu time spent up to now is     6843.3 secs

     total energy              =   -1968.57565071 Ry
     Harris-Foulkes estimate   =   -1968.57568114 Ry
     estimated scf accuracy    <       0.00022443 Ry

     total magnetization       =     8.00 Bohr mag/cell
     absolute magnetization    =     8.26 Bohr mag/cell

     iteration #  7     ecut=   100.00 Ry     beta= 0.70
     Davidson diagonalization with overlap
