/apps/openmpi/3.1_intel-19/bin/mpiexec
starting QE Wed Jun 24 14:19:31 PDT 2020

     Program PWSCF v.6.5 starts on 24Jun2020 at 14:19:32 

     This program is part of the open-source Quantum ESPRESSO suite
     for quantum simulation of materials; please cite
         "P. Giannozzi et al., J. Phys.:Condens. Matter 21 395502 (2009);
         "P. Giannozzi et al., J. Phys.:Condens. Matter 29 465901 (2017);
          URL http://www.quantum-espresso.org", 
     in publications or presentations arising from this work. More details at
     http://www.quantum-espresso.org/quote

     Parallel version (MPI), running on    32 processors

     MPI processes distributed on     1 nodes
     K-points division:     npool     =       2
     R & G space division:  proc/nbgrp/npool/nimage =      16
     Reading input from QE_input_scripts/pw.NiPyC2_relax_sc211_meta_functionalized_N-NH_pbesol_relax.in
Warning: card &CELL ignored
Warning: card    CELL_DYNAMICS = 'BFGS' ignored
Warning: card    CELL_DOFREE = 'XYZ' ignored
Warning: card / ignored

     Current dimensions of program PWSCF are:
     Max number of different atomic species (ntypx) = 10
     Max number of k-points (npk) =  40000
     Max angular momentum in pseudopotentials (lmaxx) =  3

     -------------------------------------------------
     Parameters for Dispersion (Grimme-D2) Correction:
     -------------------------------------------------
       atom      VdW radius       C_6     

        C          2.744         60.710
        H          1.892          4.857
        N          2.640         42.670
        Ni         2.952        374.666
        O          2.536         24.284

     gamma-point specific algorithms are used

     Subspace diagonalization in iterative solution of the eigenvalue problem:
     a serial algorithm will be used

 
     Parallelization info
     --------------------
     sticks:   dense  smooth     PW     G-vecs:    dense   smooth      PW
     Min        1113    1113    277                91686    91686   11456
     Max        1116    1116    280                91692    91692   11460
     Sum       17829   17829   4453              1467017  1467017  183325
 


     bravais-lattice index     =            0
     lattice parameter (alat)  =      23.6322  a.u.
     unit-cell volume          =   10858.6228 (a.u.)^3
     number of atoms/cell      =          124
     number of atomic types    =            5
     number of electrons       =       480.00 (up: 244.00, down: 236.00)
     number of Kohn-Sham states=          293
     kinetic-energy cutoff     =     100.0000  Ry
     charge density cutoff     =     400.0000  Ry
     convergence threshold     =      1.0E-06
     mixing beta               =       0.7000
     number of iterations used =            8  local-TF  mixing
     Exchange-correlation= PBESOL
                           (   1   4  10   8   0   0   0)
     nstep                     =          200


     celldm(1)=  23.632159  celldm(2)=   0.000000  celldm(3)=   0.000000
     celldm(4)=   0.000000  celldm(5)=   0.000000  celldm(6)=   0.000000

     crystal axes: (cart. coord. in units of alat)
               a(1) = (   1.000000   0.000000   0.000000 )  
               a(2) = (   0.000000   1.001423   0.000000 )  
               a(3) = (  -0.018199   0.000000   0.821574 )  

     reciprocal axes: (cart. coord. in units 2 pi/alat)
               b(1) = (  1.000000  0.000000  0.022152 )  
               b(2) = (  0.000000  0.998579  0.000000 )  
               b(3) = (  0.000000  0.000000  1.217175 )  


     PseudoPot. # 1 for C  read from file:
     ./pseudo/C.pbesol-nc.UPF
     MD5 check sum: ce26087537ded160c8d400e183a8bf42
     Pseudo is Norm-conserving, Zval =  4.0
     Generated using "atomic" code by A. Dal Corso v.6.5
     Using radial grid of 1073 points,  1 beta functions with: 
                l(1) =   1

     PseudoPot. # 2 for H  read from file:
     ./pseudo/H.pbesol-n-nc.UPF
     MD5 check sum: 7995ef24074557c85b430109caaacc09
     Pseudo is Norm-conserving, Zval =  1.0
     Generated using "atomic" code by A. Dal Corso v.6.5
     Using radial grid of  929 points,  0 beta functions with: 

     PseudoPot. # 3 for N  read from file:
     ./pseudo/N.pbesol-nc.UPF
     MD5 check sum: e18cc5e4b8a5600c1a19b30c2cab1ca0
     Pseudo is Norm-conserving, Zval =  5.0
     Generated using "atomic" code by A. Dal Corso v.6.5
     Using radial grid of 1085 points,  1 beta functions with: 
                l(1) =   1

     PseudoPot. # 4 for Ni read from file:
     ./pseudo/Ni.pbesol-n-nc.UPF
     MD5 check sum: 623411631e0c2eb7c0b2b9815547d2d9
     Pseudo is Norm-conserving + core correction, Zval = 10.0
     Generated using "atomic" code by A. Dal Corso v.6.5
     Using radial grid of 1195 points,  2 beta functions with: 
                l(1) =   1
                l(2) =   2

     PseudoPot. # 5 for O  read from file:
     ./pseudo/O.pbesol-nc.UPF
     MD5 check sum: 73d10e7e91dbfcbe8a7e362101007f84
     Pseudo is Norm-conserving, Zval =  6.0
     Generated using "atomic" code by A. Dal Corso v.6.5
     Using radial grid of 1095 points,  1 beta functions with: 
                l(1) =   1

     atomic species   valence    mass     pseudopotential
        C              4.00    12.01070     C ( 1.00)
        H              1.00     1.00794     H ( 1.00)
        N              5.00    14.00670     N ( 1.00)
        Ni            10.00    58.69340     Ni( 1.00)
        O              6.00    15.99940     O ( 1.00)

     Starting magnetic structure 
     atomic species   magnetization
        C            0.000
        H            0.000
        N            0.000
        Ni           0.250
        O            0.000

     No symmetry found



   Cartesian axes

     site n.     atom                  positions (alat units)
         1           C   tau(   1) = (   0.2787122   0.9714307   0.4288486  )
         2           C   tau(   2) = (   0.0379730   0.0311503   0.0183277  )
         3           C   tau(   3) = (   0.3806882   0.0117868   0.4489838  )
         4           C   tau(   4) = (   0.1394042   0.9891499   0.0379124  )
         5           C   tau(   5) = (   0.4400787   0.9715829   0.5343281  )
         6           C   tau(   6) = (   0.1997920   0.0283934   0.1231482  )
         7           C   tau(   7) = (   0.1986011   0.5304580   0.4324635  )
         8           C   tau(   8) = (   0.4580372   0.4720800   0.0229252  )
         9           C   tau(   9) = (   0.2341003   0.6142040   0.4982314  )
        10           C   tau(  10) = (   0.4948422   0.3892302   0.0892369  )
        11           C   tau(  11) = (   0.2384981   0.8904717   0.4955761  )
        12           C   tau(  12) = (  -0.0008282   0.1123917   0.0856467  )
        13           C   tau(  13) = (   0.3947360   0.8906489   0.5977380  )
        14           C   tau(  14) = (   0.1557890   0.1097029   0.1871645  )
        15           C   tau(  15) = (   0.0756247   0.6098498   0.5975737  )
        16           C   tau(  16) = (   0.3367152   0.3921904   0.1884642  )
        17           C   tau(  17) = (   0.0350715   0.5258264   0.5351012  )
        18           C   tau(  18) = (   0.2948780   0.4753867   0.1254988  )
        19           C   tau(  19) = (   0.0981522   0.4849593   0.4519611  )
        20           C   tau(  20) = (   0.3569104   0.5163900   0.0416029  )
        21           C   tau(  21) = (   0.4248178   0.0994604   0.3833638  )
        22           C   tau(  22) = (   0.1639424   0.9010006   0.7933713  )
        23           C   tau(  23) = (   0.0588120   0.3950355   0.3866953  )
        24           C   tau(  24) = (   0.2984059   0.6050320   0.7961934  )
        25           C   tau(  25) = (   0.7787122   0.9714307   0.4288486  )
        26           C   tau(  26) = (   0.5379730   0.0311503   0.0183277  )
        27           C   tau(  27) = (   0.8806882   0.0117868   0.4489838  )
        28           C   tau(  28) = (   0.6394042   0.9891499   0.0379124  )
        29           C   tau(  29) = (   0.9400787   0.9715829   0.5343281  )
        30           C   tau(  30) = (   0.6997920   0.0283934   0.1231482  )
        31           C   tau(  31) = (   0.6986021   0.5304580   0.4324635  )
        32           C   tau(  32) = (   0.9580382   0.4720800   0.0229252  )
        33           C   tau(  33) = (   0.7341003   0.6142040   0.4982314  )
        34           C   tau(  34) = (   0.9948422   0.3892302   0.0892369  )
        35           C   tau(  35) = (   0.7384981   0.8904717   0.4955761  )
        36           C   tau(  36) = (   0.4991718   0.1123917   0.0856467  )
        37           C   tau(  37) = (   0.8947360   0.8906489   0.5977380  )
        38           C   tau(  38) = (   0.6557880   0.1097029   0.1871645  )
        39           C   tau(  39) = (   0.5756247   0.6098498   0.5975737  )
        40           C   tau(  40) = (   0.8367152   0.3921904   0.1884642  )
        41           C   tau(  41) = (   0.5350715   0.5258264   0.5351012  )
        42           C   tau(  42) = (   0.7948780   0.4753867   0.1254988  )
        43           C   tau(  43) = (   0.5981522   0.4849593   0.4519611  )
        44           C   tau(  44) = (   0.8569104   0.5163900   0.0416029  )
        45           C   tau(  45) = (   0.9248178   0.0994604   0.3833638  )
        46           C   tau(  46) = (   0.6639424   0.9010006   0.7933713  )
        47           C   tau(  47) = (   0.5588110   0.3950355   0.3866953  )
        48           C   tau(  48) = (   0.7984059   0.6050320   0.7961934  )
        49           H   tau(  49) = (   0.2290596   1.0009978   0.3640502  )
        50           H   tau(  50) = (   0.4693669   0.0026958   0.7751545  )
        51           H   tau(  51) = (   0.2791988   1.0000865   0.1418054  )
        52           H   tau(  52) = (  -0.0086584   0.5011092   0.7809458  )
        53           H   tau(  53) = (   0.3118554   0.6514319   0.4868937  )
        54           H   tau(  54) = (   0.0732386   0.3533532   0.0780726  )
        55           H   tau(  55) = (   0.1594426   0.8563401   0.4835457  )
        56           H   tau(  56) = (   0.4206861   0.1479423   0.0738480  )
        57           H   tau(  57) = (   0.4386511   0.8563902   0.6644572  )
        58           H   tau(  58) = (   0.2006191   0.1433067   0.2536997  )
        59           H   tau(  59) = (   0.0290492   0.6438591   0.6626884  )
        60           H   tau(  60) = (   0.2907535   0.3580349   0.2539083  )
        61           H   tau(  61) = (   0.4564147   0.4939330   0.5533319  )
        62           H   tau(  62) = (   0.2157623   0.5059201   0.1439924  )
        63           H   tau(  63) = (   0.7290596   1.0009978   0.3640502  )
        64           H   tau(  64) = (   0.8118554   0.6514319   0.4868937  )
        65           H   tau(  65) = (   0.5732386   0.3533532   0.0780726  )
        66           H   tau(  66) = (   0.6594426   0.8563401   0.4835457  )
        67           H   tau(  67) = (   0.9206861   0.1479423   0.0738480  )
        68           H   tau(  68) = (   0.9386511   0.8563902   0.6644572  )
        69           H   tau(  69) = (   0.7006201   0.1433067   0.2536997  )
        70           H   tau(  70) = (   0.5290492   0.6438591   0.6626884  )
        71           H   tau(  71) = (   0.7907535   0.3580349   0.2539083  )
        72           H   tau(  72) = (   0.9564147   0.4939330   0.5533319  )
        73           H   tau(  73) = (   0.6748964   0.0033237   0.6462043  )
        74           H   tau(  74) = (   0.8222570   0.0016934   0.6697851  )
        75           H   tau(  75) = (   0.3990155   0.5021467   0.2656905  )
        76           H   tau(  76) = (   0.6404460   0.5022829   0.6780461  )
        77           H   tau(  77) = (   0.1748964   0.0033237   0.6462043  )
        78           H   tau(  78) = (   0.9348120   0.9934260   0.2335686  )
        79           H   tau(  79) = (   0.8990155   0.5021487   0.2656897  )
        80           H   tau(  80) = (   0.5594548   0.5142479   0.2341659  )
        81           N   tau(  81) = (   0.2956096   0.8524646   0.5790685  )
        82           N   tau(  82) = (   0.0569790   0.1490689   0.1692870  )
        83           N   tau(  83) = (   0.1736962   0.6512356   0.5798983  )
        84           N   tau(  84) = (   0.4350238   0.3514275   0.1709211  )
        85           N   tau(  85) = (   0.7956096   0.8524646   0.5790685  )
        86           N   tau(  86) = (   0.5569790   0.1490689   0.1692870  )
        87           N   tau(  87) = (   0.6736972   0.6512356   0.5798983  )
        88           N   tau(  88) = (   0.9350238   0.3514275   0.1709211  )
        89           N   tau(  89) = (   0.5450109   0.0091099   0.5567981  )
        90           N   tau(  90) = (   0.5994837   0.9748776   0.6321965  )
        91           N   tau(  91) = (   0.9563010   0.9949341   0.7526236  )
        92           N   tau(  92) = (   0.8658909   0.0306115   0.7333076  )
        93           N   tau(  93) = (   0.2641442   0.4924049   0.3470034  )
        94           N   tau(  94) = (   0.3537871   0.5314353   0.3279149  )
        95           N   tau(  95) = (   0.5051914   0.5105687   0.7588816  )
        96           N   tau(  96) = (   0.5954575   0.4727389   0.7403238  )
        97           N   tau(  97) = (   0.0450109   0.0091099   0.5567981  )
        98           N   tau(  98) = (   0.0994837   0.9748776   0.6321965  )
        99           N   tau(  99) = (   0.8043646   0.9895234   0.1448813  )
       100           N   tau( 100) = (   0.8596885   0.0228284   0.2200932  )
       101           N   tau( 101) = (   0.7641442   0.4924049   0.3470034  )
       102           N   tau( 102) = (   0.8537871   0.5314364   0.3279141  )
       103           N   tau( 103) = (   0.6908635   0.5172542   0.1468745  )
       104           N   tau( 104) = (   0.6341286   0.4822595   0.2209024  )
       105           Ni  tau( 105) = (   0.2317814   0.7525556   0.6871039  )
       106           Ni  tau( 106) = (   0.4937992   0.2483520   0.2786599  )
       107           Ni  tau( 107) = (   0.7317814   0.7525556   0.6871039  )
       108           Ni  tau( 108) = (   0.9937992   0.2483520   0.2786599  )
       109           O   tau( 109) = (   0.1158100   0.3481839   0.3145586  )
       110           O   tau( 110) = (   0.3551690   0.6519036   0.7240468  )
       111           O   tau( 111) = (   0.3707656   0.1477170   0.3098797  )
       112           O   tau( 112) = (   0.1091506   0.8535652   0.7199135  )
       113           O   tau( 113) = (   0.4642788   0.3566669   0.3968154  )
       114           O   tau( 114) = (   0.2033039   0.6423280   0.8050417  )
       115           O   tau( 115) = (   0.0200847   0.1353504   0.3952413  )
       116           O   tau( 116) = (   0.2588616   0.8639860   0.8046490  )
       117           O   tau( 117) = (   0.6158110   0.3481839   0.3145586  )
       118           O   tau( 118) = (   0.8551690   0.6519036   0.7240468  )
       119           O   tau( 119) = (   0.8707656   0.1477170   0.3098797  )
       120           O   tau( 120) = (   0.6091506   0.8535652   0.7199135  )
       121           O   tau( 121) = (   0.9642788   0.3566669   0.3968154  )
       122           O   tau( 122) = (   0.7033039   0.6423280   0.8050417  )
       123           O   tau( 123) = (   0.5200847   0.1353504   0.3952413  )
       124           O   tau( 124) = (   0.7588616   0.8639860   0.8046490  )

     number of k points=     1  Marzari-Vanderbilt smearing, width (Ry)=  0.2000
                       cart. coord. in units 2pi/alat
        k(    1) = (   0.0000000   0.0000000   0.0000000), wk =   1.0000000

     Dense  grid:   733509 G-vectors     FFT dimensions: ( 160, 160, 125)

     Estimated max dynamical RAM per process >     353.37 MB

     Estimated total dynamical RAM >      11.04 GB
     Generating pointlists ...
     new r_m :   0.0358 (alat units)  0.8461 (a.u.) for type    1
     new r_m :   0.0340 (alat units)  0.8024 (a.u.) for type    2
     new r_m :   0.0340 (alat units)  0.8024 (a.u.) for type    3
     new r_m :   0.0654 (alat units)  1.5454 (a.u.) for type    4
     new r_m :   0.0423 (alat units)  0.9991 (a.u.) for type    5

     Check: negative core charge=   -0.000145

     Initial potential from superposition of free atoms

     starting charge  479.99658, renormalised to  480.00000
     Starting wfcs are  420 randomized atomic wfcs

     total cpu time spent up to now is       21.7 secs

     Self-consistent Calculation

     iteration #  1     ecut=   100.00 Ry     beta= 0.70
     Davidson diagonalization with overlap
     ethr =  1.00E-02,  avg # of iterations =  4.0

     total cpu time spent up to now is       77.7 secs

     total energy              =   -1937.10149941 Ry
     Harris-Foulkes estimate   =   -1943.37842446 Ry
     estimated scf accuracy    <      16.08302436 Ry

     total magnetization       =     8.00 Bohr mag/cell
     absolute magnetization    =     8.33 Bohr mag/cell

     iteration #  2     ecut=   100.00 Ry     beta= 0.70
     Davidson diagonalization with overlap
     ethr =  3.35E-03,  avg # of iterations =  2.0

     total cpu time spent up to now is      111.3 secs

     total energy              =   -1938.47700780 Ry
     Harris-Foulkes estimate   =   -1941.52587069 Ry
     estimated scf accuracy    <      16.25222116 Ry

     total magnetization       =     8.00 Bohr mag/cell
     absolute magnetization    =     8.52 Bohr mag/cell

     iteration #  3     ecut=   100.00 Ry     beta= 0.70
     Davidson diagonalization with overlap
     ethr =  3.35E-03,  avg # of iterations =  1.5

     total cpu time spent up to now is      142.0 secs

     total energy              =   -1938.99737432 Ry
     Harris-Foulkes estimate   =   -1939.53869766 Ry
     estimated scf accuracy    <       1.43850144 Ry

     total magnetization       =     8.00 Bohr mag/cell
     absolute magnetization    =     8.18 Bohr mag/cell

     iteration #  4     ecut=   100.00 Ry     beta= 0.70
     Davidson diagonalization with overlap
     ethr =  3.00E-04,  avg # of iterations =  7.0

     total cpu time spent up to now is      186.0 secs

     total energy              =   -1939.02998039 Ry
     Harris-Foulkes estimate   =   -1939.12898707 Ry
     estimated scf accuracy    <       0.40161571 Ry

     total magnetization       =     8.00 Bohr mag/cell
     absolute magnetization    =     8.20 Bohr mag/cell

     iteration #  5     ecut=   100.00 Ry     beta= 0.70
     Davidson diagonalization with overlap
     ethr =  8.37E-05,  avg # of iterations =  3.5

     total cpu time spent up to now is      218.1 secs

     total energy              =   -1939.00821818 Ry
     Harris-Foulkes estimate   =   -1939.07414516 Ry
     estimated scf accuracy    <       0.54623892 Ry

     total magnetization       =     8.00 Bohr mag/cell
     absolute magnetization    =     8.20 Bohr mag/cell

     iteration #  6     ecut=   100.00 Ry     beta= 0.70
     Davidson diagonalization with overlap
     ethr =  8.37E-05,  avg # of iterations =  1.5

     total cpu time spent up to now is      248.6 secs

     total energy              =   -1939.00459688 Ry
     Harris-Foulkes estimate   =   -1939.05640488 Ry
     estimated scf accuracy    <       0.44007609 Ry

     total magnetization       =     8.00 Bohr mag/cell
     absolute magnetization    =     8.20 Bohr mag/cell

     iteration #  7     ecut=   100.00 Ry     beta= 0.70
     Davidson diagonalization with overlap
     ethr =  8.37E-05,  avg # of iterations =  2.0

     total cpu time spent up to now is      279.5 secs

     total energy              =   -1938.99175478 Ry
     Harris-Foulkes estimate   =   -1939.02260423 Ry
     estimated scf accuracy    <       0.15532384 Ry

     total magnetization       =     8.00 Bohr mag/cell
     absolute magnetization    =     8.20 Bohr mag/cell

     iteration #  8     ecut=   100.00 Ry     beta= 0.70
     Davidson diagonalization with overlap
     ethr =  3.24E-05,  avg # of iterations =  8.5

     total cpu time spent up to now is      317.1 secs

     total energy              =   -1939.00102354 Ry
     Harris-Foulkes estimate   =   -1939.00904858 Ry
     estimated scf accuracy    <       0.09478413 Ry

     total magnetization       =     8.00 Bohr mag/cell
     absolute magnetization    =     8.20 Bohr mag/cell

     iteration #  9     ecut=   100.00 Ry     beta= 0.70
     Davidson diagonalization with overlap
     ethr =  1.97E-05,  avg # of iterations =  1.5

     total cpu time spent up to now is      347.7 secs

     total energy              =   -1939.00470404 Ry
     Harris-Foulkes estimate   =   -1939.00801639 Ry
     estimated scf accuracy    <       0.06782979 Ry

     total magnetization       =     8.00 Bohr mag/cell
     absolute magnetization    =     8.20 Bohr mag/cell

     iteration # 10     ecut=   100.00 Ry     beta= 0.70
     Davidson diagonalization with overlap
     ethr =  1.41E-05,  avg # of iterations =  1.0

     total cpu time spent up to now is      378.0 secs

     total energy              =   -1939.01015139 Ry
     Harris-Foulkes estimate   =   -1939.00877993 Ry
     estimated scf accuracy    <       0.03271408 Ry

     total magnetization       =     8.00 Bohr mag/cell
     absolute magnetization    =     8.19 Bohr mag/cell

     iteration # 11     ecut=   100.00 Ry     beta= 0.70
     Davidson diagonalization with overlap
     ethr =  6.82E-06,  avg # of iterations =  3.5

     total cpu time spent up to now is      410.8 secs

     total energy              =   -1939.01188826 Ry
     Harris-Foulkes estimate   =   -1939.01103764 Ry
     estimated scf accuracy    <       0.01100314 Ry

     total magnetization       =     8.00 Bohr mag/cell
     absolute magnetization    =     8.19 Bohr mag/cell

     iteration # 12     ecut=   100.00 Ry     beta= 0.70
     Davidson diagonalization with overlap
     ethr =  2.29E-06,  avg # of iterations =  4.0

     total cpu time spent up to now is      445.4 secs

     total energy              =   -1939.01312260 Ry
     Harris-Foulkes estimate   =   -1939.01250766 Ry
     estimated scf accuracy    <       0.00196590 Ry

     total magnetization       =     8.00 Bohr mag/cell
     absolute magnetization    =     8.19 Bohr mag/cell

     iteration # 13     ecut=   100.00 Ry     beta= 0.70
     Davidson diagonalization with overlap
     ethr =  4.10E-07,  avg # of iterations =  3.5

     total cpu time spent up to now is      479.3 secs

     total energy              =   -1939.01339786 Ry
     Harris-Foulkes estimate   =   -1939.01354234 Ry
     estimated scf accuracy    <       0.00768783 Ry

     total magnetization       =     8.00 Bohr mag/cell
     absolute magnetization    =     8.19 Bohr mag/cell

     iteration # 14     ecut=   100.00 Ry     beta= 0.70
     Davidson diagonalization with overlap
     ethr =  4.10E-07,  avg # of iterations =  3.0

     total cpu time spent up to now is      510.9 secs

     total energy              =   -1939.01391929 Ry
     Harris-Foulkes estimate   =   -1939.01370057 Ry
     estimated scf accuracy    <       0.00035551 Ry

     total magnetization       =     8.00 Bohr mag/cell
     absolute magnetization    =     8.19 Bohr mag/cell

     iteration # 15     ecut=   100.00 Ry     beta= 0.70
     Davidson diagonalization with overlap
     ethr =  7.41E-08,  avg # of iterations =  4.0

     total cpu time spent up to now is      544.7 secs

     total energy              =   -1939.01398305 Ry
     Harris-Foulkes estimate   =   -1939.01393999 Ry
     estimated scf accuracy    <       0.00010330 Ry

     total magnetization       =     8.00 Bohr mag/cell
     absolute magnetization    =     8.19 Bohr mag/cell

     iteration # 16     ecut=   100.00 Ry     beta= 0.70
     Davidson diagonalization with overlap
     ethr =  2.15E-08,  avg # of iterations =  4.0

     total cpu time spent up to now is      578.0 secs

     total energy              =   -1939.01399320 Ry
     Harris-Foulkes estimate   =   -1939.01398954 Ry
     estimated scf accuracy    <       0.00005949 Ry

     total magnetization       =     8.00 Bohr mag/cell
     absolute magnetization    =     8.19 Bohr mag/cell

     iteration # 17     ecut=   100.00 Ry     beta= 0.70
     Davidson diagonalization with overlap
     ethr =  1.24E-08,  avg # of iterations =  3.0

     total cpu time spent up to now is      609.9 secs

     total energy              =   -1939.01399640 Ry
     Harris-Foulkes estimate   =   -1939.01400275 Ry
     estimated scf accuracy    <       0.00017042 Ry

     total magnetization       =     8.00 Bohr mag/cell
     absolute magnetization    =     8.19 Bohr mag/cell

     iteration # 18     ecut=   100.00 Ry     beta= 0.70
     Davidson diagonalization with overlap
     ethr =  1.24E-08,  avg # of iterations =  3.0

     total cpu time spent up to now is      641.5 secs

     total energy              =   -1939.01400298 Ry
     Harris-Foulkes estimate   =   -1939.01400322 Ry
     estimated scf accuracy    <       0.00003063 Ry

     total magnetization       =     8.00 Bohr mag/cell
     absolute magnetization    =     8.19 Bohr mag/cell

     iteration # 19     ecut=   100.00 Ry     beta= 0.70
     Davidson diagonalization with overlap
     ethr =  6.38E-09,  avg # of iterations =  2.0

     total cpu time spent up to now is      672.5 secs

     total energy              =   -1939.01400593 Ry
     Harris-Foulkes estimate   =   -1939.01400487 Ry
     estimated scf accuracy    <       0.00001705 Ry

     total magnetization       =     8.00 Bohr mag/cell
     absolute magnetization    =     8.19 Bohr mag/cell

     iteration # 20     ecut=   100.00 Ry     beta= 0.70
     Davidson diagonalization with overlap
     ethr =  3.55E-09,  avg # of iterations =  3.0

     total cpu time spent up to now is      704.2 secs

     total energy              =   -1939.01400781 Ry
     Harris-Foulkes estimate   =   -1939.01400693 Ry
     estimated scf accuracy    <       0.00000937 Ry

     total magnetization       =     8.00 Bohr mag/cell
     absolute magnetization    =     8.19 Bohr mag/cell

     iteration # 21     ecut=   100.00 Ry     beta= 0.70
     Davidson diagonalization with overlap
     ethr =  1.95E-09,  avg # of iterations =  3.0

     total cpu time spent up to now is      736.1 secs

     total energy              =   -1939.01400841 Ry
     Harris-Foulkes estimate   =   -1939.01400812 Ry
     estimated scf accuracy    <       0.00000251 Ry

     total magnetization       =     8.00 Bohr mag/cell
     absolute magnetization    =     8.19 Bohr mag/cell

     iteration # 22     ecut=   100.00 Ry     beta= 0.70
     Davidson diagonalization with overlap
     ethr =  5.23E-10,  avg # of iterations =  3.0

     total cpu time spent up to now is      768.7 secs

     total energy              =   -1939.01400850 Ry
     Harris-Foulkes estimate   =   -1939.01400862 Ry
     estimated scf accuracy    <       0.00000287 Ry

     total magnetization       =     8.00 Bohr mag/cell
     absolute magnetization    =     8.19 Bohr mag/cell

     iteration # 23     ecut=   100.00 Ry     beta= 0.70
     Davidson diagonalization with overlap
     ethr =  5.23E-10,  avg # of iterations =  3.0

     total cpu time spent up to now is      800.4 secs

     total energy              =   -1939.01400855 Ry
     Harris-Foulkes estimate   =   -1939.01400875 Ry
     estimated scf accuracy    <       0.00000320 Ry

     total magnetization       =     8.00 Bohr mag/cell
     absolute magnetization    =     8.19 Bohr mag/cell

     iteration # 24     ecut=   100.00 Ry     beta= 0.70
     Davidson diagonalization with overlap
     ethr =  5.23E-10,  avg # of iterations =  1.0

     total cpu time spent up to now is      830.8 secs

     total energy              =   -1939.01400864 Ry
     Harris-Foulkes estimate   =   -1939.01400877 Ry
     estimated scf accuracy    <       0.00000239 Ry

     total magnetization       =     8.00 Bohr mag/cell
     absolute magnetization    =     8.19 Bohr mag/cell

     iteration # 25     ecut=   100.00 Ry     beta= 0.70
     Davidson diagonalization with overlap
     ethr =  4.99E-10,  avg # of iterations =  2.0
 
     Magnetic moment per site:
     atom:    1    charge:    0.8456    magn:    0.0041    constr:    0.0000
     atom:    2    charge:    0.8376    magn:    0.0057    constr:    0.0000
     atom:    3    charge:    0.8484    magn:    0.0042    constr:    0.0000
     atom:    4    charge:    0.8484    magn:    0.0029    constr:    0.0000
     atom:    5    charge:    0.8370    magn:    0.0038    constr:    0.0000
     atom:    6    charge:    0.8471    magn:    0.0046    constr:    0.0000
     atom:    7    charge:    0.8378    magn:    0.0056    constr:    0.0000
     atom:    8    charge:    0.8371    magn:    0.0056    constr:    0.0000
     atom:    9    charge:    0.8401    magn:    0.0067    constr:    0.0000
     atom:   10    charge:    0.8409    magn:    0.0066    constr:    0.0000
     atom:   11    charge:    0.8395    magn:    0.0049    constr:    0.0000
     atom:   12    charge:    0.8412    magn:    0.0065    constr:    0.0000
     atom:   13    charge:    0.8430    magn:    0.0063    constr:    0.0000
     atom:   14    charge:    0.8400    magn:    0.0047    constr:    0.0000
     atom:   15    charge:    0.8399    magn:    0.0049    constr:    0.0000
     atom:   16    charge:    0.8454    magn:    0.0055    constr:    0.0000
     atom:   17    charge:    0.8456    magn:    0.0045    constr:    0.0000
     atom:   18    charge:    0.8479    magn:    0.0050    constr:    0.0000
     atom:   19    charge:    0.8503    magn:    0.0040    constr:    0.0000
     atom:   20    charge:    0.8482    magn:    0.0036    constr:    0.0000
     atom:   21    charge:    0.8220    magn:   -0.0014    constr:    0.0000
     atom:   22    charge:    0.8281    magn:    0.0008    constr:    0.0000
     atom:   23    charge:    0.8230    magn:   -0.0010    constr:    0.0000
     atom:   24    charge:    0.8233    magn:   -0.0014    constr:    0.0000
     atom:   25    charge:    0.8461    magn:    0.0040    constr:    0.0000
     atom:   26    charge:    0.8458    magn:    0.0044    constr:    0.0000
     atom:   27    charge:    0.8489    magn:    0.0032    constr:    0.0000
     atom:   28    charge:    0.8481    magn:    0.0031    constr:    0.0000
     atom:   29    charge:    0.8389    magn:    0.0041    constr:    0.0000
     atom:   30    charge:    0.8381    magn:    0.0045    constr:    0.0000
     atom:   31    charge:    0.8386    magn:    0.0054    constr:    0.0000
     atom:   32    charge:    0.8458    magn:    0.0038    constr:    0.0000
     atom:   33    charge:    0.8408    magn:    0.0065    constr:    0.0000
     atom:   34    charge:    0.8378    magn:    0.0048    constr:    0.0000
     atom:   35    charge:    0.8399    magn:    0.0049    constr:    0.0000
     atom:   36    charge:    0.8378    magn:    0.0048    constr:    0.0000
     atom:   37    charge:    0.8477    magn:    0.0070    constr:    0.0000
     atom:   38    charge:    0.8418    magn:    0.0061    constr:    0.0000
     atom:   39    charge:    0.8455    magn:    0.0054    constr:    0.0000
     atom:   40    charge:    0.8473    magn:    0.0069    constr:    0.0000
     atom:   41    charge:    0.8477    magn:    0.0051    constr:    0.0000
     atom:   42    charge:    0.8385    magn:    0.0044    constr:    0.0000
     atom:   43    charge:    0.8511    magn:    0.0030    constr:    0.0000
     atom:   44    charge:    0.8481    magn:    0.0041    constr:    0.0000
     atom:   45    charge:    0.8267    magn:    0.0006    constr:    0.0000
     atom:   46    charge:    0.8286    magn:    0.0011    constr:    0.0000
     atom:   47    charge:    0.8262    magn:    0.0002    constr:    0.0000
     atom:   48    charge:    0.8239    magn:   -0.0012    constr:    0.0000
     atom:   49    charge:    0.4354    magn:   -0.0012    constr:    0.0000
     atom:   50    charge:    0.4367    magn:   -0.0011    constr:    0.0000
     atom:   51    charge:    0.4351    magn:   -0.0013    constr:    0.0000
     atom:   52    charge:    0.4357    magn:   -0.0012    constr:    0.0000
     atom:   53    charge:    0.4351    magn:   -0.0010    constr:    0.0000
     atom:   54    charge:    0.4401    magn:   -0.0010    constr:    0.0000
     atom:   55    charge:    0.4419    magn:   -0.0010    constr:    0.0000
     atom:   56    charge:    0.4396    magn:   -0.0010    constr:    0.0000
     atom:   57    charge:    0.4339    magn:   -0.0009    constr:    0.0000
     atom:   58    charge:    0.4360    magn:   -0.0008    constr:    0.0000
     atom:   59    charge:    0.4367    magn:   -0.0008    constr:    0.0000
     atom:   60    charge:    0.4370    magn:   -0.0006    constr:    0.0000
     atom:   61    charge:    0.4349    magn:   -0.0012    constr:    0.0000
     atom:   62    charge:    0.4350    magn:   -0.0012    constr:    0.0000
     atom:   63    charge:    0.4354    magn:   -0.0011    constr:    0.0000
     atom:   64    charge:    0.4345    magn:   -0.0010    constr:    0.0000
     atom:   65    charge:    0.4364    magn:   -0.0009    constr:    0.0000
     atom:   66    charge:    0.4412    magn:   -0.0010    constr:    0.0000
     atom:   67    charge:    0.4360    magn:   -0.0009    constr:    0.0000
     atom:   68    charge:    0.4341    magn:   -0.0007    constr:    0.0000
     atom:   69    charge:    0.4334    magn:   -0.0009    constr:    0.0000
     atom:   70    charge:    0.4367    magn:   -0.0006    constr:    0.0000
     atom:   71    charge:    0.4345    magn:   -0.0007    constr:    0.0000
     atom:   72    charge:    0.4363    magn:   -0.0012    constr:    0.0000
     atom:   73    charge:    0.4310    magn:    0.0015    constr:    0.0000
     atom:   74    charge:    0.4326    magn:    0.0033    constr:    0.0000
     atom:   75    charge:    0.4312    magn:    0.0034    constr:    0.0000
     atom:   76    charge:    0.4266    magn:    0.0033    constr:    0.0000
     atom:   77    charge:    0.4261    magn:    0.0015    constr:    0.0000
     atom:   78    charge:    0.4261    magn:    0.0017    constr:    0.0000
     atom:   79    charge:    0.4274    magn:    0.0031    constr:    0.0000
     atom:   80    charge:    0.4288    magn:    0.0023    constr:    0.0000
     atom:   81    charge:    1.3589    magn:    0.0071    constr:    0.0000
     atom:   82    charge:    1.3585    magn:    0.0073    constr:    0.0000
     atom:   83    charge:    1.3569    magn:    0.0067    constr:    0.0000
     atom:   84    charge:    1.3591    magn:    0.0071    constr:    0.0000
     atom:   85    charge:    1.3608    magn:    0.0072    constr:    0.0000
     atom:   86    charge:    1.3570    magn:    0.0070    constr:    0.0000
     atom:   87    charge:    1.3588    magn:    0.0069    constr:    0.0000
     atom:   88    charge:    1.3580    magn:    0.0070    constr:    0.0000
     atom:   89    charge:    1.3380    magn:    0.0184    constr:    0.0000
     atom:   90    charge:    1.3499    magn:    0.0276    constr:    0.0000
     atom:   91    charge:    1.3423    magn:    0.0220    constr:    0.0000
     atom:   92    charge:    1.3507    magn:    0.0274    constr:    0.0000
     atom:   93    charge:    1.3370    magn:    0.0220    constr:    0.0000
     atom:   94    charge:    1.3509    magn:    0.0284    constr:    0.0000
     atom:   95    charge:    1.3365    magn:    0.0215    constr:    0.0000
     atom:   96    charge:    1.3496    magn:    0.0286    constr:    0.0000
     atom:   97    charge:    1.3389    magn:    0.0177    constr:    0.0000
     atom:   98    charge:    1.3489    magn:    0.0276    constr:    0.0000
     atom:   99    charge:    1.3371    magn:    0.0186    constr:    0.0000
     atom:  100    charge:    1.3485    magn:    0.0281    constr:    0.0000
     atom:  101    charge:    1.3384    magn:    0.0209    constr:    0.0000
     atom:  102    charge:    1.3510    magn:    0.0271    constr:    0.0000
     atom:  103    charge:    1.3392    magn:    0.0197    constr:    0.0000
     atom:  104    charge:    1.3473    magn:    0.0277    constr:    0.0000
     atom:  105    charge:    7.4463    magn:    1.0557    constr:    0.0000
     atom:  106    charge:    7.4426    magn:    1.0510    constr:    0.0000
     atom:  107    charge:    7.4514    magn:    1.0540    constr:    0.0000
     atom:  108    charge:    7.4464    magn:    1.0531    constr:    0.0000
     atom:  109    charge:    3.2583    magn:    0.0490    constr:    0.0000
     atom:  110    charge:    3.2571    magn:    0.0511    constr:    0.0000
     atom:  111    charge:    3.2598    magn:    0.0508    constr:    0.0000
     atom:  112    charge:    3.2634    magn:    0.0405    constr:    0.0000
     atom:  113    charge:    3.2589    magn:    0.0443    constr:    0.0000
     atom:  114    charge:    3.2581    magn:    0.0516    constr:    0.0000
     atom:  115    charge:    3.2571    magn:    0.0424    constr:    0.0000
     atom:  116    charge:    3.2561    magn:    0.0413    constr:    0.0000
     atom:  117    charge:    3.2630    magn:    0.0450    constr:    0.0000
     atom:  118    charge:    3.2589    magn:    0.0498    constr:    0.0000
     atom:  119    charge:    3.2650    magn:    0.0413    constr:    0.0000
     atom:  120    charge:    3.2632    magn:    0.0394    constr:    0.0000
     atom:  121    charge:    3.2597    magn:    0.0494    constr:    0.0000
     atom:  122    charge:    3.2600    magn:    0.0500    constr:    0.0000
     atom:  123    charge:    3.2581    magn:    0.0516    constr:    0.0000
     atom:  124    charge:    3.2573    magn:    0.0409    constr:    0.0000

     total cpu time spent up to now is      861.3 secs

     End of self-consistent calculation

 ------ SPIN UP ------------


          k = 0.0000 0.0000 0.0000 ( 91663 PWs)   bands (ev):

   -21.9021 -21.8699 -21.7530 -21.5857 -21.2516 -21.2342 -21.1880 -21.1837
   -20.7945 -20.7924 -20.6833 -20.6215 -20.4114 -20.3802 -20.3783 -20.3154
   -18.7707 -18.7042 -18.6508 -18.5362 -18.3896 -18.3051 -18.2747 -18.2490
   -18.2453 -18.2105 -18.2021 -18.2004 -18.1832 -18.1049 -18.0639 -18.0203
   -15.2341 -15.2044 -15.0837 -15.0384 -15.0005 -14.9911 -14.9539 -14.9329
   -13.8550 -13.8342 -13.7169 -13.6750 -13.6495 -13.5722 -13.5319 -13.4304
   -12.3709 -12.2429 -12.1963 -12.1182 -12.0560 -11.9404 -11.9177 -11.7713
   -10.9162 -10.8453 -10.7631 -10.7156 -10.7109 -10.6584 -10.6466 -10.5642
   -10.0580  -9.9292  -9.8464  -9.8152  -9.6703  -9.6225  -9.6151  -9.5219
    -8.7284  -8.5458  -8.4456  -8.4279  -8.3490  -8.2533  -8.2090  -8.1069
    -8.0919  -8.0117  -7.9200  -7.8164  -7.7643  -7.7280  -7.6602  -7.6307
    -7.2402  -7.1885  -6.9830  -6.9538  -6.8901  -6.8103  -6.6925  -6.6867
    -6.5984  -6.5631  -6.5175  -6.4735  -6.4165  -6.3966  -6.2841  -6.1569
    -6.1490  -6.1118  -5.9851  -5.8967  -5.8648  -5.8223  -5.7958  -5.7401
    -5.7389  -5.6341  -5.6188  -5.6078  -5.5532  -5.5318  -5.5113  -5.4306
    -5.4026  -5.3674  -5.3536  -5.3335  -5.3157  -5.2492  -5.2341  -5.1993
    -5.1814  -5.1104  -5.0959  -5.0253  -5.0084  -5.0042  -4.9601  -4.9462
    -4.9009  -4.8321  -4.8264  -4.7758  -4.7070  -4.6855  -4.6588  -4.6138
    -4.5960  -4.5399  -4.4701  -4.4584  -4.3316  -4.2298  -4.2122  -4.1026
    -4.0612  -4.0502  -3.9865  -3.9470  -3.8613  -3.8394  -3.6890  -3.6807
    -3.5449  -3.4808  -3.4541  -3.3850  -3.3246  -3.2966  -3.2743  -3.2223
    -3.2107  -3.1621  -3.1229  -3.1113  -3.0085  -2.9002  -2.8421  -2.7704
    -2.6557  -2.6048  -2.5692  -2.4207  -2.3549  -2.3323  -2.2508  -2.2422
    -2.1846  -2.1638  -2.1088  -2.0679  -2.0265  -1.9763  -1.9668  -1.9335
    -1.8568  -1.8322  -1.7904  -1.6941  -1.5487  -1.4797  -1.4566  -1.4443
    -1.4153  -1.3940  -1.3442  -1.3018  -1.2974  -1.2508  -1.2334  -1.2172
    -1.1760  -1.1580  -1.0921  -1.0787  -1.0483  -1.0215  -0.9943  -0.9317
    -0.9162  -0.9060  -0.8337  -0.8261  -0.8204  -0.7669  -0.7574  -0.7377
    -0.7069  -0.6904  -0.6465  -0.5855   0.1838   0.3273   0.3570   0.4664
     0.7547   0.8349   0.9583   1.0255   1.0925   1.2872   1.3132   1.3707
     1.4154   1.4774   1.5992   1.6875   1.7422   1.9159   2.1119   2.1965
     2.2092   2.3013   2.4158   2.4763   2.9705   3.0488   3.0890   3.1532
     3.1868   3.2069   3.3097   3.3268   4.4774   4.6340   4.6795   4.7136
     4.7909   4.8398   4.9214   4.9965   5.1088   5.1772   5.2305   5.2626
     5.4054   5.4427   5.5307   5.5570   5.6693   5.6724   5.7137   5.7669
     5.8443   6.0302   6.0841   6.3510   6.4164   6.4565   6.4633   6.6725
     6.7699   6.8570   7.0514   7.1016   7.2497

 ------ SPIN DOWN ----------


          k = 0.0000 0.0000 0.0000 ( 91663 PWs)   bands (ev):

   -21.8246 -21.7911 -21.6734 -21.5018 -21.1602 -21.1432 -21.0942 -21.0893
   -20.7189 -20.7184 -20.6092 -20.5471 -20.3299 -20.3029 -20.2974 -20.2392
   -18.6777 -18.6097 -18.5540 -18.4327 -18.3563 -18.2688 -18.2408 -18.1738
   -18.1578 -18.1327 -18.1275 -18.0905 -18.0768 -18.0670 -18.0329 -17.9877
   -15.1901 -15.1574 -15.0393 -14.9959 -14.9549 -14.9496 -14.9130 -14.8852
   -13.8139 -13.7948 -13.6752 -13.6326 -13.6085 -13.5283 -13.4877 -13.3844
   -12.3155 -12.1847 -12.1413 -12.0586 -12.0006 -11.8799 -11.8584 -11.7078
   -10.8753 -10.8049 -10.7224 -10.6790 -10.6732 -10.6198 -10.6100 -10.5253
   -10.0166  -9.8886  -9.8050  -9.7731  -9.6274  -9.5807  -9.5723  -9.4801
    -8.6803  -8.4991  -8.4057  -8.3843  -8.3076  -8.2168  -8.1691  -8.0666
    -8.0421  -7.9617  -7.8717  -7.7653  -7.7095  -7.6737  -7.6103  -7.5755
    -7.1759  -7.1210  -6.9189  -6.8913  -6.8327  -6.7534  -6.6445  -6.6353
    -6.5467  -6.5079  -6.4689  -6.4226  -6.3536  -6.3310  -6.2218  -6.0784
    -6.0741  -6.0295  -5.9173  -5.8166  -5.7948  -5.7407  -5.7057  -5.6595
    -5.6453  -5.5489  -5.5291  -5.5154  -5.4485  -5.4411  -5.4196  -5.3440
    -5.3088  -5.2774  -5.2697  -5.2556  -5.2210  -5.1442  -5.1328  -5.1213
    -5.0866  -5.0134  -5.0008  -4.9515  -4.9228  -4.9085  -4.8884  -4.8580
    -4.8445  -4.7828  -4.7340  -4.7161  -4.6570  -4.6377  -4.5801  -4.5639
    -4.5141  -4.4411  -4.3846  -4.3690  -4.2310  -4.1267  -4.1127  -4.0041
    -3.9739  -3.9453  -3.8913  -3.8498  -3.7643  -3.7475  -3.5908  -3.5656
    -3.4400  -3.3679  -3.3350  -3.2579  -3.2305  -3.1816  -3.1586  -3.1275
    -3.0905  -3.0828  -3.0561  -2.8356  -2.8022  -2.6221  -2.5973  -2.4722
    -2.4060  -2.3783  -2.3546  -2.2194  -2.1669  -2.0604  -2.0532  -1.9999
    -1.9734  -1.9028  -1.8706  -1.8629  -1.7999  -1.7299  -1.6846  -1.6659
    -1.6314  -1.6048  -1.5170  -1.4133  -1.3143  -1.2731  -1.2401  -1.2042
    -1.1768  -1.1269  -1.0873  -1.0787  -1.0534  -1.0079  -0.9537  -0.9203
    -0.8551  -0.8333  -0.8002  -0.7269  -0.6967  -0.6425  -0.6219  -0.5642
    -0.3484  -0.2058  -0.1890  -0.1525  -0.0896  -0.0771  -0.0387  -0.0210
    -0.0062   0.0055   0.0248   0.0707   0.4975   0.6033   0.6267   0.7056
     1.1887   1.2813   1.3869   1.4195   1.7142   1.7695   1.8661   1.8820
     1.9632   2.0138   2.0512   2.0608   2.1159   2.1480   2.2404   2.3395
     2.3419   2.4357   2.5696   2.6235   3.0865   3.1538   3.1848   3.2635
     3.2871   3.3141   3.4125   3.4382   4.5283   4.7187   4.7676   4.7982
     4.8793   4.9312   5.0126   5.0862   5.1815   5.2503   5.2931   5.3274
     5.4770   5.5206   5.6017   5.6280   5.7338   5.7423   5.7884   5.8379
     5.9072   6.0833   6.1279   6.4021   6.4645   6.5057   6.5150   6.7130
     6.8101   6.8963   7.0996   7.1475   7.2900

     the spin up/dw Fermi energies are     1.5681    1.2578 ev

!    total energy              =   -1939.01400873 Ry
     Harris-Foulkes estimate   =   -1939.01400871 Ry
     estimated scf accuracy    <       0.00000032 Ry

     The total energy is the sum of the following terms:

     one-electron contribution =   -2728.81106879 Ry
     hartree contribution      =    1546.08376487 Ry
     xc contribution           =    -572.67806941 Ry
     ewald contribution        =    -185.19880497 Ry
     Dispersion Correction     =      -0.60918108 Ry
     smearing contrib. (-TS)   =       2.19935065 Ry

     total magnetization       =     8.00 Bohr mag/cell
     absolute magnetization    =     8.19 Bohr mag/cell

     convergence has been achieved in  25 iterations

     Forces acting on atoms (cartesian axes, Ry/au):

     atom    1 type  1   force =     0.00490387   -0.00724107    0.01185438
     atom    2 type  1   force =    -0.03605522   -0.00673962   -0.02939312
     atom    3 type  1   force =    -0.00055075    0.02381933   -0.02481342
     atom    4 type  1   force =     0.02301414   -0.03093130   -0.01901338
     atom    5 type  1   force =     0.04941386    0.00800659    0.01452649
     atom    6 type  1   force =    -0.01458071    0.01255102    0.00012032
     atom    7 type  1   force =     0.02872690   -0.01113818   -0.03095213
     atom    8 type  1   force =     0.03348366    0.01143678   -0.03463928
     atom    9 type  1   force =     0.00313529    0.01982755    0.02328104
     atom   10 type  1   force =     0.00255673   -0.02167547    0.01086450
     atom   11 type  1   force =     0.00920972    0.00207363   -0.01880278
     atom   12 type  1   force =     0.00165506    0.02283748    0.01166397
     atom   13 type  1   force =    -0.00621481   -0.01503066    0.01225937
     atom   14 type  1   force =     0.01377271   -0.00692669    0.00013751
     atom   15 type  1   force =    -0.01088402   -0.00594765   -0.00053958
     atom   16 type  1   force =    -0.01169738   -0.03843948   -0.03383888
     atom   17 type  1   force =     0.01566965    0.00925889   -0.00322290
     atom   18 type  1   force =     0.00768243   -0.01065772   -0.03204312
     atom   19 type  1   force =    -0.02010891   -0.02321401   -0.01062855
     atom   20 type  1   force =    -0.02107908    0.02068011   -0.00881335
     atom   21 type  1   force =    -0.00074610    0.00497424   -0.00348520
     atom   22 type  1   force =     0.05079064    0.00661842    0.07772246
     atom   23 type  1   force =     0.00813257   -0.00355026   -0.00122721
     atom   24 type  1   force =    -0.00207872    0.00589338   -0.00302918
     atom   25 type  1   force =    -0.00060378   -0.00994248    0.01617599
     atom   26 type  1   force =     0.00186053    0.00874030    0.01768272
     atom   27 type  1   force =     0.00303160    0.03203048   -0.03103995
     atom   28 type  1   force =     0.00484125   -0.03342542   -0.03352724
     atom   29 type  1   force =     0.06884438    0.00582559   -0.00189366
     atom   30 type  1   force =     0.04801748   -0.00804014    0.01373345
     atom   31 type  1   force =     0.03254434   -0.00565235   -0.02349761
     atom   32 type  1   force =    -0.00378788   -0.00762661    0.01358473
     atom   33 type  1   force =     0.00659385    0.01299848    0.01733582
     atom   34 type  1   force =     0.00225866    0.01233638   -0.01004571
     atom   35 type  1   force =     0.00676074    0.00607224   -0.02354835
     atom   36 type  1   force =     0.00120991   -0.00838726   -0.00750126
     atom   37 type  1   force =     0.00138199   -0.05926667   -0.02430554
     atom   38 type  1   force =    -0.00821668    0.01521611    0.01168978
     atom   39 type  1   force =    -0.01157535    0.03377408   -0.03405477
     atom   40 type  1   force =     0.00250694   -0.05850304   -0.02045980
     atom   41 type  1   force =     0.00706166    0.01117983   -0.02759409
     atom   42 type  1   force =    -0.06336551    0.01342011   -0.00926912
     atom   43 type  1   force =    -0.02385297   -0.02687332   -0.01581238
     atom   44 type  1   force =    -0.00016691    0.02371426   -0.02421040
     atom   45 type  1   force =     0.04432107   -0.00417167    0.06772433
     atom   46 type  1   force =     0.04317101    0.00874730    0.08042893
     atom   47 type  1   force =    -0.02332845    0.00025253    0.04272264
     atom   48 type  1   force =     0.00655733    0.00485875    0.00065901
     atom   49 type  2   force =     0.00247492    0.00302945   -0.00070828
     atom   50 type  2   force =     0.00047007   -0.00287904    0.00227774
     atom   51 type  2   force =    -0.00057287   -0.00267045   -0.00354918
     atom   52 type  2   force =    -0.00191778    0.00301985   -0.00137445
     atom   53 type  2   force =     0.00255597   -0.00301875   -0.00418782
     atom   54 type  2   force =    -0.00050894   -0.00099647    0.00216611
     atom   55 type  2   force =     0.00547809   -0.00367001   -0.00258108
     atom   56 type  2   force =     0.00023111   -0.00045292    0.00167604
     atom   57 type  2   force =    -0.00016516   -0.00026632    0.00245799
     atom   58 type  2   force =    -0.00241318   -0.00051808   -0.00094360
     atom   59 type  2   force =     0.00205141   -0.00040733   -0.00026471
     atom   60 type  2   force =     0.00313254   -0.00379987   -0.01113878
     atom   61 type  2   force =     0.00197219   -0.00240856   -0.00305655
     atom   62 type  2   force =     0.00140343    0.00340718   -0.00306524
     atom   63 type  2   force =    -0.00011605    0.00323265    0.00263895
     atom   64 type  2   force =     0.00295671   -0.00293002   -0.00405682
     atom   65 type  2   force =    -0.00134943    0.00001252   -0.00748053
     atom   66 type  2   force =     0.00492294   -0.00328913   -0.00240474
     atom   67 type  2   force =     0.00153445   -0.00083112   -0.00861060
     atom   68 type  2   force =    -0.00203386   -0.00537298   -0.00904764
     atom   69 type  2   force =     0.00009440   -0.00105284    0.00132998
     atom   70 type  2   force =     0.00338818    0.00326354   -0.01083900
     atom   71 type  2   force =    -0.00063456   -0.00396993   -0.00915617
     atom   72 type  2   force =     0.00083934   -0.00227148   -0.00437957
     atom   73 type  2   force =    -0.00579000    0.01094794   -0.01151170
     atom   74 type  2   force =     0.01746095   -0.01327663   -0.00079849
     atom   75 type  2   force =    -0.01478516   -0.01451253   -0.00265142
     atom   76 type  2   force =    -0.00663106    0.01099559   -0.00188914
     atom   77 type  2   force =     0.00290505    0.00974256   -0.00985274
     atom   78 type  2   force =     0.00295515   -0.00895073   -0.01034494
     atom   79 type  2   force =    -0.00393111   -0.01054714    0.00099155
     atom   80 type  2   force =     0.00143050    0.01446232   -0.00845012
     atom   81 type  3   force =     0.01113266   -0.00571994    0.00682788
     atom   82 type  3   force =    -0.00603912    0.00237477   -0.00850133
     atom   83 type  3   force =     0.00633663   -0.00127553   -0.01229845
     atom   84 type  3   force =     0.00792096   -0.00907549   -0.01374195
     atom   85 type  3   force =     0.00786369   -0.01408913    0.00232595
     atom   86 type  3   force =     0.00967559    0.00224266    0.00389140
     atom   87 type  3   force =     0.00931720    0.00784603   -0.01640860
     atom   88 type  3   force =    -0.00571113   -0.01014735   -0.00183726
     atom   89 type  3   force =    -0.04802024   -0.02986113    0.00987020
     atom   90 type  3   force =    -0.03849282    0.07748643   -0.06641064
     atom   91 type  3   force =    -0.03419066    0.05832108    0.07136341
     atom   92 type  3   force =     0.04517292    0.04427626    0.06268356
     atom   93 type  3   force =     0.02099775    0.06102188    0.04838635
     atom   94 type  3   force =    -0.05128047    0.03479148    0.06986235
     atom   95 type  3   force =     0.02391645   -0.06317946    0.04872599
     atom   96 type  3   force =    -0.05833750   -0.02901927    0.06566365
     atom   97 type  3   force =    -0.04836207   -0.03473103   -0.00234273
     atom   98 type  3   force =    -0.03701071    0.07906530   -0.07504930
     atom   99 type  3   force =    -0.04275366    0.03273915    0.01522335
     atom  100 type  3   force =    -0.03842020   -0.07096174   -0.06637162
     atom  101 type  3   force =     0.03982353    0.05951874    0.07194160
     atom  102 type  3   force =    -0.05597283    0.03179441    0.06023644
     atom  103 type  3   force =     0.03205933   -0.03161772   -0.00264627
     atom  104 type  3   force =     0.04789323    0.04807564   -0.06237449
     atom  105 type  4   force =     0.02277889   -0.01456176    0.00256063
     atom  106 type  4   force =    -0.00608479   -0.01243333    0.00272106
     atom  107 type  4   force =     0.02448054   -0.01512930    0.00101623
     atom  108 type  4   force =     0.01492450    0.01016761    0.00250090
     atom  109 type  5   force =    -0.00067907    0.00008196    0.00034025
     atom  110 type  5   force =     0.00229441    0.00145661    0.00078512
     atom  111 type  5   force =    -0.00291921   -0.00210575    0.00100347
     atom  112 type  5   force =    -0.03368465   -0.06520793   -0.00210929
     atom  113 type  5   force =     0.00751574    0.00042328    0.00109468
     atom  114 type  5   force =    -0.00431298   -0.00216273    0.00268968
     atom  115 type  5   force =    -0.01691416   -0.00408649   -0.00660179
     atom  116 type  5   force =    -0.01684940    0.00783662   -0.00251994
     atom  117 type  5   force =     0.01460723   -0.04468743    0.00491118
     atom  118 type  5   force =     0.00441206   -0.00247244    0.00083946
     atom  119 type  5   force =    -0.03371357    0.05287350    0.00104078
     atom  120 type  5   force =    -0.03930480   -0.05880045    0.00000342
     atom  121 type  5   force =    -0.00550004   -0.00334431    0.00250071
     atom  122 type  5   force =    -0.00303563    0.00732270    0.00066773
     atom  123 type  5   force =     0.00283354    0.00068392   -0.00236888
     atom  124 type  5   force =    -0.01999213   -0.00351440   -0.00425537

     Total force =     0.481011     Total SCF correction =     0.001159

     BFGS Geometry Optimization

     number of scf cycles    =   1
     number of bfgs steps    =   0

     energy   new            =   -1939.0140087265 Ry

     new trust radius        =       0.1151238960 bohr
     new conv_thr            =       0.0000010000 Ry


ATOMIC_POSITIONS (crystal)
C             0.2884306203        0.9697440282        0.5225945605
C             0.0368257637        0.0308212169        0.0207941059
C             0.3905874358        0.0127764876        0.5452139836
C             0.1412000261        0.9864369957        0.0451667151
C             0.4540195749        0.9705403191        0.6511191877
C             0.2019031269        0.0288833444        0.1498991971
C             0.2093675720        0.5292333555        0.5247898090
C             0.4599293988        0.4718922620        0.0261199024
C             0.2452914932        0.6141688148        0.6076340911
C             0.4969373727        0.3877611014        0.1091765764
C             0.2498480862        0.8892936213        0.6022345621
C             0.0011499676        0.1131969993        0.1048477531
C             0.4077255104        0.8887478782        0.7281834193
C             0.1605179240        0.1092543123        0.2278190825
C             0.0884009345        0.6087316815        0.7273242088
C             0.3403633038        0.3900087371        0.2276511272
C             0.0475850438        0.5254702349        0.6511460043
C             0.2979530477        0.4742606573        0.1511036178
C             0.1073031245        0.4832890901        0.5495685763
C             0.3569317728        0.5165298395        0.0501840682
C             0.4332751617        0.0995291869        0.4664414948
C             0.1837390708        0.8999996620        0.9696750987
C             0.0677209813        0.3943239837        0.4706127925
C             0.3159521992        0.6044210254        0.9689509820
C             0.7882016136        0.9696298799        0.5228171450
C             0.5384743038        0.0314753220        0.0232187495
C             0.8907331874        0.0131234505        0.5448932860
C             0.6404174316        0.9863316062        0.0444191781
C             0.9548263901        0.9704481607        0.6502734672
C             0.7045647432        0.0280132634        0.1506003418
C             0.7095370950        0.5294651595        0.5251737547
C             0.9583984488        0.4710867371        0.0286036821
C             0.7454322701        0.6138802517        0.6073278823
C             0.9969051593        0.3891982747        0.1080995952
C             0.7497400091        0.8894625831        0.6019901413
C             0.5011131661        0.1118775959        0.1038606474
C             0.9080126964        0.8868786823        0.7263001419
C             0.6595972668        0.1101899577        0.2284140824
C             0.5883402649        0.6104101265        0.7255980073
C             0.8409769033        0.3891609495        0.2283402169
C             0.5471979502        0.5255514044        0.6498907650
C             0.7949679860        0.4752780679        0.1522765936
C             0.6071398344        0.4831344657        0.5493015828
C             0.8578022433        0.5166580480        0.0493910422
C             0.9352489380        0.0991427259        0.4701091447
C             0.6834191815        0.9000896178        0.9698144958
C             0.5664298980        0.3944846705        0.4728764313
C             0.8163210924        0.6043773070        0.9691409422
H             0.2372280627        0.9997030095        0.4430765202
H             0.4865600262        0.0025703459        0.9436163148
H             0.2823124322        0.9985521599        0.1724191994
H             0.0085585605        0.5005246040        0.9504772091
H             0.3227452307        0.6503784425        0.5924193060
H             0.0749484947        0.3528088940        0.0951395655
H             0.1703833871        0.8549679233        0.5884270613
H             0.4223333507        0.1477128618        0.0899723243
H             0.4533653154        0.8551617468        0.8088875988
H             0.2061360013        0.1430811083        0.3087483999
H             0.0438155579        0.6429267881        0.8065943660
H             0.2965001131        0.3573654363        0.3084772966
H             0.4687525884        0.4931292261        0.6733445721
H             0.2190085133        0.5053449707        0.1751061245
H             0.7371215630        0.9997115958        0.4432489192
H             0.8227623112        0.6503821920        0.5924260532
H             0.5749038865        0.3528515292        0.0946427151
H             0.6703600613        0.8549840175        0.5884361438
H             0.9223788592        0.1476968808        0.0894425105
H             0.9532754557        0.8549459645        0.8082950008
H             0.7062452411        0.1430585123        0.3088655005
H             0.5438622114        0.6430819011        0.8060497367
H             0.7963425657        0.3573582505        0.3085794110
H             0.9687034118        0.4931350186        0.6732764301
H             0.6889552043        0.0037816059        0.7859510892
H             0.8378321154        0.0011299952        0.8152048736
H             0.4042728773        0.5008197721        0.3232554384
H             0.6551836345        0.5020336193        0.8252036996
H             0.1893246925        0.0037306727        0.7860365342
H             0.9401013508        0.9916357860        0.2837611832
H             0.9047355836        0.5009893297        0.3234420700
H             0.5646946112        0.5141281062        0.2845857761
N             0.3089144813        0.8510113035        0.7051796703
N             0.0604654843        0.1489573462        0.2056141385
N             0.1867986080        0.6502561025        0.7052045678
N             0.4391322961        0.3505445145        0.2073332204
N             0.8087719341        0.8506576626        0.7049477983
N             0.5611420723        0.1489517639        0.2062524266
N             0.6869218785        0.6506415347        0.7049928741
N             0.9385666102        0.3504992229        0.2079463718
N             0.5553222649        0.0078352157        0.6782293651
N             0.6117969171        0.9767661948        0.7660735169
N             0.9715931079        0.9959843615        0.9197505759
N             0.8841052589        0.0324388965        0.8957925195
N             0.2727648798        0.4942834843        0.4248561410
N             0.3589465417        0.5321501165        0.4027282633
N             0.5230597036        0.5071733471        0.9262016342
N             0.6094499862        0.4708407884        0.9044860091
N             0.0552963524        0.0076294376        0.6776003375
N             0.1118515355        0.9768329101        0.7656285825
N             0.8057791392        0.9895003952        0.1771300796
N             0.8628760269        0.0197975065        0.2644735269
N             0.7735835763        0.4942199689        0.4260693556
N             0.8587389607        0.5320244751        0.4022314807
N             0.6954711170        0.5151829908        0.1786357038
N             0.6409901454        0.4836054398        0.2656643992
Ni            0.2479682939        0.7508706915        0.8364578854
Ni            0.4997170715        0.2474736289        0.3393181481
Ni            0.7480388518        0.7508467105        0.8363783408
Ni            1.0006058776        0.2484286331        0.3393068088
O             0.1227495841        0.3476924632        0.3828905245
O             0.3713058243        0.6510385492        0.8813324379
O             0.3775074135        0.1474180216        0.3772296838
O             0.1236706495        0.8495966339        0.8761523607
O             0.4733880564        0.3561778859        0.4830503816
O             0.2209570167        0.6413236135        0.9800155322
O             0.0281180856        0.1349853250        0.4807379743
O             0.2759706518        0.8630891372        0.9792692105
O             0.6234017117        0.3458007293        0.3831259503
O             0.8713954841        0.6508725269        0.8813352366
O             0.8762043786        0.1497411736        0.3772316054
O             0.6234348120        0.8498673825        0.8762611762
O             0.9728386085        0.3560186860        0.4831227990
O             0.7210091726        0.6417244212        0.9799113914
O             0.5289576814        0.1351868991        0.4809559906
O             0.7758360399        0.8626094986        0.9791798267



     Writing output data file ./QE_relaxation_results/pbesol_relax/NiPyC2_relax_sc211_meta_functionalized_N-NH_pbesol_relax.save/
     NEW-OLD atomic charge density approx. for the potential

     Check: negative core charge=   -0.000145

     total cpu time spent up to now is      874.1 secs

     Self-consistent Calculation

     iteration #  1     ecut=   100.00 Ry     beta= 0.70
     Davidson diagonalization with overlap
     ethr =  1.00E-06,  avg # of iterations = 11.5

     total cpu time spent up to now is     1039.9 secs

     total energy              =   -1939.09120847 Ry
     Harris-Foulkes estimate   =   -1939.11463972 Ry
     estimated scf accuracy    <       0.07017435 Ry

     total magnetization       =     8.00 Bohr mag/cell
     absolute magnetization    =     8.19 Bohr mag/cell

     iteration #  2     ecut=   100.00 Ry     beta= 0.70
     Davidson diagonalization with overlap
     ethr =  1.46E-05,  avg # of iterations =  2.0

     total cpu time spent up to now is     1071.6 secs

     total energy              =   -1939.09095206 Ry
     Harris-Foulkes estimate   =   -1939.09791325 Ry
     estimated scf accuracy    <       0.02190153 Ry

     total magnetization       =     8.00 Bohr mag/cell
     absolute magnetization    =     8.19 Bohr mag/cell

     iteration #  3     ecut=   100.00 Ry     beta= 0.70
     Davidson diagonalization with overlap
     ethr =  4.56E-06,  avg # of iterations =  2.0

     total cpu time spent up to now is     1104.5 secs

     total energy              =   -1939.09007821 Ry
     Harris-Foulkes estimate   =   -1939.09958088 Ry
     estimated scf accuracy    <       0.09589357 Ry

     total magnetization       =     8.00 Bohr mag/cell
     absolute magnetization    =     8.19 Bohr mag/cell

     iteration #  4     ecut=   100.00 Ry     beta= 0.70
     Davidson diagonalization with overlap
     ethr =  4.56E-06,  avg # of iterations =  2.0

     total cpu time spent up to now is     1135.7 secs

     total energy              =   -1939.09392280 Ry
     Harris-Foulkes estimate   =   -1939.09467452 Ry
     estimated scf accuracy    <       0.00391491 Ry

     total magnetization       =     8.00 Bohr mag/cell
     absolute magnetization    =     8.19 Bohr mag/cell

     iteration #  5     ecut=   100.00 Ry     beta= 0.70
     Davidson diagonalization with overlap
     ethr =  8.16E-07,  avg # of iterations =  6.0

     total cpu time spent up to now is     1169.8 secs

     total energy              =   -1939.09380142 Ry
     Harris-Foulkes estimate   =   -1939.09474918 Ry
     estimated scf accuracy    <       0.01235954 Ry

     total magnetization       =     8.00 Bohr mag/cell
     absolute magnetization    =     8.19 Bohr mag/cell

     iteration #  6     ecut=   100.00 Ry     beta= 0.70
     Davidson diagonalization with overlap
     ethr =  8.16E-07,  avg # of iterations =  1.5

     total cpu time spent up to now is     1200.4 secs

     total energy              =   -1939.09421022 Ry
     Harris-Foulkes estimate   =   -1939.09433360 Ry
     estimated scf accuracy    <       0.00103710 Ry

     total magnetization       =     8.00 Bohr mag/cell
     absolute magnetization    =     8.19 Bohr mag/cell

     iteration #  7     ecut=   100.00 Ry     beta= 0.70
     Davidson diagonalization with overlap
     ethr =  2.16E-07,  avg # of iterations =  2.0

     total cpu time spent up to now is     1231.5 secs

     total energy              =   -1939.09422617 Ry
     Harris-Foulkes estimate   =   -1939.09425440 Ry
     estimated scf accuracy    <       0.00021166 Ry

     total magnetization       =     8.00 Bohr mag/cell
     absolute magnetization    =     8.19 Bohr mag/cell

     iteration #  8     ecut=   100.00 Ry     beta= 0.70
     Davidson diagonalization with overlap
     ethr =  4.41E-08,  avg # of iterations =  3.5

     total cpu time spent up to now is     1263.9 secs

     total energy              =   -1939.09421680 Ry
     Harris-Foulkes estimate   =   -1939.09425901 Ry
     estimated scf accuracy    <       0.00051391 Ry

     total magnetization       =     8.00 Bohr mag/cell
     absolute magnetization    =     8.19 Bohr mag/cell

     iteration #  9     ecut=   100.00 Ry     beta= 0.70
     Davidson diagonalization with overlap
     ethr =  4.41E-08,  avg # of iterations =  1.0

     total cpu time spent up to now is     1294.3 secs

     total energy              =   -1939.09424232 Ry
     Harris-Foulkes estimate   =   -1939.09424369 Ry
     estimated scf accuracy    <       0.00006984 Ry

     total magnetization       =     8.00 Bohr mag/cell
     absolute magnetization    =     8.19 Bohr mag/cell

     iteration # 10     ecut=   100.00 Ry     beta= 0.70
     Davidson diagonalization with overlap
     ethr =  1.45E-08,  avg # of iterations =  3.0

     total cpu time spent up to now is     1326.4 secs

     total energy              =   -1939.09424840 Ry
     Harris-Foulkes estimate   =   -1939.09424593 Ry
     estimated scf accuracy    <       0.00001555 Ry

     total magnetization       =     8.00 Bohr mag/cell
     absolute magnetization    =     8.19 Bohr mag/cell

     iteration # 11     ecut=   100.00 Ry     beta= 0.70
     Davidson diagonalization with overlap
     ethr =  3.24E-09,  avg # of iterations =  3.0

     total cpu time spent up to now is     1360.0 secs

     total energy              =   -1939.09425018 Ry
     Harris-Foulkes estimate   =   -1939.09424938 Ry
     estimated scf accuracy    <       0.00000623 Ry

     total magnetization       =     8.00 Bohr mag/cell
     absolute magnetization    =     8.19 Bohr mag/cell

     iteration # 12     ecut=   100.00 Ry     beta= 0.70
     Davidson diagonalization with overlap
     ethr =  1.30E-09,  avg # of iterations =  3.0

     total cpu time spent up to now is     1392.0 secs

     total energy              =   -1939.09425022 Ry
     Harris-Foulkes estimate   =   -1939.09425075 Ry
     estimated scf accuracy    <       0.00000890 Ry

     total magnetization       =     8.00 Bohr mag/cell
     absolute magnetization    =     8.19 Bohr mag/cell

     iteration # 13     ecut=   100.00 Ry     beta= 0.70
     Davidson diagonalization with overlap
     ethr =  1.30E-09,  avg # of iterations =  2.0

     total cpu time spent up to now is     1423.0 secs

     total energy              =   -1939.09425076 Ry
     Harris-Foulkes estimate   =   -1939.09425100 Ry
     estimated scf accuracy    <       0.00000706 Ry

     total magnetization       =     8.00 Bohr mag/cell
     absolute magnetization    =     8.19 Bohr mag/cell

     iteration # 14     ecut=   100.00 Ry     beta= 0.70
     Davidson diagonalization with overlap
     ethr =  1.30E-09,  avg # of iterations =  3.0
 
     Magnetic moment per site:
     atom:    1    charge:    0.8471    magn:    0.0036    constr:    0.0000
     atom:    2    charge:    0.8383    magn:    0.0060    constr:    0.0000
     atom:    3    charge:    0.8436    magn:    0.0048    constr:    0.0000
     atom:    4    charge:    0.8465    magn:    0.0034    constr:    0.0000
     atom:    5    charge:    0.8384    magn:    0.0042    constr:    0.0000
     atom:    6    charge:    0.8470    magn:    0.0041    constr:    0.0000
     atom:    7    charge:    0.8378    magn:    0.0061    constr:    0.0000
     atom:    8    charge:    0.8377    magn:    0.0060    constr:    0.0000
     atom:    9    charge:    0.8399    magn:    0.0066    constr:    0.0000
     atom:   10    charge:    0.8408    magn:    0.0067    constr:    0.0000
     atom:   11    charge:    0.8387    magn:    0.0052    constr:    0.0000
     atom:   12    charge:    0.8417    magn:    0.0064    constr:    0.0000
     atom:   13    charge:    0.8420    magn:    0.0063    constr:    0.0000
     atom:   14    charge:    0.8401    magn:    0.0050    constr:    0.0000
     atom:   15    charge:    0.8395    magn:    0.0053    constr:    0.0000
     atom:   16    charge:    0.8425    magn:    0.0057    constr:    0.0000
     atom:   17    charge:    0.8461    magn:    0.0040    constr:    0.0000
     atom:   18    charge:    0.8465    magn:    0.0045    constr:    0.0000
     atom:   19    charge:    0.8473    magn:    0.0043    constr:    0.0000
     atom:   20    charge:    0.8461    magn:    0.0038    constr:    0.0000
     atom:   21    charge:    0.8249    magn:   -0.0013    constr:    0.0000
     atom:   22    charge:    0.8211    magn:    0.0005    constr:    0.0000
     atom:   23    charge:    0.8251    magn:   -0.0009    constr:    0.0000
     atom:   24    charge:    0.8255    magn:   -0.0012    constr:    0.0000
     atom:   25    charge:    0.8470    magn:    0.0034    constr:    0.0000
     atom:   26    charge:    0.8452    magn:    0.0040    constr:    0.0000
     atom:   27    charge:    0.8461    magn:    0.0039    constr:    0.0000
     atom:   28    charge:    0.8466    magn:    0.0036    constr:    0.0000
     atom:   29    charge:    0.8389    magn:    0.0044    constr:    0.0000
     atom:   30    charge:    0.8387    magn:    0.0050    constr:    0.0000
     atom:   31    charge:    0.8392    magn:    0.0059    constr:    0.0000
     atom:   32    charge:    0.8467    magn:    0.0034    constr:    0.0000
     atom:   33    charge:    0.8422    magn:    0.0064    constr:    0.0000
     atom:   34    charge:    0.8381    magn:    0.0052    constr:    0.0000
     atom:   35    charge:    0.8400    magn:    0.0052    constr:    0.0000
     atom:   36    charge:    0.8381    magn:    0.0050    constr:    0.0000
     atom:   37    charge:    0.8434    magn:    0.0071    constr:    0.0000
     atom:   38    charge:    0.8408    magn:    0.0061    constr:    0.0000
     atom:   39    charge:    0.8430    magn:    0.0055    constr:    0.0000
     atom:   40    charge:    0.8420    magn:    0.0070    constr:    0.0000
     atom:   41    charge:    0.8464    magn:    0.0046    constr:    0.0000
     atom:   42    charge:    0.8371    magn:    0.0047    constr:    0.0000
     atom:   43    charge:    0.8505    magn:    0.0032    constr:    0.0000
     atom:   44    charge:    0.8450    magn:    0.0046    constr:    0.0000
     atom:   45    charge:    0.8226    magn:    0.0004    constr:    0.0000
     atom:   46    charge:    0.8221    magn:    0.0008    constr:    0.0000
     atom:   47    charge:    0.8250    magn:    0.0001    constr:    0.0000
     atom:   48    charge:    0.8261    magn:   -0.0010    constr:    0.0000
     atom:   49    charge:    0.4316    magn:   -0.0011    constr:    0.0000
     atom:   50    charge:    0.4322    magn:   -0.0011    constr:    0.0000
     atom:   51    charge:    0.4307    magn:   -0.0012    constr:    0.0000
     atom:   52    charge:    0.4316    magn:   -0.0012    constr:    0.0000
     atom:   53    charge:    0.4376    magn:   -0.0009    constr:    0.0000
     atom:   54    charge:    0.4395    magn:   -0.0011    constr:    0.0000
     atom:   55    charge:    0.4398    magn:   -0.0011    constr:    0.0000
     atom:   56    charge:    0.4382    magn:   -0.0012    constr:    0.0000
     atom:   57    charge:    0.4374    magn:   -0.0007    constr:    0.0000
     atom:   58    charge:    0.4371    magn:   -0.0009    constr:    0.0000
     atom:   59    charge:    0.4370    magn:   -0.0010    constr:    0.0000
     atom:   60    charge:    0.4350    magn:   -0.0009    constr:    0.0000
     atom:   61    charge:    0.4304    magn:   -0.0012    constr:    0.0000
     atom:   62    charge:    0.4298    magn:   -0.0012    constr:    0.0000
     atom:   63    charge:    0.4312    magn:   -0.0011    constr:    0.0000
     atom:   64    charge:    0.4375    magn:   -0.0009    constr:    0.0000
     atom:   65    charge:    0.4397    magn:   -0.0008    constr:    0.0000
     atom:   66    charge:    0.4395    magn:   -0.0012    constr:    0.0000
     atom:   67    charge:    0.4381    magn:   -0.0008    constr:    0.0000
     atom:   68    charge:    0.4353    magn:   -0.0006    constr:    0.0000
     atom:   69    charge:    0.4361    magn:   -0.0007    constr:    0.0000
     atom:   70    charge:    0.4339    magn:   -0.0009    constr:    0.0000
     atom:   71    charge:    0.4357    magn:   -0.0007    constr:    0.0000
     atom:   72    charge:    0.4314    magn:   -0.0012    constr:    0.0000
     atom:   73    charge:    0.4185    magn:    0.0018    constr:    0.0000
     atom:   74    charge:    0.3976    magn:    0.0040    constr:    0.0000
     atom:   75    charge:    0.3940    magn:    0.0040    constr:    0.0000
     atom:   76    charge:    0.3889    magn:    0.0040    constr:    0.0000
     atom:   77    charge:    0.4134    magn:    0.0017    constr:    0.0000
     atom:   78    charge:    0.4133    magn:    0.0020    constr:    0.0000
     atom:   79    charge:    0.3907    magn:    0.0038    constr:    0.0000
     atom:   80    charge:    0.4114    magn:    0.0026    constr:    0.0000
     atom:   81    charge:    1.3581    magn:    0.0070    constr:    0.0000
     atom:   82    charge:    1.3588    magn:    0.0074    constr:    0.0000
     atom:   83    charge:    1.3586    magn:    0.0067    constr:    0.0000
     atom:   84    charge:    1.3612    magn:    0.0069    constr:    0.0000
     atom:   85    charge:    1.3603    magn:    0.0071    constr:    0.0000
     atom:   86    charge:    1.3573    magn:    0.0071    constr:    0.0000
     atom:   87    charge:    1.3609    magn:    0.0069    constr:    0.0000
     atom:   88    charge:    1.3590    magn:    0.0069    constr:    0.0000
     atom:   89    charge:    1.3648    magn:    0.0176    constr:    0.0000
     atom:   90    charge:    1.3458    magn:    0.0286    constr:    0.0000
     atom:   91    charge:    1.3564    magn:    0.0222    constr:    0.0000
     atom:   92    charge:    1.3472    magn:    0.0263    constr:    0.0000
     atom:   93    charge:    1.3542    magn:    0.0216    constr:    0.0000
     atom:   94    charge:    1.3462    magn:    0.0272    constr:    0.0000
     atom:   95    charge:    1.3559    magn:    0.0214    constr:    0.0000
     atom:   96    charge:    1.3473    magn:    0.0273    constr:    0.0000
     atom:   97    charge:    1.3679    magn:    0.0166    constr:    0.0000
     atom:   98    charge:    1.3424    magn:    0.0293    constr:    0.0000
     atom:   99    charge:    1.3644    magn:    0.0179    constr:    0.0000
     atom:  100    charge:    1.3463    magn:    0.0294    constr:    0.0000
     atom:  101    charge:    1.3536    magn:    0.0213    constr:    0.0000
     atom:  102    charge:    1.3508    magn:    0.0257    constr:    0.0000
     atom:  103    charge:    1.3651    magn:    0.0189    constr:    0.0000
     atom:  104    charge:    1.3462    magn:    0.0291    constr:    0.0000
     atom:  105    charge:    7.4436    magn:    1.0501    constr:    0.0000
     atom:  106    charge:    7.4424    magn:    1.0450    constr:    0.0000
     atom:  107    charge:    7.4489    magn:    1.0444    constr:    0.0000
     atom:  108    charge:    7.4452    magn:    1.0456    constr:    0.0000
     atom:  109    charge:    3.2618    magn:    0.0473    constr:    0.0000
     atom:  110    charge:    3.2598    magn:    0.0496    constr:    0.0000
     atom:  111    charge:    3.2623    magn:    0.0501    constr:    0.0000
     atom:  112    charge:    3.2257    magn:    0.0484    constr:    0.0000
     atom:  113    charge:    3.2672    magn:    0.0423    constr:    0.0000
     atom:  114    charge:    3.2594    magn:    0.0514    constr:    0.0000
     atom:  115    charge:    3.2727    magn:    0.0380    constr:    0.0000
     atom:  116    charge:    3.2729    magn:    0.0375    constr:    0.0000
     atom:  117    charge:    3.2447    magn:    0.0495    constr:    0.0000
     atom:  118    charge:    3.2616    magn:    0.0488    constr:    0.0000
     atom:  119    charge:    3.2344    magn:    0.0486    constr:    0.0000
     atom:  120    charge:    3.2267    magn:    0.0474    constr:    0.0000
     atom:  121    charge:    3.2582    magn:    0.0500    constr:    0.0000
     atom:  122    charge:    3.2596    magn:    0.0493    constr:    0.0000
     atom:  123    charge:    3.2591    magn:    0.0511    constr:    0.0000
     atom:  124    charge:    3.2720    magn:    0.0372    constr:    0.0000

     total cpu time spent up to now is     1454.3 secs

     End of self-consistent calculation

 ------ SPIN UP ------------


          k = 0.0000 0.0000 0.0000 ( 91663 PWs)   bands (ev):

   -21.7931 -21.7247 -21.6832 -21.6556 -21.4040 -21.3587 -21.3266 -21.3107
   -21.2850 -21.2298 -21.1837 -21.1533 -21.1346 -21.1120 -21.0966 -21.0760
   -18.4585 -18.4402 -18.4118 -18.3598 -18.3501 -18.3180 -18.2608 -18.2320
   -18.2060 -18.2024 -18.1849 -18.1802 -18.1332 -18.0767 -18.0295 -18.0125
   -15.3510 -15.2869 -15.1887 -15.1523 -15.0645 -15.0595 -15.0379 -14.9628
   -13.9070 -13.9000 -13.7605 -13.7494 -13.7325 -13.6656 -13.6435 -13.5086
   -12.4024 -12.2606 -12.2015 -12.1580 -12.0922 -11.9716 -11.9610 -11.8089
   -10.9768 -10.8830 -10.8019 -10.7855 -10.7083 -10.6580 -10.6301 -10.5447
   -10.1252  -9.9568  -9.8706  -9.8631  -9.5584  -9.5021  -9.4891  -9.3831
    -8.6661  -8.5388  -8.4629  -8.4449  -8.3471  -8.3382  -8.2904  -8.2336
    -8.1879  -8.1462  -8.0066  -7.9291  -7.8710  -7.8520  -7.7695  -7.7284
    -7.1385  -7.0736  -7.0006  -6.9504  -6.9038  -6.8865  -6.7241  -6.7175
[...]
     xc contribution           =    -572.63301142 Ry
     ewald contribution        =    -244.90281306 Ry
     Dispersion Correction     =      -0.60599654 Ry
     smearing contrib. (-TS)   =       2.19995053 Ry

     total magnetization       =     8.00 Bohr mag/cell
     absolute magnetization    =     8.21 Bohr mag/cell

     convergence has been achieved in  14 iterations

     Forces acting on atoms (cartesian axes, Ry/au):

     atom    1 type  1   force =    -0.00104108   -0.00081243    0.00175615
     atom    2 type  1   force =    -0.00688720    0.00245451    0.00001918
     atom    3 type  1   force =    -0.00059177    0.00316056   -0.00514549
     atom    4 type  1   force =     0.00390124   -0.00447447   -0.00281288
     atom    5 type  1   force =    -0.00182650   -0.00645587    0.00149246
     atom    6 type  1   force =     0.00342764    0.00178412    0.00735081
     atom    7 type  1   force =     0.00378027    0.00030497   -0.00278597
     atom    8 type  1   force =     0.00152592   -0.00274173   -0.00422426
     atom    9 type  1   force =    -0.00087533   -0.00092120   -0.00001669
     atom   10 type  1   force =    -0.00166384    0.00021487    0.00138518
     atom   11 type  1   force =     0.00085364   -0.00298289    0.00203660
     atom   12 type  1   force =     0.00047794   -0.00451831   -0.00119793
     atom   13 type  1   force =    -0.00364441    0.00020024    0.00174663
     atom   14 type  1   force =     0.00224485    0.00182852    0.01087218
     atom   15 type  1   force =     0.00004132    0.00395759    0.00450222
     atom   16 type  1   force =    -0.00227970   -0.00809619   -0.00569629
     atom   17 type  1   force =    -0.00109179   -0.00166390   -0.00034016
     atom   18 type  1   force =    -0.00348183   -0.00247929   -0.00320082
     atom   19 type  1   force =    -0.00425990   -0.00077177    0.00166829
     atom   20 type  1   force =    -0.00541251    0.00374576    0.00612431
     atom   21 type  1   force =    -0.00142178    0.00291651   -0.00337603
     atom   22 type  1   force =    -0.00198439   -0.00892624   -0.00439934
     atom   23 type  1   force =     0.00449852    0.00284823    0.00034713
     atom   24 type  1   force =     0.00144064    0.00043958    0.00087649
     atom   25 type  1   force =     0.00016894    0.00090612    0.00166003
     atom   26 type  1   force =    -0.00147694   -0.00400027    0.00561624
     atom   27 type  1   force =    -0.00211014    0.01219700   -0.00390480
     atom   28 type  1   force =    -0.00266606   -0.00889296   -0.00851725
     atom   29 type  1   force =     0.00098596   -0.00597815    0.00750605
     atom   30 type  1   force =     0.00010002    0.00380781    0.00661198
     atom   31 type  1   force =     0.00230552    0.00419752   -0.00204145
     atom   32 type  1   force =    -0.00016534   -0.00313030   -0.00186776
     atom   33 type  1   force =     0.00065407   -0.00351657    0.00486315
     atom   34 type  1   force =     0.00217173    0.00098347    0.00477376
     atom   35 type  1   force =    -0.00205015    0.00057475    0.00821521
     atom   36 type  1   force =    -0.00363915    0.00072588    0.00628386
     atom   37 type  1   force =     0.00031526   -0.00904888   -0.00554453
     atom   38 type  1   force =    -0.00248197    0.00222235    0.00696377
     atom   39 type  1   force =    -0.00127769    0.00733108   -0.00411955
     atom   40 type  1   force =    -0.00032179   -0.00352826   -0.01165769
     atom   41 type  1   force =    -0.00370379   -0.00027649    0.00195543
     atom   42 type  1   force =     0.00153358   -0.00272726    0.00217378
     atom   43 type  1   force =    -0.00503267   -0.00720474    0.00403654
     atom   44 type  1   force =    -0.00117668    0.00490174   -0.00053737
     atom   45 type  1   force =     0.00367714    0.00423642    0.00079194
     atom   46 type  1   force =    -0.00049842   -0.00403289   -0.00226647
     atom   47 type  1   force =    -0.00275715    0.00253440    0.00558075
     atom   48 type  1   force =     0.00385340    0.00056397   -0.00276253
     atom   49 type  2   force =     0.00197825   -0.00416320    0.00325519
     atom   50 type  2   force =     0.00096234   -0.00349197    0.00886208
     atom   51 type  2   force =     0.00192461    0.00012355    0.00327501
     atom   52 type  2   force =    -0.00027434   -0.00294283    0.00630677
     atom   53 type  2   force =    -0.00198707    0.00494684    0.00679195
     atom   54 type  2   force =    -0.00348232   -0.00236069    0.00241272
     atom   55 type  2   force =     0.00566567   -0.00153806    0.00250978
     atom   56 type  2   force =     0.00666627   -0.00082025    0.00216446
     atom   57 type  2   force =     0.00276430    0.00132609    0.00002287
     atom   58 type  2   force =     0.00103209    0.00176206   -0.00225092
     atom   59 type  2   force =    -0.00246085    0.00008647    0.00085545
     atom   60 type  2   force =     0.00158202   -0.00052947   -0.00168039
     atom   61 type  2   force =    -0.00482442    0.00044622   -0.00312717
     atom   62 type  2   force =    -0.00050924   -0.00282629   -0.00202720
     atom   63 type  2   force =     0.00262651    0.00037409    0.00938953
     atom   64 type  2   force =    -0.00378413    0.00383173    0.00371861
     atom   65 type  2   force =    -0.00407250   -0.00854826    0.00509090
     atom   66 type  2   force =     0.00802284   -0.00189731    0.00189861
     atom   67 type  2   force =     0.00252987    0.00390045    0.00384668
     atom   68 type  2   force =     0.00356604    0.00135260   -0.00349339
     atom   69 type  2   force =     0.00548732   -0.00214349   -0.00335789
     atom   70 type  2   force =    -0.00045439    0.00100399   -0.00525877
     atom   71 type  2   force =    -0.00219045   -0.00043107   -0.00163727
     atom   72 type  2   force =    -0.00033724    0.00120329    0.00136716
     atom   73 type  2   force =     0.00989068    0.00239010    0.00472434
     atom   74 type  2   force =    -0.00409907    0.00285568    0.00403467
     atom   75 type  2   force =     0.00407481    0.00246376    0.00065314
     atom   76 type  2   force =     0.00683373   -0.00143207    0.00003420
     atom   77 type  2   force =     0.00992424   -0.00034727    0.00928235
     atom   78 type  2   force =     0.00927648   -0.00114218    0.00531166
     atom   79 type  2   force =     0.00883404    0.00229739    0.00170742
     atom   80 type  2   force =    -0.00532502    0.00245111    0.00056298
     atom   81 type  3   force =    -0.01373437   -0.00300883   -0.00152437
     atom   82 type  3   force =     0.00313175   -0.00180691    0.00254869
     atom   83 type  3   force =    -0.00554313   -0.00188982    0.00161778
     atom   84 type  3   force =    -0.00254378    0.00515242    0.00728849
     atom   85 type  3   force =    -0.01760810    0.00314475    0.00134812
     atom   86 type  3   force =    -0.01231047    0.00169161   -0.00417208
     atom   87 type  3   force =    -0.00305055   -0.00487104    0.00674368
     atom   88 type  3   force =     0.01246106    0.00206605    0.00111645
     atom   89 type  3   force =    -0.02119227   -0.00445819   -0.01185885
     atom   90 type  3   force =     0.01413069    0.01734330   -0.00628878
     atom   91 type  3   force =    -0.00958818   -0.00059218   -0.00390127
     atom   92 type  3   force =     0.00413157   -0.00391463   -0.00140896
     atom   93 type  3   force =     0.01710783    0.00288203   -0.00786382
     atom   94 type  3   force =    -0.01190421   -0.00561752    0.00047915
     atom   95 type  3   force =     0.01368731   -0.00504525   -0.00873373
     atom   96 type  3   force =    -0.00803637    0.00329066   -0.00043079
     atom   97 type  3   force =    -0.02639998   -0.00227148   -0.01494066
     atom   98 type  3   force =     0.01879684    0.01702668   -0.00828971
     atom   99 type  3   force =    -0.02001761    0.00209202   -0.00930181
     atom  100 type  3   force =     0.01359879   -0.01615706   -0.00647011
     atom  101 type  3   force =     0.00734775    0.00070818   -0.00167868
     atom  102 type  3   force =    -0.00113293   -0.00524157   -0.00205342
     atom  103 type  3   force =     0.01203359    0.00018959   -0.00759257
     atom  104 type  3   force =    -0.00833939    0.01191721   -0.00783359
     atom  105 type  4   force =     0.00717255   -0.00009387   -0.00272591
     atom  106 type  4   force =     0.00515410   -0.00763641   -0.00052557
     atom  107 type  4   force =     0.00938244   -0.00130502    0.00089957
     atom  108 type  4   force =     0.00694895   -0.00294916   -0.00000390
     atom  109 type  5   force =     0.00237324    0.00545513    0.00236962
     atom  110 type  5   force =     0.00217661   -0.00645115    0.00222389
     atom  111 type  5   force =    -0.00127998   -0.00041799   -0.00077655
     atom  112 type  5   force =     0.00114323    0.01531912    0.00752411
     atom  113 type  5   force =     0.00226186    0.00534999   -0.00282077
     atom  114 type  5   force =    -0.00228155   -0.00253352    0.00158929
     atom  115 type  5   force =    -0.00452800   -0.00040135   -0.00402037
     atom  116 type  5   force =    -0.00824152    0.00413669   -0.00352686
     atom  117 type  5   force =     0.00888935    0.00349519   -0.00204323
     atom  118 type  5   force =    -0.00035724   -0.00094675   -0.00267406
     atom  119 type  5   force =    -0.00357941   -0.00773967   -0.00328743
     atom  120 type  5   force =    -0.00099333    0.00815638   -0.00138698
     atom  121 type  5   force =    -0.00500152    0.00344470    0.00198615
     atom  122 type  5   force =    -0.00475484   -0.00215945   -0.00015767
     atom  123 type  5   force =     0.00300858    0.00099295    0.00009153
     atom  124 type  5   force =    -0.00449804    0.00359622   -0.00557448

     Total force =     0.107950     Total SCF correction =     0.001095

     number of scf cycles    =  11
     number of bfgs steps    =  10

     energy   old            =   -1939.3815307012 Ry
     energy   new            =   -1939.3966106831 Ry

     CASE: energy  _new < energy  _old

     new trust radius        =       0.1229064449 bohr
     new conv_thr            =       0.0000002640 Ry


ATOMIC_POSITIONS (crystal)
C             0.2876638675        0.9686215596        0.5196985200
C             0.0380928207        0.0330912991        0.0335231062
C             0.3885885448        0.0124502688        0.5423175041
C             0.1381348332        0.9830369140        0.0544894267
C             0.4499465410        0.9710162704        0.6471428460
C             0.2024448260        0.0287992417        0.1524700928
C             0.2078874665        0.5348939810        0.5337652536
C             0.4579023729        0.4622027560        0.0288587269
C             0.2439519900        0.6185716711        0.6154481356
C             0.4940525357        0.3768230393        0.1085806418
C             0.2527206657        0.8851507641        0.5988886131
C             0.0050776655        0.1198960222        0.1109375165
C             0.4093088637        0.8894382837        0.7274502745
C             0.1639761963        0.1117131791        0.2304839758
C             0.0856079818        0.6096474441        0.7296422371
C             0.3342015218        0.3797313687        0.2184300339
C             0.0467616593        0.5258228538        0.6511506885
C             0.2958710584        0.4660140930        0.1432105440
C             0.1089007807        0.4847880308        0.5513606880
C             0.3576459460        0.5103682048        0.0452569850
C             0.4312923649        0.0991697676        0.4639822197
C             0.1789560078        0.8909483580        0.9789074249
C             0.0712439660        0.3948468332        0.4705944375
C             0.3189755320        0.6025445413        0.9673151219
C             0.7872513103        0.9722475760        0.5214177325
C             0.5364269673        0.0251613495        0.0269268411
C             0.8894799579        0.0146831467        0.5432977866
C             0.6367847779        0.9792154175        0.0503037468
C             0.9539147738        0.9647253344        0.6396145595
C             0.7008858665        0.0252352204        0.1495913143
C             0.7107596490        0.5310367127        0.5340644809
C             0.9608364440        0.4712540017        0.0237923827
C             0.7447592931        0.6185429093        0.6110411874
C             0.9969634600        0.3877611638        0.1041935026
C             0.7532957669        0.8854578501        0.5959762981
C             0.5023416297        0.1098596194        0.1049388674
C             0.9149413508        0.8784985099        0.7142333027
C             0.6617209476        0.1091360240        0.2278985763
C             0.5821807507        0.6201157555        0.7151264656
C             0.8355764377        0.3812804944        0.2150763720
C             0.5458225122        0.5319201087        0.6422949981
C             0.7966456509        0.4682793762        0.1392175515
C             0.6102561231        0.4823615842        0.5506064250
C             0.8592549581        0.5139049822        0.0410972689
C             0.9310804157        0.1087544704        0.4749806562
C             0.6778859292        0.8874925112        0.9772852945
C             0.5712102890        0.3868686721        0.4789504182
C             0.8200793028        0.6055972708        0.9653645822
H             0.2355341843        0.9989699561        0.4426873453
H             0.4834819224       -0.0026761215        0.9496182918
H             0.2820891103        0.9982188441        0.1708139342
H             0.0134268502        0.5045698252        0.9518465863
H             0.3227926384        0.6530599773        0.5988497709
H             0.0771311533        0.3551825993        0.0968292577
H             0.1748333429        0.8482135500        0.5833763039
H             0.4240965200        0.1460828337        0.0912205620
H             0.4569516685        0.8581136404        0.8092787172
H             0.2113969727        0.1422789532        0.3113916194
H             0.0397940510        0.6419177106        0.8089278893
H             0.2867622053        0.3471648101        0.2963678973
H             0.4679537676        0.4996853373        0.6633178845
H             0.2186006469        0.4996188309        0.1655314090
H             0.7322455252        1.0060736587        0.4499038918
H             0.8250636034        0.6503537934        0.5980436849
H             0.5744953271        0.3460285290        0.0930795971
H             0.6737700225        0.8518290335        0.5827940019
H             0.9270387504        0.1560930217        0.0903164585
H             0.9635122456        0.8448174046        0.7936553963
H             0.7093373972        0.1420364826        0.3084115469
H             0.5347466099        0.6532757136        0.7924178400
H             0.7873355480        0.3479378471        0.2928833439
H             0.9689408845        0.4924395912        0.6700766129
H             0.6838726029        0.0236511596        0.7538354284
H             0.8422973952        0.0070540821        0.8346355594
H             0.3974799842        0.5064236241        0.3373688773
H             0.6530724517        0.4953926395        0.8404514043
H             0.1851438826        0.0214964383        0.7524120268
H             0.9374448457        0.9743091165        0.2526437031
H             0.9075278679        0.5069286150        0.3452195693
H             0.5722482287        0.5341923727        0.2589952879
N             0.3114168345        0.8492954022        0.7031104523
N             0.0652894799        0.1550316872        0.2108318596
N             0.1832227251        0.6538304310        0.7111871460
N             0.4339590751        0.3386702882        0.2038409996
N             0.8141985181        0.8438645787        0.6952017086
N             0.5634017094        0.1481266411        0.2052127180
N             0.6820973055        0.6599380219        0.7014971237
N             0.9354472885        0.3454556250        0.1992025010
N             0.5507709150        0.0078827857        0.6700114800
N             0.6039512482        1.0087561758        0.7710039691
N             0.9676825692        1.0027891466        0.9370946112
N             0.8861667569        0.0512769717        0.9027078887
N             0.2740641627        0.5054721669        0.4367710834
N             0.3616496527        0.5460124303        0.4142298874
N             0.5263699867        0.4963274544        0.9360820888
N             0.6132371530        0.4550950638        0.9134530429
N             0.0547557424        0.0007482884        0.6639560226
N             0.1049696168        1.0061050443        0.7668633121
N             0.8024048909        0.9890328970        0.1702486036
N             0.8580070364       -0.0070445377        0.2686945169
N             0.7823850548        0.4983339819        0.4433473062
N             0.8615209910        0.5488748250        0.4109523910
N             0.6986296898        0.5107750555        0.1647000083
N             0.6472270540        0.4991004715        0.2629817308
Ni            0.2496881738        0.7517393735        0.8375463738
Ni            0.5000175450        0.2439821532        0.3398913308
Ni            0.7493136912        0.7518181097        0.8361853572
Ni            1.0000271469        0.2502792013        0.3398847223
O             0.1258559712        0.3487863547        0.3819817548
O             0.3748608447        0.6527970958        0.8830588435
O             0.3754739817        0.1478062420        0.3756525114
O             0.1205233263        0.8321636655        0.9029301954
O             0.4733942988        0.3569397396        0.4845995948
O             0.2241493316        0.6386270140        0.9812809390
O             0.0297589644        0.1344133008        0.4827411136
O             0.2782340403        0.8670321549        0.9816105223
O             0.6287409429        0.3295470017        0.4026459495
O             0.8752507471        0.6533653915        0.8787391754
O             0.8720088466        0.1686577385        0.4005126223
O             0.6192269322        0.8314605029        0.8987583225
O             0.9762393089        0.3573352190        0.4833427127
O             0.7254634540        0.6431147387        0.9804085000
O             0.5278184169        0.1326554564        0.4794419831
O             0.7770238005        0.8609109734        0.9818846988



     Writing output data file ./QE_relaxation_results/pbesol_relax/NiPyC2_relax_sc211_meta_functionalized_N-NH_pbesol_relax.save/
     NEW-OLD atomic charge density approx. for the potential

     Check: negative core charge=   -0.000145

     total cpu time spent up to now is     6711.3 secs

     Self-consistent Calculation

     iteration #  1     ecut=   100.00 Ry     beta= 0.70
     Davidson diagonalization with overlap
     ethr =  1.00E-06,  avg # of iterations =  7.0

     total cpu time spent up to now is     6842.7 secs

     total energy              =   -1939.40767368 Ry
     Harris-Foulkes estimate   =   -1939.40625297 Ry
     estimated scf accuracy    <       0.01978839 Ry

     total magnetization       =     8.00 Bohr mag/cell
     absolute magnetization    =     8.21 Bohr mag/cell

     iteration #  2     ecut=   100.00 Ry     beta= 0.70
     Davidson diagonalization with overlap
     ethr =  4.12E-06,  avg # of iterations =  2.5

     total cpu time spent up to now is     6875.3 secs

     total energy              =   -1939.40901712 Ry
     Harris-Foulkes estimate   =   -1939.40958418 Ry
     estimated scf accuracy    <       0.01009134 Ry

     total magnetization       =     8.00 Bohr mag/cell
     absolute magnetization    =     8.21 Bohr mag/cell

     iteration #  3     ecut=   100.00 Ry     beta= 0.70
     Davidson diagonalization with overlap
