/apps/openmpi/3.1_intel-19/bin/mpiexec
starting QE Wed Jun 24 14:19:31 PDT 2020

     Program PWSCF v.6.5 starts on 24Jun2020 at 14:19:32 

     This program is part of the open-source Quantum ESPRESSO suite
     for quantum simulation of materials; please cite
         "P. Giannozzi et al., J. Phys.:Condens. Matter 21 395502 (2009);
         "P. Giannozzi et al., J. Phys.:Condens. Matter 29 465901 (2017);
          URL http://www.quantum-espresso.org", 
     in publications or presentations arising from this work. More details at
     http://www.quantum-espresso.org/quote

     Parallel version (MPI), running on    32 processors

     MPI processes distributed on     1 nodes
     K-points division:     npool     =       2
     R & G space division:  proc/nbgrp/npool/nimage =      16
     Reading input from QE_input_scripts/pw.NiPyC2_relax_sc211_meta_functionalized_O-C-N_pbesol_relax.in
Warning: card &CELL ignored
Warning: card    CELL_DYNAMICS = 'BFGS' ignored
Warning: card    CELL_DOFREE = 'XYZ' ignored
Warning: card / ignored

     Current dimensions of program PWSCF are:
     Max number of different atomic species (ntypx) = 10
     Max number of k-points (npk) =  40000
     Max angular momentum in pseudopotentials (lmaxx) =  3

     -------------------------------------------------
     Parameters for Dispersion (Grimme-D2) Correction:
     -------------------------------------------------
       atom      VdW radius       C_6     

        C          2.744         60.710
        H          1.892          4.857
        N          2.640         42.670
        Ni         2.952        374.666
        O          2.536         24.284

     gamma-point specific algorithms are used

     Subspace diagonalization in iterative solution of the eigenvalue problem:
     a serial algorithm will be used

 
     Parallelization info
     --------------------
     sticks:   dense  smooth     PW     G-vecs:    dense   smooth      PW
     Min        1113    1113    277                91686    91686   11456
     Max        1116    1116    280                91692    91692   11460
     Sum       17829   17829   4453              1467017  1467017  183325
 


     bravais-lattice index     =            0
     lattice parameter (alat)  =      23.6322  a.u.
     unit-cell volume          =   10858.6228 (a.u.)^3
     number of atoms/cell      =          124
     number of atomic types    =            5
     number of electrons       =       512.00 (up: 260.00, down: 252.00)
     number of Kohn-Sham states=          312
     kinetic-energy cutoff     =     100.0000  Ry
     charge density cutoff     =     400.0000  Ry
     convergence threshold     =      1.0E-06
     mixing beta               =       0.7000
     number of iterations used =            8  local-TF  mixing
     Exchange-correlation= PBESOL
                           (   1   4  10   8   0   0   0)
     nstep                     =          200


     celldm(1)=  23.632159  celldm(2)=   0.000000  celldm(3)=   0.000000
     celldm(4)=   0.000000  celldm(5)=   0.000000  celldm(6)=   0.000000

     crystal axes: (cart. coord. in units of alat)
               a(1) = (   1.000000   0.000000   0.000000 )  
               a(2) = (   0.000000   1.001423   0.000000 )  
               a(3) = (  -0.018199   0.000000   0.821574 )  

     reciprocal axes: (cart. coord. in units 2 pi/alat)
               b(1) = (  1.000000  0.000000  0.022152 )  
               b(2) = (  0.000000  0.998579  0.000000 )  
               b(3) = (  0.000000  0.000000  1.217175 )  


     PseudoPot. # 1 for C  read from file:
     ./pseudo/C.pbesol-nc.UPF
     MD5 check sum: ce26087537ded160c8d400e183a8bf42
     Pseudo is Norm-conserving, Zval =  4.0
     Generated using "atomic" code by A. Dal Corso v.6.5
     Using radial grid of 1073 points,  1 beta functions with: 
                l(1) =   1

     PseudoPot. # 2 for H  read from file:
     ./pseudo/H.pbesol-n-nc.UPF
     MD5 check sum: 7995ef24074557c85b430109caaacc09
     Pseudo is Norm-conserving, Zval =  1.0
     Generated using "atomic" code by A. Dal Corso v.6.5
     Using radial grid of  929 points,  0 beta functions with: 

     PseudoPot. # 3 for N  read from file:
     ./pseudo/N.pbesol-nc.UPF
     MD5 check sum: e18cc5e4b8a5600c1a19b30c2cab1ca0
     Pseudo is Norm-conserving, Zval =  5.0
     Generated using "atomic" code by A. Dal Corso v.6.5
     Using radial grid of 1085 points,  1 beta functions with: 
                l(1) =   1

     PseudoPot. # 4 for Ni read from file:
     ./pseudo/Ni.pbesol-n-nc.UPF
     MD5 check sum: 623411631e0c2eb7c0b2b9815547d2d9
     Pseudo is Norm-conserving + core correction, Zval = 10.0
     Generated using "atomic" code by A. Dal Corso v.6.5
     Using radial grid of 1195 points,  2 beta functions with: 
                l(1) =   1
                l(2) =   2

     PseudoPot. # 5 for O  read from file:
     ./pseudo/O.pbesol-nc.UPF
     MD5 check sum: 73d10e7e91dbfcbe8a7e362101007f84
     Pseudo is Norm-conserving, Zval =  6.0
     Generated using "atomic" code by A. Dal Corso v.6.5
     Using radial grid of 1095 points,  1 beta functions with: 
                l(1) =   1

     atomic species   valence    mass     pseudopotential
        C              4.00    12.01070     C ( 1.00)
        H              1.00     1.00794     H ( 1.00)
        N              5.00    14.00670     N ( 1.00)
        Ni            10.00    58.69340     Ni( 1.00)
        O              6.00    15.99940     O ( 1.00)

     Starting magnetic structure 
     atomic species   magnetization
        C            0.000
        H            0.000
        N            0.000
        Ni           0.250
        O            0.000

     No symmetry found



   Cartesian axes

     site n.     atom                  positions (alat units)
         1           C   tau(   1) = (   0.2787122   0.9714307   0.4288486  )
         2           C   tau(   2) = (   0.0379730   0.0311503   0.0183277  )
         3           C   tau(   3) = (   0.3806882   0.0117868   0.4489838  )
         4           C   tau(   4) = (   0.1394042   0.9891499   0.0379124  )
         5           C   tau(   5) = (   0.4400787   0.9715829   0.5343281  )
         6           C   tau(   6) = (   0.1997920   0.0283934   0.1231482  )
         7           C   tau(   7) = (   0.1986011   0.5304580   0.4324635  )
         8           C   tau(   8) = (   0.4580372   0.4720800   0.0229252  )
         9           C   tau(   9) = (   0.2341003   0.6142040   0.4982314  )
        10           C   tau(  10) = (   0.4948422   0.3892302   0.0892369  )
        11           C   tau(  11) = (   0.2384981   0.8904717   0.4955761  )
        12           C   tau(  12) = (  -0.0008282   0.1123917   0.0856467  )
        13           C   tau(  13) = (   0.3947360   0.8906489   0.5977380  )
        14           C   tau(  14) = (   0.1557890   0.1097029   0.1871645  )
        15           C   tau(  15) = (   0.0756247   0.6098498   0.5975737  )
        16           C   tau(  16) = (   0.3367152   0.3921904   0.1884642  )
        17           C   tau(  17) = (   0.0350715   0.5258264   0.5351012  )
        18           C   tau(  18) = (   0.2948780   0.4753867   0.1254988  )
        19           C   tau(  19) = (   0.0981522   0.4849593   0.4519611  )
        20           C   tau(  20) = (   0.3569104   0.5163900   0.0416029  )
        21           C   tau(  21) = (   0.4248178   0.0994604   0.3833638  )
        22           C   tau(  22) = (   0.1639424   0.9010006   0.7933713  )
        23           C   tau(  23) = (   0.0588120   0.3950355   0.3866953  )
        24           C   tau(  24) = (   0.2984059   0.6050320   0.7961934  )
        25           C   tau(  25) = (   0.7787122   0.9714307   0.4288486  )
        26           C   tau(  26) = (   0.5379730   0.0311503   0.0183277  )
        27           C   tau(  27) = (   0.8806882   0.0117868   0.4489838  )
        28           C   tau(  28) = (   0.6394042   0.9891499   0.0379124  )
        29           C   tau(  29) = (   0.9400787   0.9715829   0.5343281  )
        30           C   tau(  30) = (   0.6997920   0.0283934   0.1231482  )
        31           C   tau(  31) = (   0.6986021   0.5304580   0.4324635  )
        32           C   tau(  32) = (   0.9580382   0.4720800   0.0229252  )
        33           C   tau(  33) = (   0.7341003   0.6142040   0.4982314  )
        34           C   tau(  34) = (   0.9948422   0.3892302   0.0892369  )
        35           C   tau(  35) = (   0.7384981   0.8904717   0.4955761  )
        36           C   tau(  36) = (   0.4991718   0.1123917   0.0856467  )
        37           C   tau(  37) = (   0.8947360   0.8906489   0.5977380  )
        38           C   tau(  38) = (   0.6557880   0.1097029   0.1871645  )
        39           C   tau(  39) = (   0.5756247   0.6098498   0.5975737  )
        40           C   tau(  40) = (   0.8367152   0.3921904   0.1884642  )
        41           C   tau(  41) = (   0.5350715   0.5258264   0.5351012  )
        42           C   tau(  42) = (   0.7948780   0.4753867   0.1254988  )
        43           C   tau(  43) = (   0.5981522   0.4849593   0.4519611  )
        44           C   tau(  44) = (   0.8569104   0.5163900   0.0416029  )
        45           C   tau(  45) = (   0.9248178   0.0994604   0.3833638  )
        46           C   tau(  46) = (   0.6639424   0.9010006   0.7933713  )
        47           C   tau(  47) = (   0.5588110   0.3950355   0.3866953  )
        48           C   tau(  48) = (   0.7984059   0.6050320   0.7961934  )
        49           C   tau(  49) = (   0.6064351   0.9698895   0.6277090  )
        50           C   tau(  50) = (   0.8599849   0.0233662   0.7357460  )
        51           C   tau(  51) = (   0.8667672   0.5224596   0.6247251  )
        52           C   tau(  52) = (   0.1271010   0.4775518   0.2162367  )
        53           C   tau(  53) = (   0.1064351   0.9698895   0.6277090  )
        54           C   tau(  54) = (   0.3599849   0.0233662   0.7357460  )
        55           C   tau(  55) = (   0.3739060   0.5106839   0.6359297  )
        56           C   tau(  56) = (   0.0941494   0.4679000   0.7320670  )
        57           H   tau(  57) = (   0.2290596   1.0009978   0.3640502  )
        58           H   tau(  58) = (   0.2791988   1.0000865   0.1418054  )
        59           H   tau(  59) = (   0.2505234   0.5016080   0.3691185  )
        60           H   tau(  60) = (   0.3118554   0.6514319   0.4868937  )
        61           H   tau(  61) = (   0.0732386   0.3533532   0.0780726  )
        62           H   tau(  62) = (   0.1594426   0.8563401   0.4835457  )
        63           H   tau(  63) = (   0.4206861   0.1479423   0.0738480  )
        64           H   tau(  64) = (   0.4386511   0.8563902   0.6644572  )
        65           H   tau(  65) = (   0.2006191   0.1433067   0.2536997  )
        66           H   tau(  66) = (   0.0290492   0.6438591   0.6626884  )
        67           H   tau(  67) = (   0.2907535   0.3580349   0.2539083  )
        68           H   tau(  68) = (   0.7290596   1.0009978   0.3640502  )
        69           H   tau(  69) = (   0.7791988   1.0000865   0.1418054  )
        70           H   tau(  70) = (   0.7505234   0.5016080   0.3691185  )
        71           H   tau(  71) = (   0.4913416   0.5011092   0.7809458  )
        72           H   tau(  72) = (   0.8118554   0.6514319   0.4868937  )
        73           H   tau(  73) = (   0.5732386   0.3533532   0.0780726  )
        74           H   tau(  74) = (   0.6594426   0.8563401   0.4835457  )
        75           H   tau(  75) = (   0.9206861   0.1479423   0.0738480  )
        76           H   tau(  76) = (   0.9386511   0.8563902   0.6644572  )
        77           H   tau(  77) = (   0.7006201   0.1433067   0.2536997  )
        78           H   tau(  78) = (   0.5290492   0.6438591   0.6626884  )
        79           H   tau(  79) = (   0.7907535   0.3580349   0.2539083  )
        80           H   tau(  80) = (   0.7157623   0.5059201   0.1439924  )
        81           N   tau(  81) = (   0.2956096   0.8524646   0.5790685  )
        82           N   tau(  82) = (   0.0569790   0.1490689   0.1692870  )
        83           N   tau(  83) = (   0.1736962   0.6512356   0.5798983  )
        84           N   tau(  84) = (   0.4350238   0.3514275   0.1709211  )
        85           N   tau(  85) = (   0.7956096   0.8524646   0.5790685  )
        86           N   tau(  86) = (   0.5569790   0.1490689   0.1692870  )
        87           N   tau(  87) = (   0.6736972   0.6512356   0.5798983  )
        88           N   tau(  88) = (   0.9350238   0.3514275   0.1709211  )
        89           N   tau(  89) = (   0.6641992   0.9355047   0.6916275  )
        90           N   tau(  90) = (   0.7726844   0.0489225   0.7175761  )
        91           N   tau(  91) = (   0.8061866   0.5557209   0.6865995  )
        92           N   tau(  92) = (   0.0672981   0.4440882   0.2787544  )
        93           N   tau(  93) = (   0.1641992   0.9355047   0.6916275  )
        94           N   tau(  94) = (   0.2726844   0.0489225   0.7175761  )
        95           N   tau(  95) = (   0.3192523   0.5341662   0.7071076  )
        96           N   tau(  96) = (   0.1753944   0.4316906   0.7057487  )
        97           Ni  tau(  97) = (   0.2317814   0.7525556   0.6871039  )
        98           Ni  tau(  98) = (   0.4937992   0.2483520   0.2786599  )
        99           Ni  tau(  99) = (   0.7317814   0.7525556   0.6871039  )
       100           Ni  tau( 100) = (   0.9937992   0.2483520   0.2786599  )
       101           O   tau( 101) = (   0.1158100   0.3481839   0.3145586  )
       102           O   tau( 102) = (   0.3551690   0.6519036   0.7240468  )
       103           O   tau( 103) = (   0.3707656   0.1477170   0.3098797  )
       104           O   tau( 104) = (   0.1091506   0.8535652   0.7199135  )
       105           O   tau( 105) = (   0.4642788   0.3566669   0.3968154  )
       106           O   tau( 106) = (   0.2033039   0.6423280   0.8050417  )
       107           O   tau( 107) = (   0.0200847   0.1353504   0.3952413  )
       108           O   tau( 108) = (   0.2588616   0.8639860   0.8046490  )
       109           O   tau( 109) = (   0.6158110   0.3481839   0.3145586  )
       110           O   tau( 110) = (   0.8551690   0.6519036   0.7240468  )
       111           O   tau( 111) = (   0.8707656   0.1477170   0.3098797  )
       112           O   tau( 112) = (   0.6091506   0.8535652   0.7199135  )
       113           O   tau( 113) = (   0.9642788   0.3566669   0.3968154  )
       114           O   tau( 114) = (   0.7033039   0.6423280   0.8050417  )
       115           O   tau( 115) = (   0.5200847   0.1353504   0.3952413  )
       116           O   tau( 116) = (   0.7588616   0.8639860   0.8046490  )
       117           O   tau( 117) = (   0.5406468   0.0081185   0.5544542  )
       118           O   tau( 118) = (   0.9598742   0.9952726   0.7561802  )
       119           O   tau( 119) = (   0.9357931   0.4840800   0.5538101  )
       120           O   tau( 120) = (   0.1952322   0.5161606   0.1445847  )
       121           O   tau( 121) = (   0.0406468   0.0081185   0.5544542  )
       122           O   tau( 122) = (   0.4598742   0.9952726   0.7561802  )
       123           O   tau( 123) = (   0.4361314   0.4835233   0.5543400  )
       124           O   tau( 124) = (   0.0012155   0.5096424   0.7618573  )

     number of k points=     1  Marzari-Vanderbilt smearing, width (Ry)=  0.2000
                       cart. coord. in units 2pi/alat
        k(    1) = (   0.0000000   0.0000000   0.0000000), wk =   1.0000000

     Dense  grid:   733509 G-vectors     FFT dimensions: ( 160, 160, 125)

     Estimated max dynamical RAM per process >     374.73 MB

     Estimated total dynamical RAM >      11.71 GB
     Generating pointlists ...
     new r_m :   0.0358 (alat units)  0.8461 (a.u.) for type    1
     new r_m :   0.0358 (alat units)  0.8461 (a.u.) for type    2
     new r_m :   0.0383 (alat units)  0.9043 (a.u.) for type    3
     new r_m :   0.0654 (alat units)  1.5454 (a.u.) for type    4
     new r_m :   0.0423 (alat units)  0.9991 (a.u.) for type    5

     Check: negative core charge=   -0.000145

     Initial potential from superposition of free atoms

     starting charge  511.99638, renormalised to  512.00000
     Starting wfcs are  444 randomized atomic wfcs

     total cpu time spent up to now is       23.8 secs

     Self-consistent Calculation

     iteration #  1     ecut=   100.00 Ry     beta= 0.70
     Davidson diagonalization with overlap
     ethr =  1.00E-02,  avg # of iterations =  3.0

     total cpu time spent up to now is       85.5 secs

     total energy              =   -2112.74424530 Ry
     Harris-Foulkes estimate   =   -2119.52066456 Ry
     estimated scf accuracy    <      17.73410527 Ry

     total magnetization       =     8.00 Bohr mag/cell
     absolute magnetization    =     8.14 Bohr mag/cell

     iteration #  2     ecut=   100.00 Ry     beta= 0.70
     Davidson diagonalization with overlap
     ethr =  3.46E-03,  avg # of iterations =  2.0

     total cpu time spent up to now is      122.8 secs

     total energy              =   -2113.48428665 Ry
     Harris-Foulkes estimate   =   -2116.13786924 Ry
     estimated scf accuracy    <      12.18105904 Ry

     total magnetization       =     8.00 Bohr mag/cell
     absolute magnetization    =     8.20 Bohr mag/cell

     iteration #  3     ecut=   100.00 Ry     beta= 0.70
     Davidson diagonalization with overlap
     ethr =  2.38E-03,  avg # of iterations =  2.0

     total cpu time spent up to now is      158.8 secs

     total energy              =   -2113.88537851 Ry
     Harris-Foulkes estimate   =   -2115.14162853 Ry
     estimated scf accuracy    <       6.37603636 Ry

     total magnetization       =     8.00 Bohr mag/cell
     absolute magnetization    =     8.16 Bohr mag/cell

     iteration #  4     ecut=   100.00 Ry     beta= 0.70
     Davidson diagonalization with overlap
     ethr =  1.25E-03,  avg # of iterations =  6.5

     total cpu time spent up to now is      198.6 secs

     total energy              =   -2114.34404385 Ry
     Harris-Foulkes estimate   =   -2114.68442961 Ry
     estimated scf accuracy    <       2.68754107 Ry

     total magnetization       =     8.00 Bohr mag/cell
     absolute magnetization    =     8.19 Bohr mag/cell

     iteration #  5     ecut=   100.00 Ry     beta= 0.70
     Davidson diagonalization with overlap
     ethr =  5.25E-04,  avg # of iterations =  1.0

     total cpu time spent up to now is      232.6 secs

     total energy              =   -2114.38528753 Ry
     Harris-Foulkes estimate   =   -2114.45048267 Ry
     estimated scf accuracy    <       0.32739424 Ry

     total magnetization       =     8.00 Bohr mag/cell
     absolute magnetization    =     8.20 Bohr mag/cell

     iteration #  6     ecut=   100.00 Ry     beta= 0.70
     Davidson diagonalization with overlap
     ethr =  6.39E-05,  avg # of iterations =  7.0

     total cpu time spent up to now is      282.9 secs

     total energy              =   -2114.37867484 Ry
     Harris-Foulkes estimate   =   -2114.41084275 Ry
     estimated scf accuracy    <       0.27906891 Ry

     total magnetization       =     8.00 Bohr mag/cell
     absolute magnetization    =     8.20 Bohr mag/cell

     iteration #  7     ecut=   100.00 Ry     beta= 0.70
     Davidson diagonalization with overlap
     ethr =  5.45E-05,  avg # of iterations =  1.0

     total cpu time spent up to now is      316.8 secs

     total energy              =   -2114.37714299 Ry
     Harris-Foulkes estimate   =   -2114.40196662 Ry
     estimated scf accuracy    <       0.21159199 Ry

     total magnetization       =     8.00 Bohr mag/cell
     absolute magnetization    =     8.20 Bohr mag/cell

     iteration #  8     ecut=   100.00 Ry     beta= 0.70
     Davidson diagonalization with overlap
     ethr =  4.13E-05,  avg # of iterations =  1.5

     total cpu time spent up to now is      351.2 secs

     total energy              =   -2114.38182890 Ry
     Harris-Foulkes estimate   =   -2114.38465812 Ry
     estimated scf accuracy    <       0.03721789 Ry

     total magnetization       =     8.00 Bohr mag/cell
     absolute magnetization    =     8.20 Bohr mag/cell

     iteration #  9     ecut=   100.00 Ry     beta= 0.70
     Davidson diagonalization with overlap
     ethr =  7.27E-06,  avg # of iterations =  5.0

     total cpu time spent up to now is      391.9 secs

     total energy              =   -2114.38217093 Ry
     Harris-Foulkes estimate   =   -2114.38390229 Ry
     estimated scf accuracy    <       0.03241310 Ry

     total magnetization       =     8.00 Bohr mag/cell
     absolute magnetization    =     8.20 Bohr mag/cell

     iteration # 10     ecut=   100.00 Ry     beta= 0.70
     Davidson diagonalization with overlap
     ethr =  6.33E-06,  avg # of iterations =  1.0

     total cpu time spent up to now is      425.9 secs

     total energy              =   -2114.38466197 Ry
     Harris-Foulkes estimate   =   -2114.38502461 Ry
     estimated scf accuracy    <       0.03552189 Ry

     total magnetization       =     8.00 Bohr mag/cell
     absolute magnetization    =     8.20 Bohr mag/cell

     iteration # 11     ecut=   100.00 Ry     beta= 0.70
     Davidson diagonalization with overlap
     ethr =  6.33E-06,  avg # of iterations =  2.0

     total cpu time spent up to now is      461.0 secs

     total energy              =   -2114.38695023 Ry
     Harris-Foulkes estimate   =   -2114.38609866 Ry
     estimated scf accuracy    <       0.00566035 Ry

     total magnetization       =     8.00 Bohr mag/cell
     absolute magnetization    =     8.19 Bohr mag/cell

     iteration # 12     ecut=   100.00 Ry     beta= 0.70
     Davidson diagonalization with overlap
     ethr =  1.11E-06,  avg # of iterations = 15.0

     total cpu time spent up to now is      515.5 secs

     total energy              =   -2114.38797655 Ry
     Harris-Foulkes estimate   =   -2114.38720310 Ry
     estimated scf accuracy    <       0.00250258 Ry

     total magnetization       =     8.00 Bohr mag/cell
     absolute magnetization    =     8.19 Bohr mag/cell

     iteration # 13     ecut=   100.00 Ry     beta= 0.70
     Davidson diagonalization with overlap
     ethr =  4.89E-07,  avg # of iterations =  4.0

     total cpu time spent up to now is      554.1 secs

     total energy              =   -2114.38824910 Ry
     Harris-Foulkes estimate   =   -2114.38811637 Ry
     estimated scf accuracy    <       0.00089235 Ry

     total magnetization       =     8.00 Bohr mag/cell
     absolute magnetization    =     8.19 Bohr mag/cell

     iteration # 14     ecut=   100.00 Ry     beta= 0.70
     Davidson diagonalization with overlap
     ethr =  1.74E-07,  avg # of iterations =  3.5

     total cpu time spent up to now is      590.5 secs

     total energy              =   -2114.38826747 Ry
     Harris-Foulkes estimate   =   -2114.38837179 Ry
     estimated scf accuracy    <       0.00239234 Ry

     total magnetization       =     8.00 Bohr mag/cell
     absolute magnetization    =     8.19 Bohr mag/cell

     iteration # 15     ecut=   100.00 Ry     beta= 0.70
     Davidson diagonalization with overlap
     ethr =  1.74E-07,  avg # of iterations =  2.0

     total cpu time spent up to now is      625.3 secs

     total energy              =   -2114.38837915 Ry
     Harris-Foulkes estimate   =   -2114.38836355 Ry
     estimated scf accuracy    <       0.00054999 Ry

     total magnetization       =     8.00 Bohr mag/cell
     absolute magnetization    =     8.19 Bohr mag/cell

     iteration # 16     ecut=   100.00 Ry     beta= 0.70
     Davidson diagonalization with overlap
     ethr =  1.07E-07,  avg # of iterations =  3.0

     total cpu time spent up to now is      661.2 secs

     total energy              =   -2114.38839434 Ry
     Harris-Foulkes estimate   =   -2114.38842236 Ry
     estimated scf accuracy    <       0.00050542 Ry

     total magnetization       =     8.00 Bohr mag/cell
     absolute magnetization    =     8.19 Bohr mag/cell

     iteration # 17     ecut=   100.00 Ry     beta= 0.70
     Davidson diagonalization with overlap
     ethr =  9.87E-08,  avg # of iterations =  2.0

     total cpu time spent up to now is      696.0 secs

     total energy              =   -2114.38840996 Ry
     Harris-Foulkes estimate   =   -2114.38841924 Ry
     estimated scf accuracy    <       0.00023386 Ry

     total magnetization       =     8.00 Bohr mag/cell
     absolute magnetization    =     8.19 Bohr mag/cell

     iteration # 18     ecut=   100.00 Ry     beta= 0.70
     Davidson diagonalization with overlap
     ethr =  4.57E-08,  avg # of iterations =  3.0

     total cpu time spent up to now is      732.5 secs

     total energy              =   -2114.38840434 Ry
     Harris-Foulkes estimate   =   -2114.38842301 Ry
     estimated scf accuracy    <       0.00020587 Ry

     total magnetization       =     8.00 Bohr mag/cell
     absolute magnetization    =     8.19 Bohr mag/cell

     iteration # 19     ecut=   100.00 Ry     beta= 0.70
     Davidson diagonalization with overlap
     ethr =  4.02E-08,  avg # of iterations =  2.0

     total cpu time spent up to now is      767.3 secs

     total energy              =   -2114.38841266 Ry
     Harris-Foulkes estimate   =   -2114.38841802 Ry
     estimated scf accuracy    <       0.00018551 Ry

     total magnetization       =     8.00 Bohr mag/cell
     absolute magnetization    =     8.19 Bohr mag/cell

     iteration # 20     ecut=   100.00 Ry     beta= 0.70
     Davidson diagonalization with overlap
     ethr =  3.62E-08,  avg # of iterations =  2.0

     total cpu time spent up to now is      802.2 secs

     total energy              =   -2114.38841775 Ry
     Harris-Foulkes estimate   =   -2114.38841948 Ry
     estimated scf accuracy    <       0.00006824 Ry

     total magnetization       =     8.00 Bohr mag/cell
     absolute magnetization    =     8.19 Bohr mag/cell

     iteration # 21     ecut=   100.00 Ry     beta= 0.70
     Davidson diagonalization with overlap
     ethr =  1.33E-08,  avg # of iterations =  3.0

     total cpu time spent up to now is      838.5 secs

     total energy              =   -2114.38842099 Ry
     Harris-Foulkes estimate   =   -2114.38842374 Ry
     estimated scf accuracy    <       0.00008309 Ry

     total magnetization       =     8.00 Bohr mag/cell
     absolute magnetization    =     8.19 Bohr mag/cell

     iteration # 22     ecut=   100.00 Ry     beta= 0.70
     Davidson diagonalization with overlap
     ethr =  1.33E-08,  avg # of iterations =  2.0

     total cpu time spent up to now is      873.3 secs

     total energy              =   -2114.38842468 Ry
     Harris-Foulkes estimate   =   -2114.38842521 Ry
     estimated scf accuracy    <       0.00003299 Ry

     total magnetization       =     8.00 Bohr mag/cell
     absolute magnetization    =     8.19 Bohr mag/cell

     iteration # 23     ecut=   100.00 Ry     beta= 0.70
     Davidson diagonalization with overlap
     ethr =  6.44E-09,  avg # of iterations =  3.0

     total cpu time spent up to now is      909.4 secs

     total energy              =   -2114.38842537 Ry
     Harris-Foulkes estimate   =   -2114.38842587 Ry
     estimated scf accuracy    <       0.00000827 Ry

     total magnetization       =     8.00 Bohr mag/cell
     absolute magnetization    =     8.19 Bohr mag/cell

     iteration # 24     ecut=   100.00 Ry     beta= 0.70
     Davidson diagonalization with overlap
     ethr =  1.62E-09,  avg # of iterations =  3.0

     total cpu time spent up to now is      946.8 secs

     total energy              =   -2114.38842586 Ry
     Harris-Foulkes estimate   =   -2114.38842605 Ry
     estimated scf accuracy    <       0.00000509 Ry

     total magnetization       =     8.00 Bohr mag/cell
     absolute magnetization    =     8.19 Bohr mag/cell

     iteration # 25     ecut=   100.00 Ry     beta= 0.70
     Davidson diagonalization with overlap
     ethr =  9.93E-10,  avg # of iterations =  2.0

     total cpu time spent up to now is      981.7 secs

     total energy              =   -2114.38842573 Ry
     Harris-Foulkes estimate   =   -2114.38842634 Ry
     estimated scf accuracy    <       0.00000674 Ry

     total magnetization       =     8.00 Bohr mag/cell
     absolute magnetization    =     8.19 Bohr mag/cell

     iteration # 26     ecut=   100.00 Ry     beta= 0.70
     Davidson diagonalization with overlap
     ethr =  9.93E-10,  avg # of iterations =  3.0

     total cpu time spent up to now is     1017.5 secs

     total energy              =   -2114.38842615 Ry
     Harris-Foulkes estimate   =   -2114.38842609 Ry
     estimated scf accuracy    <       0.00000216 Ry

     total magnetization       =     8.00 Bohr mag/cell
     absolute magnetization    =     8.19 Bohr mag/cell

     iteration # 27     ecut=   100.00 Ry     beta= 0.70
     Davidson diagonalization with overlap
     ethr =  4.22E-10,  avg # of iterations =  3.0

     total cpu time spent up to now is     1053.2 secs

     total energy              =   -2114.38842632 Ry
     Harris-Foulkes estimate   =   -2114.38842633 Ry
     estimated scf accuracy    <       0.00000107 Ry

     total magnetization       =     8.00 Bohr mag/cell
     absolute magnetization    =     8.19 Bohr mag/cell

     iteration # 28     ecut=   100.00 Ry     beta= 0.70
     Davidson diagonalization with overlap
     ethr =  2.10E-10,  avg # of iterations =  2.0
 
     Magnetic moment per site:
     atom:    1    charge:    0.8442    magn:    0.0042    constr:    0.0000
     atom:    2    charge:    0.8322    magn:    0.0043    constr:    0.0000
     atom:    3    charge:    0.8489    magn:    0.0039    constr:    0.0000
     atom:    4    charge:    0.8505    magn:    0.0040    constr:    0.0000
     atom:    5    charge:    0.8331    magn:    0.0077    constr:    0.0000
     atom:    6    charge:    0.8457    magn:    0.0045    constr:    0.0000
     atom:    7    charge:    0.8478    magn:    0.0043    constr:    0.0000
     atom:    8    charge:    0.8485    magn:    0.0054    constr:    0.0000
     atom:    9    charge:    0.8390    magn:    0.0041    constr:    0.0000
     atom:   10    charge:    0.8370    magn:    0.0040    constr:    0.0000
     atom:   11    charge:    0.8407    magn:    0.0044    constr:    0.0000
     atom:   12    charge:    0.8421    magn:    0.0057    constr:    0.0000
     atom:   13    charge:    0.8463    magn:    0.0048    constr:    0.0000
     atom:   14    charge:    0.8399    magn:    0.0048    constr:    0.0000
     atom:   15    charge:    0.8456    magn:    0.0054    constr:    0.0000
     atom:   16    charge:    0.8434    magn:    0.0053    constr:    0.0000
     atom:   17    charge:    0.8324    magn:    0.0069    constr:    0.0000
     atom:   18    charge:    0.8327    magn:    0.0066    constr:    0.0000
     atom:   19    charge:    0.8542    magn:    0.0040    constr:    0.0000
     atom:   20    charge:    0.8529    magn:    0.0053    constr:    0.0000
     atom:   21    charge:    0.8217    magn:   -0.0014    constr:    0.0000
     atom:   22    charge:    0.8658    magn:    0.0008    constr:    0.0000
     atom:   23    charge:    0.8362    magn:    0.0008    constr:    0.0000
     atom:   24    charge:    0.8393    magn:   -0.0003    constr:    0.0000
     atom:   25    charge:    0.8441    magn:    0.0042    constr:    0.0000
     atom:   26    charge:    0.8322    magn:    0.0043    constr:    0.0000
     atom:   27    charge:    0.8489    magn:    0.0039    constr:    0.0000
     atom:   28    charge:    0.8505    magn:    0.0040    constr:    0.0000
     atom:   29    charge:    0.8331    magn:    0.0076    constr:    0.0000
     atom:   30    charge:    0.8457    magn:    0.0047    constr:    0.0000
     atom:   31    charge:    0.8460    magn:    0.0038    constr:    0.0000
     atom:   32    charge:    0.8316    magn:    0.0040    constr:    0.0000
     atom:   33    charge:    0.8408    magn:    0.0050    constr:    0.0000
     atom:   34    charge:    0.8444    magn:    0.0059    constr:    0.0000
     atom:   35    charge:    0.8407    magn:    0.0044    constr:    0.0000
     atom:   36    charge:    0.8421    magn:    0.0057    constr:    0.0000
     atom:   37    charge:    0.8463    magn:    0.0048    constr:    0.0000
     atom:   38    charge:    0.8396    magn:    0.0048    constr:    0.0000
     atom:   39    charge:    0.8443    magn:    0.0048    constr:    0.0000
     atom:   40    charge:    0.8395    magn:    0.0042    constr:    0.0000
     atom:   41    charge:    0.8324    magn:    0.0060    constr:    0.0000
     atom:   42    charge:    0.8450    magn:    0.0045    constr:    0.0000
     atom:   43    charge:    0.8510    magn:    0.0040    constr:    0.0000
     atom:   44    charge:    0.8518    magn:    0.0038    constr:    0.0000
     atom:   45    charge:    0.8216    magn:   -0.0014    constr:    0.0000
     atom:   46    charge:    0.8656    magn:    0.0008    constr:    0.0000
     atom:   47    charge:    0.8224    magn:   -0.0014    constr:    0.0000
     atom:   48    charge:    0.8343    magn:    0.0009    constr:    0.0000
     atom:   49    charge:    0.8796    magn:    0.0390    constr:    0.0000
     atom:   50    charge:    0.8722    magn:    0.0024    constr:    0.0000
     atom:   51    charge:    0.8754    magn:    0.0273    constr:    0.0000
     atom:   52    charge:    0.8784    magn:    0.0280    constr:    0.0000
     atom:   53    charge:    0.8796    magn:    0.0390    constr:    0.0000
     atom:   54    charge:    0.8722    magn:    0.0025    constr:    0.0000
     atom:   55    charge:    0.8708    magn:    0.0224    constr:    0.0000
     atom:   56    charge:    0.8736    magn:    0.0019    constr:    0.0000
     atom:   57    charge:    0.4845    magn:   -0.0013    constr:    0.0000
     atom:   58    charge:    0.4844    magn:   -0.0014    constr:    0.0000
     atom:   59    charge:    0.4850    magn:   -0.0011    constr:    0.0000
     atom:   60    charge:    0.4904    magn:   -0.0012    constr:    0.0000
     atom:   61    charge:    0.4844    magn:   -0.0007    constr:    0.0000
     atom:   62    charge:    0.4908    magn:   -0.0011    constr:    0.0000
     atom:   63    charge:    0.4836    magn:   -0.0009    constr:    0.0000
     atom:   64    charge:    0.4877    magn:   -0.0008    constr:    0.0000
     atom:   65    charge:    0.4877    magn:   -0.0011    constr:    0.0000
     atom:   66    charge:    0.4858    magn:   -0.0009    constr:    0.0000
     atom:   67    charge:    0.4828    magn:   -0.0008    constr:    0.0000
     atom:   68    charge:    0.4843    magn:   -0.0013    constr:    0.0000
     atom:   69    charge:    0.4847    magn:   -0.0014    constr:    0.0000
     atom:   70    charge:    0.4838    magn:   -0.0013    constr:    0.0000
     atom:   71    charge:    0.4876    magn:   -0.0012    constr:    0.0000
     atom:   72    charge:    0.4912    magn:   -0.0012    constr:    0.0000
     atom:   73    charge:    0.4892    magn:   -0.0013    constr:    0.0000
     atom:   74    charge:    0.4907    magn:   -0.0011    constr:    0.0000
     atom:   75    charge:    0.4835    magn:   -0.0009    constr:    0.0000
     atom:   76    charge:    0.4881    magn:   -0.0008    constr:    0.0000
     atom:   77    charge:    0.4868    magn:   -0.0011    constr:    0.0000
     atom:   78    charge:    0.4837    magn:   -0.0007    constr:    0.0000
     atom:   79    charge:    0.4865    magn:   -0.0011    constr:    0.0000
     atom:   80    charge:    0.4840    magn:   -0.0014    constr:    0.0000
     atom:   81    charge:    1.7943    magn:    0.0115    constr:    0.0000
     atom:   82    charge:    1.7888    magn:    0.0094    constr:    0.0000
     atom:   83    charge:    1.7916    magn:    0.0098    constr:    0.0000
     atom:   84    charge:    1.7880    magn:    0.0102    constr:    0.0000
     atom:   85    charge:    1.7944    magn:    0.0114    constr:    0.0000
     atom:   86    charge:    1.7882    magn:    0.0098    constr:    0.0000
     atom:   87    charge:    1.7923    magn:    0.0106    constr:    0.0000
     atom:   88    charge:    1.7914    magn:    0.0109    constr:    0.0000
     atom:   89    charge:    1.9200    magn:    0.0094    constr:    0.0000
     atom:   90    charge:    1.7939    magn:    0.0171    constr:    0.0000
     atom:   91    charge:    1.8572    magn:    0.0073    constr:    0.0000
     atom:   92    charge:    1.8605    magn:    0.0079    constr:    0.0000
     atom:   93    charge:    1.9199    magn:    0.0095    constr:    0.0000
     atom:   94    charge:    1.7936    magn:    0.0177    constr:    0.0000
     atom:   95    charge:    1.8518    magn:    0.0124    constr:    0.0000
     atom:   96    charge:    1.7850    magn:    0.0187    constr:    0.0000
     atom:   97    charge:    7.4973    magn:    1.0678    constr:    0.0000
     atom:   98    charge:    7.4358    magn:    1.0902    constr:    0.0000
     atom:   99    charge:    7.5062    magn:    1.0779    constr:    0.0000
     atom:  100    charge:    7.4640    magn:    1.0891    constr:    0.0000
     atom:  101    charge:    3.3273    magn:    0.0420    constr:    0.0000
     atom:  102    charge:    3.3092    magn:    0.0585    constr:    0.0000
     atom:  103    charge:    3.2615    magn:    0.0524    constr:    0.0000
     atom:  104    charge:    3.3739    magn:    0.0324    constr:    0.0000
     atom:  105    charge:    3.2594    magn:    0.0525    constr:    0.0000
     atom:  106    charge:    3.2749    magn:    0.0460    constr:    0.0000
     atom:  107    charge:    3.2614    magn:    0.0537    constr:    0.0000
     atom:  108    charge:    3.2793    magn:    0.0570    constr:    0.0000
     atom:  109    charge:    3.2598    magn:    0.0528    constr:    0.0000
     atom:  110    charge:    3.3250    magn:    0.0441    constr:    0.0000
     atom:  111    charge:    3.2602    magn:    0.0536    constr:    0.0000
     atom:  112    charge:    3.3736    magn:    0.0327    constr:    0.0000
     atom:  113    charge:    3.2716    magn:    0.0472    constr:    0.0000
     atom:  114    charge:    3.2735    magn:    0.0465    constr:    0.0000
     atom:  115    charge:    3.2605    magn:    0.0541    constr:    0.0000
     atom:  116    charge:    3.2797    magn:    0.0567    constr:    0.0000
     atom:  117    charge:    3.2678    magn:    0.0089    constr:    0.0000
     atom:  118    charge:    3.2954    magn:    0.0090    constr:    0.0000
     atom:  119    charge:    3.2729    magn:    0.0083    constr:    0.0000
     atom:  120    charge:    3.2726    magn:    0.0093    constr:    0.0000
     atom:  121    charge:    3.2678    magn:    0.0089    constr:    0.0000
     atom:  122    charge:    3.2953    magn:    0.0092    constr:    0.0000
     atom:  123    charge:    3.2710    magn:    0.0079    constr:    0.0000
     atom:  124    charge:    3.2949    magn:    0.0093    constr:    0.0000

     total cpu time spent up to now is     1087.6 secs

     End of self-consistent calculation

 ------ SPIN UP ------------


          k = 0.0000 0.0000 0.0000 ( 91663 PWs)   bands (ev):

   -28.6688 -28.6616 -25.8010 -25.5585 -24.4182 -22.9261 -22.9243 -22.8072
   -22.7966 -22.7810 -22.4771 -22.4664 -22.4156 -20.7097 -20.6421 -20.5812
   -19.9199 -19.9153 -19.4103 -19.3332 -19.2339 -18.1192 -18.0014 -17.9165
   -17.8362 -17.8275 -17.7288 -17.6795 -17.6686 -17.6638 -17.6357 -17.5929
   -17.5595 -17.5202 -17.4998 -17.4026 -17.3582 -16.0366 -16.0049 -15.9034
   -14.9598 -14.8077 -14.7409 -14.6456 -14.5721 -14.4717 -14.4452 -14.4009
   -13.3861 -13.3107 -13.2369 -13.1943 -13.0849 -12.9690 -12.9574 -12.8750
   -12.7646 -12.7382 -12.3048 -11.9966 -11.6442 -11.5985 -11.5800 -11.4364
   -11.3316 -11.1846 -11.1511 -11.1189 -11.0971 -10.9448 -10.8657 -10.4518
   -10.4341 -10.3547 -10.2562 -10.0446  -9.7736  -9.2622  -9.2524  -9.2201
    -9.0111  -8.8558  -8.8311  -8.7582  -8.7481  -8.7087  -8.6773  -8.6142
    -8.5435  -8.5286  -8.4555  -8.1465  -8.0796  -7.9822  -7.9412  -7.8275
    -7.6135  -7.5618  -7.5183  -7.3583  -7.2152  -7.1337  -6.9156  -6.8716
    -6.8574  -6.7725  -6.6715  -6.5887  -6.5398  -6.4656  -6.4281  -6.2852
    -6.2813  -6.2454  -6.2042  -6.1570  -6.0974  -6.0440  -5.9768  -5.8780
    -5.7549  -5.6885  -5.6242  -5.5820  -5.5476  -5.5268  -5.4341  -5.4250
    -5.3813  -5.3432  -5.3089  -5.1733  -5.1168  -5.1008  -5.0495  -5.0053
    -4.9959  -4.9784  -4.9158  -4.8965  -4.8545  -4.7724  -4.7470  -4.6965
    -4.6477  -4.6184  -4.5799  -4.5495  -4.5238  -4.4932  -4.4838  -4.4441
    -4.4057  -4.3504  -4.3016  -4.2846  -4.2616  -4.2086  -4.1638  -4.1133
    -4.0664  -3.9932  -3.7857  -3.7472  -3.7178  -3.6382  -3.5686  -3.4154
    -3.3487  -3.3085  -3.2290  -3.1785  -3.1447  -3.1267  -3.0578  -3.0349
    -2.9883  -2.9704  -2.8962  -2.8623  -2.7589  -2.7165  -2.6376  -2.5454
    -2.3934  -2.3869  -2.3492  -2.3346  -2.2943  -2.2591  -2.2100  -2.1571
    -2.0966  -2.0344  -1.9587  -1.8568  -1.8253  -1.7394  -1.7012  -1.6751
    -1.6081  -1.5298  -1.5068  -1.4658  -1.4355  -1.3835  -1.3619  -1.2980
    -1.2819  -1.2356  -1.2298  -1.1601  -1.1302  -1.0895  -1.0395  -1.0180
    -0.9309  -0.9021  -0.8495  -0.8202  -0.7667  -0.7366  -0.6874  -0.6673
    -0.6566  -0.6153  -0.5418  -0.5309  -0.4956  -0.4740  -0.3993  -0.3827
    -0.3325  -0.3119  -0.2826  -0.2575  -0.2332  -0.1911  -0.1640  -0.1359
    -0.1049  -0.0672  -0.0008   0.0367   0.0497   0.0904   0.1557   0.7726
     0.8008   1.2538   1.3399   1.5241   1.5516   1.6223   1.7785   1.8143
     1.8639   1.9032   2.1277   2.2264   2.6050   2.7617   3.1417   3.2804
     3.5281   3.6091   3.6450   3.7651   4.1827   4.2277   4.2520   4.3590
     4.4808   4.6118   4.6685   4.7131   4.8135   4.8873   4.9726   5.1040
     5.2241   5.3025   5.4667   5.5876   5.6483   5.7427   5.8536   5.9347
     6.0015   6.0474   6.0909   6.2014   6.2473   6.3512   6.3659   6.4267
     6.5029   6.5598   6.6159   6.7187   6.7426   6.8131   6.9110   6.9282
     6.9485   7.0763   7.1237   7.1609   7.2421   7.3109   7.3725   7.4415

 ------ SPIN DOWN ----------


          k = 0.0000 0.0000 0.0000 ( 91663 PWs)   bands (ev):

   -28.6056 -28.5982 -25.7222 -25.4778 -24.3236 -22.8854 -22.8835 -22.7754
   -22.7643 -22.7475 -22.4552 -22.4444 -22.3937 -20.6113 -20.5430 -20.4834
   -19.8108 -19.8061 -19.3160 -19.2400 -19.1404 -18.0554 -17.9416 -17.8713
   -17.7920 -17.7837 -17.6863 -17.5915 -17.5614 -17.5555 -17.5405 -17.5290
   -17.5114 -17.4577 -17.4324 -17.3352 -17.2906 -15.9797 -15.9476 -15.8491
   -14.9151 -14.7708 -14.7041 -14.6103 -14.5394 -14.4286 -14.4050 -14.3651
   -13.3427 -13.2687 -13.1966 -13.1536 -13.0511 -12.9295 -12.9210 -12.8402
   -12.7139 -12.6781 -12.2510 -11.9429 -11.5868 -11.5482 -11.5324 -11.3991
   -11.2981 -11.1478 -11.1266 -11.0946 -11.0709 -10.8989 -10.8243 -10.4128
   -10.3972 -10.3155 -10.2046  -9.9905  -9.7202  -9.2139  -9.1704  -9.1437
    -8.9722  -8.8063  -8.7776  -8.7286  -8.7194  -8.6747  -8.6426  -8.5618
    -8.5004  -8.4800  -8.3926  -8.0878  -8.0365  -7.9434  -7.8977  -7.7593
    -7.5720  -7.5103  -7.4684  -7.2946  -7.1315  -7.0805  -6.8697  -6.8093
    -6.7981  -6.7307  -6.6204  -6.5423  -6.5057  -6.4157  -6.3525  -6.2389
    -6.2277  -6.2056  -6.1539  -6.0985  -6.0407  -5.9739  -5.9225  -5.8191
    -5.6980  -5.6281  -5.5686  -5.5153  -5.4897  -5.4668  -5.3649  -5.3581
    -5.3161  -5.2735  -5.2444  -5.0906  -5.0497  -5.0191  -4.9743  -4.9486
    -4.9350  -4.9100  -4.8517  -4.8473  -4.8034  -4.7190  -4.6806  -4.6429
    -4.5728  -4.5491  -4.5029  -4.4846  -4.4662  -4.4337  -4.4098  -4.3829
    -4.3505  -4.3125  -4.2499  -4.2366  -4.1964  -4.1557  -4.1171  -4.0544
    -3.9936  -3.9228  -3.6872  -3.6730  -3.6511  -3.5235  -3.5006  -3.3562
    -3.2833  -3.2099  -3.1588  -3.1317  -3.0999  -3.0658  -2.9915  -2.9500
    -2.9144  -2.8393  -2.8016  -2.7736  -2.5421  -2.4367  -2.4268  -2.3769
    -2.2699  -2.2342  -2.1651  -2.1476  -2.0520  -2.0122  -1.9864  -1.9561
    -1.9390  -1.8103  -1.7523  -1.7018  -1.6542  -1.5227  -1.4656  -1.4231
    -1.3799  -1.3606  -1.3095  -1.2322  -1.1947  -1.1644  -1.1292  -1.0529
    -1.0192  -0.9899  -0.9349  -0.9060  -0.8729  -0.8402  -0.8066  -0.7749
    -0.6864  -0.6730  -0.5768  -0.5396  -0.4936  -0.4633  -0.4332  -0.2987
    -0.1902  -0.1861  -0.1694  -0.1557  -0.0960  -0.0529   0.0451   0.0611
     0.0833   0.1382   0.1595   0.2468   0.2576   0.3248   0.3738   0.4009
     0.4371   0.4695   0.5263   0.5671   0.5827   0.5925   0.6615   1.4554
     1.6385   1.7602   1.8304   1.9290   2.1670   2.2769   2.3533   2.4225
     2.5304   2.5558   2.6259   2.7257   2.7594   2.8988   3.2658   3.4067
     3.6282   3.7215   3.7386   3.8602   4.2720   4.3158   4.3499   4.4448
     4.5586   4.6939   4.7560   4.7920   4.8955   4.9838   5.0491   5.1912
     5.3183   5.3953   5.5353   5.6550   5.7390   5.8288   5.9353   6.0110
     6.0749   6.1188   6.1646   6.2665   6.3222   6.4068   6.4271   6.4878
     6.5695   6.6341   6.6750   6.7682   6.8015   6.8794   6.9699   6.9906
     7.0100   7.1487   7.1799   7.2245   7.3028   7.3637   7.4301   7.5003

     the spin up/dw Fermi energies are     2.1380    1.8088 ev

!    total energy              =   -2114.38842616 Ry
     Harris-Foulkes estimate   =   -2114.38842638 Ry
     estimated scf accuracy    <       0.00000044 Ry

     The total energy is the sum of the following terms:

     one-electron contribution =   -3197.29481198 Ry
     hartree contribution      =    1794.99058235 Ry
     xc contribution           =    -612.97087932 Ry
     ewald contribution        =    -101.02955623 Ry
     Dispersion Correction     =      -0.64113689 Ry
     smearing contrib. (-TS)   =       2.55737591 Ry

     total magnetization       =     8.00 Bohr mag/cell
     absolute magnetization    =     8.19 Bohr mag/cell

     convergence has been achieved in  28 iterations

     Forces acting on atoms (cartesian axes, Ry/au):

     atom    1 type  1   force =    -0.00196175   -0.01777428    0.02185337
     atom    2 type  1   force =    -0.00499817    0.04662902    0.05731692
     atom    3 type  1   force =     0.01836267    0.03217690   -0.02201745
     atom    4 type  1   force =    -0.02284778   -0.03484332    0.04677107
     atom    5 type  1   force =    -0.06742044   -0.05056446   -0.00668304
     atom    6 type  1   force =    -0.02516788    0.01216526   -0.00088206
     atom    7 type  1   force =    -0.00551157    0.02335330    0.03746689
     atom    8 type  1   force =     0.01602066   -0.03138611    0.05974239
     atom    9 type  1   force =    -0.01348456   -0.01841263   -0.01280105
     atom   10 type  1   force =    -0.00544578    0.01815312   -0.01176180
     atom   11 type  1   force =     0.02038735    0.01744004   -0.01717539
     atom   12 type  1   force =     0.00532242    0.00063223    0.00551444
     atom   13 type  1   force =    -0.00415589   -0.02019223   -0.01665869
     atom   14 type  1   force =     0.01046938   -0.00777327   -0.00773902
     atom   15 type  1   force =     0.00249081    0.01741220   -0.02038011
     atom   16 type  1   force =    -0.00113095    0.00305043   -0.00999422
     atom   17 type  1   force =     0.05858590    0.04964180   -0.01228714
     atom   18 type  1   force =     0.07367248   -0.05267872   -0.00057273
     atom   19 type  1   force =     0.01638074   -0.03520074    0.04967456
     atom   20 type  1   force =     0.02670586    0.03254668    0.12810121
     atom   21 type  1   force =     0.00170399    0.00771319   -0.00362544
     atom   22 type  1   force =     0.17402034    0.13985165    0.36192906
     atom   23 type  1   force =    -0.20472510    0.10355474    0.24262194
     atom   24 type  1   force =    -0.17693596   -0.05822550    0.16767275
     atom   25 type  1   force =    -0.00221010   -0.01768681    0.02151337
     atom   26 type  1   force =    -0.00475731    0.04591785    0.05650962
     atom   27 type  1   force =     0.01873600    0.03231039   -0.02180166
     atom   28 type  1   force =    -0.02241213   -0.03508916    0.04671869
     atom   29 type  1   force =    -0.06702146   -0.05058735   -0.00633279
     atom   30 type  1   force =    -0.02609508    0.01127585   -0.00269808
     atom   31 type  1   force =     0.00167966    0.02152423    0.02245760
     atom   32 type  1   force =     0.01409920   -0.05151463    0.04831784
     atom   33 type  1   force =    -0.02123275   -0.01578087   -0.02853381
     atom   34 type  1   force =    -0.01901181   -0.00221130   -0.01307955
     atom   35 type  1   force =     0.02019558    0.01747294   -0.01728915
     atom   36 type  1   force =     0.00545028    0.00193635    0.00751544
     atom   37 type  1   force =    -0.00424748   -0.01993355   -0.01723249
     atom   38 type  1   force =     0.01038037   -0.00439043   -0.00345586
     atom   39 type  1   force =     0.00032267   -0.00596509   -0.00866415
     atom   40 type  1   force =    -0.00797726    0.00178556   -0.00615979
     atom   41 type  1   force =     0.07017273    0.05377924    0.01148494
     atom   42 type  1   force =     0.02237541   -0.01321984   -0.00255193
     atom   43 type  1   force =    -0.01754021   -0.03315931   -0.02372715
     atom   44 type  1   force =     0.01220021    0.04090991    0.03961241
     atom   45 type  1   force =    -0.00247063    0.00890496   -0.00639398
     atom   46 type  1   force =     0.17306910    0.13933300    0.36165198
     atom   47 type  1   force =     0.00230298   -0.00676600   -0.00659066
     atom   48 type  1   force =    -0.20302389   -0.10568837    0.23535043
     atom   49 type  1   force =    -0.27437353    0.32023341   -0.42270914
     atom   50 type  1   force =     0.08897752   -0.00235899    0.03759550
     atom   51 type  1   force =     0.21504386   -0.23231297   -0.29079221
     atom   52 type  1   force =     0.21409831    0.24016602   -0.29475386
     atom   53 type  1   force =    -0.27438780    0.32046066   -0.42286412
     atom   54 type  1   force =     0.08947050   -0.00266283    0.03768603
     atom   55 type  1   force =     0.15555954   -0.14841589   -0.24491951
     atom   56 type  1   force =    -0.07605031    0.01688679    0.05851828
     atom   57 type  2   force =     0.00338734    0.00526560   -0.00270198
     atom   58 type  2   force =    -0.00109291   -0.00530199   -0.00513613
     atom   59 type  2   force =     0.00425258   -0.00605763   -0.00254525
     atom   60 type  2   force =     0.00073892    0.00399895   -0.00062319
     atom   61 type  2   force =     0.00632792   -0.00597483   -0.01060422
     atom   62 type  2   force =    -0.00115593   -0.00782774   -0.00490763
     atom   63 type  2   force =    -0.00680320   -0.00113105   -0.00467686
     atom   64 type  2   force =    -0.00451541   -0.00838018   -0.00818323
     atom   65 type  2   force =    -0.00100381   -0.00238859   -0.00065790
     atom   66 type  2   force =     0.00178700    0.00528307   -0.00588385
     atom   67 type  2   force =    -0.00197414   -0.00206348    0.00553678
     atom   68 type  2   force =     0.00348267    0.00540950   -0.00255215
     atom   69 type  2   force =    -0.00131681   -0.00522200   -0.00497621
     atom   70 type  2   force =    -0.00371849   -0.00578383   -0.00262120
     atom   71 type  2   force =     0.00719746    0.00412116    0.00292198
     atom   72 type  2   force =     0.00061391    0.00665000   -0.00244957
     atom   73 type  2   force =    -0.00033339   -0.00068633    0.00129470
     atom   74 type  2   force =    -0.00104228   -0.00794978   -0.00494116
     atom   75 type  2   force =    -0.00682324   -0.00095242   -0.00417245
     atom   76 type  2   force =    -0.00414162   -0.00790006   -0.00814907
     atom   77 type  2   force =    -0.00257562   -0.00099376   -0.00155732
     atom   78 type  2   force =    -0.00212296    0.00043279    0.00638545
     atom   79 type  2   force =     0.00221442    0.00060547   -0.00066033
     atom   80 type  2   force =    -0.00012403    0.00602266   -0.00580382
     atom   81 type  3   force =     0.02646773   -0.02949177   -0.01306523
     atom   82 type  3   force =    -0.00636444    0.00590300   -0.00502804
     atom   83 type  3   force =    -0.00984732    0.01783273   -0.00143881
     atom   84 type  3   force =    -0.00841303   -0.00646018    0.00617872
     atom   85 type  3   force =     0.02656410   -0.03039251   -0.01266246
     atom   86 type  3   force =    -0.00674118    0.00042778   -0.00728691
     atom   87 type  3   force =    -0.02673037    0.02488455   -0.00213687
     atom   88 type  3   force =    -0.01348189   -0.01424874   -0.01296657
     atom   89 type  3   force =     0.21867652    0.23536445   -0.16751430
     atom   90 type  3   force =     0.01604803    0.09995675   -0.01548356
     atom   91 type  3   force =    -0.13593909   -0.13374631   -0.08375131
     atom   92 type  3   force =    -0.13720453    0.13907472   -0.09443361
     atom   93 type  3   force =     0.21919563    0.23648151   -0.16769402
     atom   94 type  3   force =     0.01533386    0.09864197   -0.01555204
     atom   95 type  3   force =    -0.12200504   -0.19177937   -0.18055110
     atom   96 type  3   force =     0.01768524   -0.05612416   -0.00790414
     atom   97 type  4   force =     0.04322517   -0.04572013    0.00202666
     atom   98 type  4   force =     0.00238810   -0.00264946    0.00687352
     atom   99 type  4   force =     0.02570185   -0.02429493    0.00174089
     atom  100 type  4   force =    -0.05276571   -0.05161693    0.00528387
     atom  101 type  5   force =     0.22698408   -0.33841552    0.00222994
     atom  102 type  5   force =     0.21283409    0.36350431   -0.01951247
     atom  103 type  5   force =    -0.00805757   -0.00248593   -0.00038419
     atom  104 type  5   force =    -0.34950902   -0.56157447    0.04180873
     atom  105 type  5   force =    -0.00490248   -0.00206141   -0.00462165
     atom  106 type  5   force =    -0.01188148    0.03702239    0.01805388
     atom  107 type  5   force =     0.00521230    0.00150111   -0.00386129
     atom  108 type  5   force =     0.05926606   -0.10080684    0.08393814
     atom  109 type  5   force =     0.00463326    0.00465185    0.00171751
     atom  110 type  5   force =     0.21204402    0.33488347   -0.00542666
     atom  111 type  5   force =    -0.00518161   -0.00480571    0.00141854
     atom  112 type  5   force =    -0.34911584   -0.56016860    0.04181328
     atom  113 type  5   force =     0.00361184   -0.04809198    0.03134261
     atom  114 type  5   force =    -0.00414180    0.04310742    0.04284532
     atom  115 type  5   force =     0.00002648    0.00072889   -0.00412904
     atom  116 type  5   force =     0.06042634   -0.10166384    0.08368028
     atom  117 type  5   force =     0.11074122   -0.00870654    0.07367570
     atom  118 type  5   force =    -0.03149742    0.00585103   -0.00190138
     atom  119 type  5   force =    -0.10410783    0.00944228    0.06237225
     atom  120 type  5   force =    -0.10320157   -0.00387026    0.06677830
     atom  121 type  5   force =     0.11096954   -0.00863202    0.07378351
     atom  122 type  5   force =    -0.03150272    0.00630373   -0.00177074
     atom  123 type  5   force =    -0.10215421   -0.00296193    0.07717679
     atom  124 type  5   force =     0.03379338   -0.00639300   -0.00846617

     Total force =     1.993062     Total SCF correction =     0.001607

     BFGS Geometry Optimization

     number of scf cycles    =   1
     number of bfgs steps    =   0

     energy   new            =   -2114.3884261600 Ry

     new trust radius        =       0.5000000000 bohr
     new conv_thr            =       0.0000010000 Ry


ATOMIC_POSITIONS (crystal)
C             0.2881648290        0.9694834023        0.5228331263
C             0.0382599761        0.0325924120        0.0245350841
C             0.3912046179        0.0127957160        0.5456364982
C             0.1395477095        0.9866332856        0.0479633187
C             0.4497580266        0.9685901364        0.6501113264
C             0.2017159477        0.0287407969        0.1498587270
C             0.2080315500        0.5304484424        0.5278397991
C             0.4590986707        0.4704084923        0.0302253276
C             0.2446974833        0.6127440532        0.6059376072
C             0.4966368384        0.3892556742        0.1081599881
C             0.2501146751        0.8897619433        0.6025356397
C             0.0012428060        0.1122521540        0.1044612669
C             0.4078325525        0.8887393241        0.7269047163
C             0.1602637391        0.1092992083        0.2275112958
C             0.0889271019        0.6095380557        0.7265601183
C             0.3408468295        0.3917302399        0.2290056684
C             0.0487865358        0.5266614516        0.6508345758
C             0.3000094249        0.4730317393        0.1527317463
C             0.1087220460        0.4831478918        0.5520461356
C             0.3587751115        0.5166935036        0.0556154515
C             0.4333618323        0.0995648764        0.4664801311
C             0.1873281493        0.9041781071        0.9797349769
C             0.0610141763        0.3977750561        0.4801032253
C             0.3105132825        0.6023159222        0.9756220282
C             0.7881566606        0.9694861903        0.5228199154
C             0.5382670941        0.0325697419        0.0245037163
C             0.8912166881        0.0127999714        0.5456448830
C             0.6395615796        0.9866254489        0.0479612834
C             0.9497710109        0.9685894067        0.6501249355
C             0.7016850647        0.0287124449        0.1497881644
C             0.7082515002        0.5303901366        0.5272566041
C             0.9590302534        0.4697668474        0.0297814195
C             0.7444390141        0.6128279469        0.6053263012
C             0.9962028411        0.3886065094        0.1081087860
C             0.7501084729        0.8897629918        0.6025312195
C             0.5012483025        0.1122937258        0.1045390172
C             0.9078292227        0.8887475703        0.7268824211
C             0.6602629263        0.1094070446        0.2276777203
C             0.5888661738        0.6087928484        0.7270153490
C             0.8406309877        0.3916899190        0.2291546574
C             0.5491732299        0.5267933425        0.6517582545
C             0.7983704805        0.4742895860        0.1526548432
C             0.6075872893        0.4832129674        0.5491940668
C             0.8582494765        0.5169601015        0.0521771648
C             0.9332266091        0.0996028668        0.4663725579
C             0.6872975873        0.9041615741        0.9797242108
C             0.5674458570        0.3942583174        0.4704199158
C             0.8097283417        0.6008029295        0.9782516863
C             0.6112823179        0.9787192090        0.7476073755
C             0.8791499947        0.0232578014        0.8969927962
C             0.8872651636        0.5143114663        0.7491010892
C             0.1385171777        0.4845288688        0.2517451570
C             0.1112817527        0.9787264531        0.7476013539
C             0.3791657962        0.0232481160        0.8969963140
C             0.3927856978        0.5052268870        0.7645215013
C             0.1079796442        0.4677733071        0.8933277639
H             0.2372302225        0.9997428538        0.4430080129
H             0.2823014791        0.9984959864        0.1724024325
H             0.2588339544        0.5007018984        0.4491831029
H             0.3226641476        0.6506334760        0.5926107855
H             0.0751625059        0.3526605378        0.0946159666
H             0.1701136292        0.8548734720        0.5883693110
H             0.4221015157        0.1476959451        0.0897042777
H             0.4532200688        0.8549058616        0.8084430355
H             0.2062064905        0.1430268580        0.3087714369
H             0.0437818854        0.6431124104        0.8063793793
H             0.2963188954        0.3574602217        0.3092661351
H             0.7372333716        0.9997474408        0.4430138348
H             0.7822944448        0.9984985364        0.1724086464
H             0.7585794418        0.5007106264        0.4491801518
H             0.5088728292        0.5005283719        0.9506615354
H             0.8226588654        0.6507179846        0.5925398206
H             0.5749582728        0.3528291217        0.0950783063
H             0.6701172334        0.8548695815        0.5883680080
H             0.9221012327        0.1477016394        0.0897238770
H             0.9532320254        0.8549211665        0.8084443627
H             0.7061566779        0.1430713214        0.3087364893
H             0.5436657447        0.6429577961        0.8068561105
H             0.7964482233        0.3575453008        0.3090253423
H             0.7189439365        0.5053929868        0.1750384891
N             0.3092726843        0.8503128791        0.7043203423
N             0.0605222737        0.1490451722        0.2058566325
N             0.1862266287        0.6508784610        0.7057820942
N             0.4385458020        0.3507220663        0.2082810778
N             0.8092760455        0.8502841657        0.7043359925
N             0.5605086499        0.1488706364        0.2057688628
N             0.6856881814        0.6511032547        0.7057549705
N             0.9383704513        0.3504737873        0.2075371759
N             0.6863823039        0.9416778072        0.8353231284
N             0.7890813485        0.0520393614        0.8728143767
N             0.8169972227        0.5506675153        0.8324577912
N             0.0690262724        0.4478903407        0.3356237239
N             0.1863987483        0.9417134159        0.8353161455
N             0.2890585018        0.0519974496        0.8728117161
N             0.3308935844        0.5272935719        0.8536585755
N             0.1915869725        0.4292879077        0.8587128798
Ni            0.2483833005        0.7500285612        0.8364047473
Ni            0.5000530955        0.2479145420        0.3394450749
Ni            0.7478237054        0.7507115409        0.8363936434
Ni            0.9982913085        0.2463535863        0.3393833082
O             0.1300255385        0.3369011925        0.3829596458
O             0.3779884564        0.6625645729        0.8805338310
O             0.3773725082        0.1474277550        0.3771630720
O             0.1139702674        0.8344504653        0.8778855040
O             0.4729092311        0.3560942875        0.4828144229
O             0.2207704770        0.6425951776        0.9805784947
O             0.0290036607        0.1352058513        0.4809279671
O             0.2786372937        0.8595445398        0.9826604681
O             0.6229281211        0.3478372890        0.3829397348
O             0.8779731961        0.6616522148        0.8810811436
O             0.8774655917        0.1473538064        0.3772331183
O             0.6139828219        0.8344952807        0.8778856809
O             0.9732064637        0.3546269526        0.4842118366
O             0.7210350802        0.6427891527        0.9815417813
O             0.5288379255        0.1351812351        0.4809175636
O             0.7786741506        0.8595172210        0.9826504490
O             0.5565162666        0.0078294581        0.6777307148
O             0.9756181703        0.9940445156        0.9203301206
O             0.9447816956        0.4836929954        0.6765075122
O             0.1951877416        0.5153036262        0.1785797120
O             0.0565236315        0.0078318336        0.6777349038
O             0.4756180935        0.9940589465        0.9203351970
O             0.4452045294        0.4827415815        0.6777277517
O             0.0191647915        0.5087142077        0.9269850417



     Writing output data file ./QE_relaxation_results/pbesol_relax/NiPyC2_relax_sc211_meta_functionalized_O-C-N_pbesol_relax.save/
     NEW-OLD atomic charge density approx. for the potential

     Check: negative core charge=   -0.000145

     total cpu time spent up to now is     1101.5 secs

     Self-consistent Calculation

     iteration #  1     ecut=   100.00 Ry     beta= 0.70
     Davidson diagonalization with overlap
     ethr =  1.00E-06,  avg # of iterations = 19.0

     total cpu time spent up to now is     1362.7 secs

     total energy              =   -2114.88506863 Ry
     Harris-Foulkes estimate   =   -2115.24846527 Ry
     estimated scf accuracy    <       1.02391420 Ry

     total magnetization       =     8.00 Bohr mag/cell
     absolute magnetization    =     8.19 Bohr mag/cell

     iteration #  2     ecut=   100.00 Ry     beta= 0.70
     Davidson diagonalization with overlap
     ethr =  2.00E-04,  avg # of iterations =  2.0

     total cpu time spent up to now is     1399.2 secs

     total energy              =   -2114.91945021 Ry
     Harris-Foulkes estimate   =   -2114.99827645 Ry
     estimated scf accuracy    <       0.30443224 Ry

     total magnetization       =     8.00 Bohr mag/cell
     absolute magnetization    =     8.18 Bohr mag/cell

     iteration #  3     ecut=   100.00 Ry     beta= 0.70
     Davidson diagonalization with overlap
     ethr =  5.95E-05,  avg # of iterations =  5.0

     total cpu time spent up to now is     1437.7 secs

     total energy              =   -2114.88238678 Ry
     Harris-Foulkes estimate   =   -2114.99521062 Ry
     estimated scf accuracy    <       0.98997090 Ry

     total magnetization       =     8.00 Bohr mag/cell
     absolute magnetization    =     8.19 Bohr mag/cell

     iteration #  4     ecut=   100.00 Ry     beta= 0.70
     Davidson diagonalization with overlap
     ethr =  5.95E-05,  avg # of iterations =  2.0

     total cpu time spent up to now is     1472.8 secs

     total energy              =   -2114.93919729 Ry
     Harris-Foulkes estimate   =   -2114.96230222 Ry
     estimated scf accuracy    <       0.37139940 Ry

     total magnetization       =     8.00 Bohr mag/cell
     absolute magnetization    =     8.18 Bohr mag/cell

     iteration #  5     ecut=   100.00 Ry     beta= 0.70
     Davidson diagonalization with overlap
     ethr =  5.95E-05,  avg # of iterations =  1.0

     total cpu time spent up to now is     1506.7 secs

     total energy              =   -2114.93950903 Ry
     Harris-Foulkes estimate   =   -2114.95120312 Ry
     estimated scf accuracy    <       0.11975380 Ry

     total magnetization       =     8.00 Bohr mag/cell
     absolute magnetization    =     8.18 Bohr mag/cell

     iteration #  6     ecut=   100.00 Ry     beta= 0.70
     Davidson diagonalization with overlap
     ethr =  2.34E-05,  avg # of iterations =  1.0

     total cpu time spent up to now is     1540.7 secs

     total energy              =   -2114.94251860 Ry
     Harris-Foulkes estimate   =   -2114.94629828 Ry
     estimated scf accuracy    <       0.05514782 Ry

     total magnetization       =     8.00 Bohr mag/cell
     absolute magnetization    =     8.18 Bohr mag/cell

     iteration #  7     ecut=   100.00 Ry     beta= 0.70
     Davidson diagonalization with overlap
     ethr =  1.08E-05,  avg # of iterations = 15.5

     total cpu time spent up to now is     1586.5 secs

     total energy              =   -2114.94271351 Ry
     Harris-Foulkes estimate   =   -2114.94410398 Ry
     estimated scf accuracy    <       0.01321697 Ry

     total magnetization       =     8.00 Bohr mag/cell
     absolute magnetization    =     8.18 Bohr mag/cell

     iteration #  8     ecut=   100.00 Ry     beta= 0.70
     Davidson diagonalization with overlap
     ethr =  2.58E-06,  avg # of iterations =  6.5

     total cpu time spent up to now is     1629.6 secs

     total energy              =   -2114.94252740 Ry
     Harris-Foulkes estimate   =   -2114.94407287 Ry
     estimated scf accuracy    <       0.02237533 Ry

     total magnetization       =     8.00 Bohr mag/cell
     absolute magnetization    =     8.18 Bohr mag/cell

     iteration #  9     ecut=   100.00 Ry     beta= 0.70
     Davidson diagonalization with overlap
     ethr =  2.58E-06,  avg # of iterations =  1.0

     total cpu time spent up to now is     1663.4 secs

     total energy              =   -2114.94318057 Ry
     Harris-Foulkes estimate   =   -2114.94326187 Ry
     estimated scf accuracy    <       0.00173170 Ry

     total magnetization       =     8.00 Bohr mag/cell
     absolute magnetization    =     8.18 Bohr mag/cell

     iteration # 10     ecut=   100.00 Ry     beta= 0.70
     Davidson diagonalization with overlap
     ethr =  3.38E-07,  avg # of iterations =  3.0

     total cpu time spent up to now is     1701.7 secs

     total energy              =   -2114.94328060 Ry
     Harris-Foulkes estimate   =   -2114.94327540 Ry
     estimated scf accuracy    <       0.00061338 Ry

     total magnetization       =     8.00 Bohr mag/cell
     absolute magnetization    =     8.18 Bohr mag/cell

     iteration # 11     ecut=   100.00 Ry     beta= 0.70
     Davidson diagonalization with overlap
     ethr =  1.20E-07,  avg # of iterations =  2.0

     total cpu time spent up to now is     1736.5 secs

     total energy              =   -2114.94330269 Ry
     Harris-Foulkes estimate   =   -2114.94330888 Ry
     estimated scf accuracy    <       0.00046155 Ry

     total magnetization       =     8.00 Bohr mag/cell
     absolute magnetization    =     8.18 Bohr mag/cell

     iteration # 12     ecut=   100.00 Ry     beta= 0.70
     Davidson diagonalization with overlap
     ethr =  9.01E-08,  avg # of iterations =  2.0

     total cpu time spent up to now is     1771.4 secs

     total energy              =   -2114.94329930 Ry
     Harris-Foulkes estimate   =   -2114.94336868 Ry
     estimated scf accuracy    <       0.00131532 Ry

     total magnetization       =     8.00 Bohr mag/cell
     absolute magnetization    =     8.18 Bohr mag/cell

     iteration # 13     ecut=   100.00 Ry     beta= 0.70
     Davidson diagonalization with overlap
     ethr =  9.01E-08,  avg # of iterations =  2.5

     total cpu time spent up to now is     1806.4 secs

     total energy              =   -2114.94334802 Ry
     Harris-Foulkes estimate   =   -2114.94334322 Ry
     estimated scf accuracy    <       0.00009412 Ry

     total magnetization       =     8.00 Bohr mag/cell
     absolute magnetization    =     8.18 Bohr mag/cell

     iteration # 14     ecut=   100.00 Ry     beta= 0.70
     Davidson diagonalization with overlap
     ethr =  1.84E-08,  avg # of iterations =  3.5

     total cpu time spent up to now is     1844.7 secs

     total energy              =   -2114.94335277 Ry
     Harris-Foulkes estimate   =   -2114.94335184 Ry
     estimated scf accuracy    <       0.00005292 Ry

     total magnetization       =     8.00 Bohr mag/cell
     absolute magnetization    =     8.18 Bohr mag/cell

     iteration # 15     ecut=   100.00 Ry     beta= 0.70
     Davidson diagonalization with overlap
     ethr =  1.03E-08,  avg # of iterations =  3.0

     total cpu time spent up to now is     1880.5 secs

     total energy              =   -2114.94335512 Ry
     Harris-Foulkes estimate   =   -2114.94335555 Ry
     estimated scf accuracy    <       0.00002275 Ry

     total magnetization       =     8.00 Bohr mag/cell
     absolute magnetization    =     8.18 Bohr mag/cell

     iteration # 16     ecut=   100.00 Ry     beta= 0.70
     Davidson diagonalization with overlap
     ethr =  4.44E-09,  avg # of iterations =  3.0

     total cpu time spent up to now is     1916.7 secs

     total energy              =   -2114.94335551 Ry
     Harris-Foulkes estimate   =   -2114.94335630 Ry
     estimated scf accuracy    <       0.00001240 Ry

     total magnetization       =     8.00 Bohr mag/cell
     absolute magnetization    =     8.18 Bohr mag/cell

     iteration # 17     ecut=   100.00 Ry     beta= 0.70
     Davidson diagonalization with overlap
     ethr =  2.42E-09,  avg # of iterations =  3.0

     total cpu time spent up to now is     1953.1 secs

     total energy              =   -2114.94335572 Ry
     Harris-Foulkes estimate   =   -2114.94335666 Ry
     estimated scf accuracy    <       0.00001259 Ry

     total magnetization       =     8.00 Bohr mag/cell
     absolute magnetization    =     8.18 Bohr mag/cell

     iteration # 18     ecut=   100.00 Ry     beta= 0.70
     Davidson diagonalization with overlap
     ethr =  2.42E-09,  avg # of iterations =  2.0

     total cpu time spent up to now is     1987.9 secs

     total energy              =   -2114.94335648 Ry
     Harris-Foulkes estimate   =   -2114.94335637 Ry
     estimated scf accuracy    <       0.00000370 Ry

     total magnetization       =     8.00 Bohr mag/cell
     absolute magnetization    =     8.18 Bohr mag/cell

     iteration # 19     ecut=   100.00 Ry     beta= 0.70
     Davidson diagonalization with overlap
     ethr =  7.22E-10,  avg # of iterations =  3.5

     total cpu time spent up to now is     2026.1 secs

     total energy              =   -2114.94335645 Ry
     Harris-Foulkes estimate   =   -2114.94335674 Ry
     estimated scf accuracy    <       0.00000324 Ry

     total magnetization       =     8.00 Bohr mag/cell
     absolute magnetization    =     8.18 Bohr mag/cell

     iteration # 20     ecut=   100.00 Ry     beta= 0.70
     Davidson diagonalization with overlap
     ethr =  6.32E-10,  avg # of iterations =  2.0

     total cpu time spent up to now is     2060.8 secs

     total energy              =   -2114.94335669 Ry
     Harris-Foulkes estimate   =   -2114.94335674 Ry
     estimated scf accuracy    <       0.00000351 Ry

     total magnetization       =     8.00 Bohr mag/cell
     absolute magnetization    =     8.18 Bohr mag/cell

     iteration # 21     ecut=   100.00 Ry     beta= 0.70
     Davidson diagonalization with overlap
     ethr =  6.32E-10,  avg # of iterations =  3.0
 
     Magnetic moment per site:
     atom:    1    charge:    0.8452    magn:    0.0039    constr:    0.0000
     atom:    2    charge:    0.8255    magn:    0.0050    constr:    0.0000
     atom:    3    charge:    0.8482    magn:    0.0037    constr:    0.0000
     atom:    4    charge:    0.8666    magn:    0.0036    constr:    0.0000
     atom:    5    charge:    0.8232    magn:    0.0103    constr:    0.0000
     atom:    6    charge:    0.8498    magn:    0.0045    constr:    0.0000
     atom:    7    charge:    0.8475    magn:    0.0045    constr:    0.0000
     atom:    8    charge:    0.8461    magn:    0.0054    constr:    0.0000
     atom:    9    charge:    0.8411    magn:    0.0034    constr:    0.0000
     atom:   10    charge:    0.8422    magn:    0.0031    constr:    0.0000
     atom:   11    charge:    0.8408    magn:    0.0041    constr:    0.0000
     atom:   12    charge:    0.8490    magn:    0.0044    constr:    0.0000
     atom:   13    charge:    0.8532    magn:    0.0034    constr:    0.0000
     atom:   14    charge:    0.8407    magn:    0.0045    constr:    0.0000
     atom:   15    charge:    0.8504    magn:    0.0043    constr:    0.0000
     atom:   16    charge:    0.8493    magn:    0.0043    constr:    0.0000
     atom:   17    charge:    0.8264    magn:    0.0086    constr:    0.0000
     atom:   18    charge:    0.8305    magn:    0.0074    constr:    0.0000
     atom:   19    charge:    0.8623    magn:    0.0034    constr:    0.0000
     atom:   20    charge:    0.8495    magn:    0.0045    constr:    0.0000
     atom:   21    charge:    0.8243    magn:   -0.0012    constr:    0.0000
     atom:   22    charge:    0.7389    magn:    0.0006    constr:    0.0000
     atom:   23    charge:    0.7625    magn:    0.0009    constr:    0.0000
     atom:   24    charge:    0.7720    magn:   -0.0002    constr:    0.0000
     atom:   25    charge:    0.8452    magn:    0.0039    constr:    0.0000
     atom:   26    charge:    0.8254    magn:    0.0051    constr:    0.0000
     atom:   27    charge:    0.8481    magn:    0.0037    constr:    0.0000
     atom:   28    charge:    0.8668    magn:    0.0036    constr:    0.0000
     atom:   29    charge:    0.8233    magn:    0.0103    constr:    0.0000
     atom:   30    charge:    0.8494    magn:    0.0046    constr:    0.0000
     atom:   31    charge:    0.8475    magn:    0.0036    constr:    0.0000
     atom:   32    charge:    0.8260    magn:    0.0044    constr:    0.0000
     atom:   33    charge:    0.8395    magn:    0.0045    constr:    0.0000
     atom:   34    charge:    0.8494    magn:    0.0050    constr:    0.0000
     atom:   35    charge:    0.8407    magn:    0.0041    constr:    0.0000
     atom:   36    charge:    0.8491    magn:    0.0044    constr:    0.0000
     atom:   37    charge:    0.8532    magn:    0.0034    constr:    0.0000
     atom:   38    charge:    0.8406    magn:    0.0046    constr:    0.0000
     atom:   39    charge:    0.8518    magn:    0.0034    constr:    0.0000
     atom:   40    charge:    0.8420    magn:    0.0039    constr:    0.0000
     atom:   41    charge:    0.8187    magn:    0.0067    constr:    0.0000
     atom:   42    charge:    0.8478    magn:    0.0043    constr:    0.0000
     atom:   43    charge:    0.8493    magn:    0.0041    constr:    0.0000
     atom:   44    charge:    0.8573    magn:    0.0038    constr:    0.0000
     atom:   45    charge:    0.8243    magn:   -0.0009    constr:    0.0000
     atom:   46    charge:    0.7390    magn:    0.0006    constr:    0.0000
     atom:   47    charge:    0.8249    magn:   -0.0012    constr:    0.0000
     atom:   48    charge:    0.7632    magn:    0.0008    constr:    0.0000
     atom:   49    charge:    0.8219    magn:    0.0190    constr:    0.0000
     atom:   50    charge:    0.8719    magn:    0.0042    constr:    0.0000
     atom:   51    charge:    0.8508    magn:    0.0185    constr:    0.0000
     atom:   52    charge:    0.8529    magn:    0.0184    constr:    0.0000
     atom:   53    charge:    0.8218    magn:    0.0190    constr:    0.0000
     atom:   54    charge:    0.8719    magn:    0.0043    constr:    0.0000
     atom:   55    charge:    0.8853    magn:    0.0138    constr:    0.0000
     atom:   56    charge:    0.8694    magn:    0.0033    constr:    0.0000
     atom:   57    charge:    0.4792    magn:   -0.0013    constr:    0.0000
     atom:   58    charge:    0.4786    magn:   -0.0014    constr:    0.0000
     atom:   59    charge:    0.4753    magn:   -0.0012    constr:    0.0000
     atom:   60    charge:    0.4859    magn:   -0.0014    constr:    0.0000
     atom:   61    charge:    0.4806    magn:   -0.0008    constr:    0.0000
     atom:   62    charge:    0.4859    magn:   -0.0013    constr:    0.0000
     atom:   63    charge:    0.4818    magn:   -0.0008    constr:    0.0000
     atom:   64    charge:    0.4807    magn:   -0.0006    constr:    0.0000
     atom:   65    charge:    0.4861    magn:   -0.0010    constr:    0.0000
     atom:   66    charge:    0.4799    magn:   -0.0008    constr:    0.0000
     atom:   67    charge:    0.4779    magn:   -0.0007    constr:    0.0000
     atom:   68    charge:    0.4792    magn:   -0.0013    constr:    0.0000
     atom:   69    charge:    0.4785    magn:   -0.0014    constr:    0.0000
     atom:   70    charge:    0.4789    magn:   -0.0013    constr:    0.0000
     atom:   71    charge:    0.4755    magn:   -0.0011    constr:    0.0000
[...]
     atom   72 type  2   force =    -0.01237629    0.00020824   -0.00551440
     atom   73 type  2   force =    -0.01678019    0.00779008    0.00095498
     atom   74 type  2   force =     0.00640630   -0.00421550   -0.00605456
     atom   75 type  2   force =     0.01381384   -0.00747792    0.00011494
     atom   76 type  2   force =    -0.00541819    0.00226863   -0.02257430
     atom   77 type  2   force =     0.00328984    0.01014934    0.01006909
     atom   78 type  2   force =     0.00960727   -0.01198796   -0.01766169
     atom   79 type  2   force =    -0.00439374   -0.00726476    0.00825611
     atom   80 type  2   force =     0.00586416   -0.00442716    0.00506938
     atom   81 type  3   force =     0.03325970    0.01300233   -0.00965900
     atom   82 type  3   force =     0.00693553    0.00372695    0.00083621
     atom   83 type  3   force =    -0.02874338   -0.00252567   -0.00337004
     atom   84 type  3   force =    -0.03334894    0.02356761   -0.01246418
     atom   85 type  3   force =     0.03265070    0.01174741   -0.00987413
     atom   86 type  3   force =     0.00857240    0.00148450    0.00286778
     atom   87 type  3   force =    -0.00792058   -0.00672440   -0.01555636
     atom   88 type  3   force =    -0.01288837   -0.00406275   -0.00109720
     atom   89 type  3   force =     0.00723705    0.03981285    0.01097307
     atom   90 type  3   force =    -0.16853141    0.12715893   -0.05084901
     atom   91 type  3   force =    -0.22436117   -0.03466236    0.11932636
     atom   92 type  3   force =    -0.17682470    0.04864897    0.08464470
     atom   93 type  3   force =     0.00596209    0.04074180    0.00969437
     atom   94 type  3   force =    -0.16780991    0.12509678   -0.05067592
     atom   95 type  3   force =     0.06236416   -0.06309270   -0.10157494
     atom   96 type  3   force =     0.15888316   -0.12590641   -0.06833117
     atom   97 type  4   force =     0.00968679    0.00235852    0.00116412
     atom   98 type  4   force =    -0.00138565    0.00057389    0.00417249
     atom   99 type  4   force =     0.00484814    0.00120583    0.00228323
     atom  100 type  4   force =    -0.03487144   -0.01767881   -0.00787305
     atom  101 type  5   force =     0.11379526   -0.12279206   -0.03042061
     atom  102 type  5   force =     0.15439988    0.15771194   -0.07357910
     atom  103 type  5   force =    -0.01330324    0.00479464   -0.00880340
     atom  104 type  5   force =    -0.01059100   -0.04276495    0.06221977
     atom  105 type  5   force =     0.00796467    0.00209108   -0.00340527
     atom  106 type  5   force =    -0.02506798    0.00420731   -0.01663993
     atom  107 type  5   force =    -0.01093112   -0.01861061    0.00554792
     atom  108 type  5   force =    -0.11150073    0.03071144   -0.07816533
     atom  109 type  5   force =     0.00390189   -0.00468811   -0.00344352
     atom  110 type  5   force =     0.07391841    0.09923396   -0.01221943
     atom  111 type  5   force =    -0.01789315    0.01020864   -0.01704560
     atom  112 type  5   force =    -0.01075725   -0.04107037    0.06330956
     atom  113 type  5   force =     0.01570146   -0.01066764   -0.03340092
     atom  114 type  5   force =     0.01582615    0.00066595   -0.02686556
     atom  115 type  5   force =    -0.00665724   -0.01124150    0.00611193
     atom  116 type  5   force =    -0.11156318    0.03109315   -0.07752928
     atom  117 type  5   force =    -0.45736243    0.23796004   -0.49609533
     atom  118 type  5   force =    -0.06220773    0.01996521   -0.00130863
     atom  119 type  5   force =     0.08272779   -0.01206961   -0.06029428
     atom  120 type  5   force =     0.16049381    0.04619814   -0.13283340
     atom  121 type  5   force =    -0.45767047    0.23809849   -0.49635995
     atom  122 type  5   force =    -0.06165795    0.02099341    0.00032831
     atom  123 type  5   force =     0.04025400   -0.00060070   -0.02191168
     atom  124 type  5   force =     0.05597041   -0.02575154    0.00364035

     Total force =     1.732405     Total SCF correction =     0.001636

     number of scf cycles    =   6
     number of bfgs steps    =   5

     energy   old            =   -2115.9467028662 Ry
     energy   new            =   -2115.9487360776 Ry

     CASE: energy  _new > energy  _old

     new trust radius        =       0.1695719152 bohr
     new conv_thr            =       0.0000010000 Ry


ATOMIC_POSITIONS (crystal)
C             0.2865876704        0.9697077469        0.5208960315
C             0.0388779989        0.0319282990        0.0282240761
C             0.3875166481        0.0129913928        0.5426057900
C             0.1397189838        0.9837682364        0.0528396319
C             0.4466993691        0.9681040983        0.6453971172
C             0.2014340157        0.0298562072        0.1537026442
C             0.2087046771        0.5289176851        0.5292067209
C             0.4605417689        0.4733527648        0.0337233789
C             0.2442768706        0.6136107557        0.6054223193
C             0.4966624293        0.3886938338        0.1100081835
C             0.2512724208        0.8879646767        0.6001816595
C             0.0006973491        0.1136254916        0.1060986702
C             0.4083399001        0.8855074877        0.7249085853
C             0.1598666652        0.1115467399        0.2294462488
C             0.0885796974        0.6141300728        0.7265491936
C             0.3410745660        0.3887943728        0.2313754138
C             0.0493321816        0.5287698711        0.6513899603
C             0.3015895611        0.4736868472        0.1546275504
C             0.1103370285        0.4810491762        0.5539959343
C             0.3625469310        0.5215248948        0.0576241087
C             0.4329042917        0.1004743742        0.4655034598
C             0.1830310639        0.8972126571        0.9649379938
C             0.0653819369        0.3890657872        0.4699739245
C             0.3176384266        0.6075323837        0.9646301984
C             0.7865584368        0.9697190420        0.5208882603
C             0.5388796878        0.0319516473        0.0283270919
C             0.8874733705        0.0128562768        0.5428370710
C             0.6397505115        0.9837988043        0.0529143265
C             0.9467132564        0.9680544960        0.6454533516
C             0.7014651199        0.0297881313        0.1536720624
C             0.7077859389        0.5300741747        0.5261550867
C             0.9583816737        0.4698853137        0.0319981885
C             0.7425902090        0.6145622762        0.6035728392
C             0.9948387529        0.3851255852        0.1073965640
C             0.7512586006        0.8879838563        0.6001379085
C             0.5007425722        0.1137289754        0.1064183502
C             0.9083410730        0.8855002112        0.7248905898
C             0.6598306887        0.1116380198        0.2295723263
C             0.5888211965        0.6100845219        0.7272728870
C             0.8402053795        0.3895511677        0.2298990830
C             0.5508711803        0.5263701917        0.6499521203
C             0.7986041299        0.4736385050        0.1557050061
C             0.6090963754        0.4830445991        0.5477089358
C             0.8585632010        0.5186024291        0.0555277537
C             0.9325540840        0.1000222383        0.4656857605
C             0.6831014492        0.8972866445        0.9650499629
C             0.5671158954        0.3934053903        0.4696497211
C             0.8138258638        0.6081692501        0.9692106177
C             0.6121393067        0.9799180221        0.7505818421
C             0.8808577746        0.0261484147        0.9002476050
C             0.8849542807        0.5094655116        0.7501277339
C             0.1365909633        0.4899157263        0.2537932111
C             0.1121137285        0.9798819154        0.7506053544
C             0.3808427340        0.0260682562        0.9002651034
C             0.3918339303        0.5043483211        0.7655579402
C             0.1089939453        0.4653224831        0.8986928306
H             0.2370168576        1.0000969611        0.4429277298
H             0.2813036227        0.9986345738        0.1720584294
H             0.2583950843        0.5001709608        0.4505205368
H             0.3220566358        0.6507575173        0.5924616857
H             0.0750435089        0.3515025455        0.0932113018
H             0.1713703542        0.8545266699        0.5876697810
H             0.4209300484        0.1480809221        0.0892908744
H             0.4546646652        0.8528704779        0.8077534269
H             0.2062195180        0.1437234326        0.3096374515
H             0.0429678817        0.6455387612        0.8064703272
H             0.2949478736        0.3562532313        0.3114289067
H             0.7370148254        1.0000874450        0.4429175009
H             0.7813239154        0.9986202064        0.1720816314
H             0.7581048415        0.5003865643        0.4493797546
H             0.5087415552        0.5008082415        0.9533302206
H             0.8211160499        0.6510516763        0.5920006775
H             0.5751274954        0.3522036819        0.0953099921
H             0.6713774024        0.8545063197        0.5876509408
H             0.9209004741        0.1480639869        0.0893354916
H             0.9547091654        0.8529188469        0.8077445482
H             0.7062517172        0.1437461317        0.3095346698
H             0.5427160111        0.6433069748        0.8082739072
H             0.7961561154        0.3571101291        0.3095841242
H             0.7196915233        0.5055026425        0.1742712055
N             0.3097564328        0.8459561192        0.7011060436
N             0.0602533852        0.1501475220        0.2072232739
N             0.1868505991        0.6531582638        0.7047511320
N             0.4396988752        0.3484859057        0.2096601071
N             0.8097647474        0.8460017698        0.7010088580
N             0.5601808229        0.1505037717        0.2075072544
N             0.6845671301        0.6537377420        0.7035983142
N             0.9370957655        0.3464637005        0.2067296707
N             0.6871868870        0.9547954160        0.8274233048
N             0.7963237532        0.0636717132        0.8725417041
N             0.8137948309        0.5336590180        0.8187071844
N             0.0662763770        0.4647017307        0.3213105519
N             0.1873116944        0.9548689768        0.8274517470
N             0.2961990696        0.0633842793        0.8725135533
N             0.3214240879        0.5162015009        0.8392238643
N             0.1862680569        0.4228046047        0.8599942873
Ni            0.2479448313        0.7503411437        0.8372379827
Ni            0.5002667995        0.2472186390        0.3393420353
Ni            0.7468689959        0.7506376970        0.8371733476
Ni            1.0005990887        0.2452464804        0.3398815140
O             0.1279575151        0.3263987952        0.3982591724
O             0.3754038296        0.6725276120        0.8952437116
O             0.3769563553        0.1478136937        0.3765059972
O             0.1150503613        0.8209580314        0.8894287192
O             0.4724054100        0.3550098065        0.4811101736
O             0.2219499992        0.6435037937        0.9827066635
O             0.0287670227        0.1357024847        0.4787100306
O             0.2802948728        0.8549302064        0.9973725316
O             0.6234205180        0.3476017587        0.3825509657
O             0.8755141710        0.6727439296        0.8956516917
O             0.8765962503        0.1472662139        0.3768142395
O             0.6149326246        0.8209842722        0.8894999860
O             0.9718057493        0.3508805324        0.4901758694
O             0.7198618612        0.6439377467        0.9902941692
O             0.5289675977        0.1366346189        0.4785149093
O             0.7802748367        0.8549118249        0.9972439283
O             0.5529130915        0.0146867199        0.6688379566
O             0.9782405876        0.9947324044        0.9242495376
O             0.9497089176        0.4805183236        0.6694722012
O             0.1996314084        0.5192223131        0.1721721823
O             0.0529340585        0.0146969398        0.6688549149
O             0.4782651081        0.9947950708        0.9242351762
O             0.4514097928        0.4789694222        0.6673239923
O             0.0185189266        0.5082383390        0.9310411533



     Writing output data file ./QE_relaxation_results/pbesol_relax/NiPyC2_relax_sc211_meta_functionalized_O-C-N_pbesol_relax.save/
     NEW-OLD atomic charge density approx. for the potential

     Check: negative core charge=   -0.000145

     total cpu time spent up to now is     6204.3 secs

     Self-consistent Calculation

     iteration #  1     ecut=   100.00 Ry     beta= 0.70
     Davidson diagonalization with overlap
     c_bands:  3 eigenvalues not converged
     ethr =  1.00E-06,  avg # of iterations = 20.0

     total cpu time spent up to now is     6408.8 secs

     total energy              =   -2116.10414088 Ry
     Harris-Foulkes estimate   =   -2116.23526582 Ry
     estimated scf accuracy    <       0.39913228 Ry

     total magnetization       =     8.00 Bohr mag/cell
     absolute magnetization    =     8.21 Bohr mag/cell

     iteration #  2     ecut=   100.00 Ry     beta= 0.70
     Davidson diagonalization with overlap
     ethr =  7.80E-05,  avg # of iterations =  2.5

     total cpu time spent up to now is     6446.6 secs

     total energy              =   -2116.09033992 Ry
     Harris-Foulkes estimate   =   -2116.20763261 Ry
     estimated scf accuracy    <       0.69992504 Ry

     total magnetization       =     8.00 Bohr mag/cell
     absolute magnetization    =     8.21 Bohr mag/cell

     iteration #  3     ecut=   100.00 Ry     beta= 0.70
     Davidson diagonalization with overlap
     ethr =  7.80E-05,  avg # of iterations =  2.0

     total cpu time spent up to now is     6481.7 secs

     total energy              =   -2116.14686261 Ry
     Harris-Foulkes estimate   =   -2116.18436358 Ry
     estimated scf accuracy    <       0.32157605 Ry

     total magnetization       =     8.00 Bohr mag/cell
     absolute magnetization    =     8.20 Bohr mag/cell

     iteration #  4     ecut=   100.00 Ry     beta= 0.70
     Davidson diagonalization with overlap
     ethr =  6.28E-05,  avg # of iterations =  1.0

     total cpu time spent up to now is     6515.5 secs

     total energy              =   -2116.16271158 Ry
     Harris-Foulkes estimate   =   -2116.16583650 Ry
     estimated scf accuracy    <       0.01291643 Ry

     total magnetization       =     8.00 Bohr mag/cell
     absolute magnetization    =     8.21 Bohr mag/cell

     iteration #  5     ecut=   100.00 Ry     beta= 0.70
     Davidson diagonalization with overlap
     ethr =  2.52E-06,  avg # of iterations =  9.0

     total cpu time spent up to now is     6567.9 secs

     total energy              =   -2116.16305668 Ry
     Harris-Foulkes estimate   =   -2116.16567156 Ry
     estimated scf accuracy    <       0.03420876 Ry

     total magnetization       =     8.00 Bohr mag/cell
     absolute magnetization    =     8.20 Bohr mag/cell

     iteration #  6     ecut=   100.00 Ry     beta= 0.70
     Davidson diagonalization with overlap
     ethr =  2.52E-06,  avg # of iterations =  1.5

     total cpu time spent up to now is     6602.1 secs

     total energy              =   -2116.16421128 Ry
     Harris-Foulkes estimate   =   -2116.16450507 Ry
     estimated scf accuracy    <       0.00196415 Ry

     total magnetization       =     8.00 Bohr mag/cell
     absolute magnetization    =     8.20 Bohr mag/cell

     iteration #  7     ecut=   100.00 Ry     beta= 0.70
     Davidson diagonalization with overlap
     ethr =  3.84E-07,  avg # of iterations =  1.0

     total cpu time spent up to now is     6636.2 secs

     total energy              =   -2116.16424664 Ry
     Harris-Foulkes estimate   =   -2116.16434479 Ry
     estimated scf accuracy    <       0.00064328 Ry

     total magnetization       =     8.00 Bohr mag/cell
     absolute magnetization    =     8.20 Bohr mag/cell

     iteration #  8     ecut=   100.00 Ry     beta= 0.70
     Davidson diagonalization with overlap
     ethr =  1.26E-07,  avg # of iterations =  2.5

     total cpu time spent up to now is     6671.4 secs

     total energy              =   -2116.16423324 Ry
     Harris-Foulkes estimate   =   -2116.16430968 Ry
     estimated scf accuracy    <       0.00088664 Ry

     total magnetization       =     8.00 Bohr mag/cell
     absolute magnetization    =     8.20 Bohr mag/cell

     iteration #  9     ecut=   100.00 Ry     beta= 0.70
     Davidson diagonalization with overlap
     ethr =  1.26E-07,  avg # of iterations =  1.0

     total cpu time spent up to now is     6705.3 secs

     total energy              =   -2116.16424987 Ry
     Harris-Foulkes estimate   =   -2116.16428614 Ry
     estimated scf accuracy    <       0.00030673 Ry

     total magnetization       =     8.00 Bohr mag/cell
     absolute magnetization    =     8.20 Bohr mag/cell

     iteration # 10     ecut=   100.00 Ry     beta= 0.70
     Davidson diagonalization with overlap
     ethr =  5.99E-08,  avg # of iterations =  3.0

     total cpu time spent up to now is     6741.0 secs

     total energy              =   -2116.16425815 Ry
     Harris-Foulkes estimate   =   -2116.16426782 Ry
     estimated scf accuracy    <       0.00009346 Ry

     total magnetization       =     8.00 Bohr mag/cell
     absolute magnetization    =     8.20 Bohr mag/cell

     iteration # 11     ecut=   100.00 Ry     beta= 0.70
     Davidson diagonalization with overlap
     ethr =  1.83E-08,  avg # of iterations =  4.0

     total cpu time spent up to now is     6779.7 secs

     total energy              =   -2116.16426312 Ry
     Harris-Foulkes estimate   =   -2116.16426346 Ry
     estimated scf accuracy    <       0.00002444 Ry

     total magnetization       =     8.00 Bohr mag/cell
     absolute magnetization    =     8.20 Bohr mag/cell

     iteration # 12     ecut=   100.00 Ry     beta= 0.70
     Davidson diagonalization with overlap
     ethr =  4.77E-09,  avg # of iterations =  3.5

     total cpu time spent up to now is     6816.0 secs

     total energy              =   -2116.16426303 Ry
     Harris-Foulkes estimate   =   -2116.16426545 Ry
     estimated scf accuracy    <       0.00003151 Ry

     total magnetization       =     8.00 Bohr mag/cell
     absolute magnetization    =     8.20 Bohr mag/cell

     iteration # 13     ecut=   100.00 Ry     beta= 0.70
     Davidson diagonalization with overlap
     ethr =  4.77E-09,  avg # of iterations =  1.0

     total cpu time spent up to now is     6850.1 secs

     total energy              =   -2116.16426469 Ry
     Harris-Foulkes estimate   =   -2116.16426561 Ry
     estimated scf accuracy    <       0.00002571 Ry

     total magnetization       =     8.00 Bohr mag/cell
     absolute magnetization    =     8.20 Bohr mag/cell

     iteration # 14     ecut=   100.00 Ry     beta= 0.70
     Davidson diagonalization with overlap
     ethr =  4.77E-09,  avg # of iterations =  1.5

     total cpu time spent up to now is     6884.4 secs

     total energy              =   -2116.16426510 Ry
     Harris-Foulkes estimate   =   -2116.16426581 Ry
     estimated scf accuracy    <       0.00000873 Ry

     total magnetization       =     8.00 Bohr mag/cell
     absolute magnetization    =     8.20 Bohr mag/cell

     iteration # 15     ecut=   100.00 Ry     beta= 0.70
     Davidson diagonalization with overlap
