/apps/openmpi/3.1_intel-19/bin/mpiexec
starting QE Mon May 25 23:31:16 PDT 2020

     Program PWSCF v.6.5 starts on 25May2020 at 23:31:17 

     This program is part of the open-source Quantum ESPRESSO suite
     for quantum simulation of materials; please cite
         "P. Giannozzi et al., J. Phys.:Condens. Matter 21 395502 (2009);
         "P. Giannozzi et al., J. Phys.:Condens. Matter 29 465901 (2017);
          URL http://www.quantum-espresso.org", 
     in publications or presentations arising from this work. More details at
     http://www.quantum-espresso.org/quote

     Parallel version (MPI), running on    16 processors

     MPI processes distributed on     1 nodes
     K-points division:     npool     =       2
     R & G space division:  proc/nbgrp/npool/nimage =       8
     Reading input from ../structural_relaxation/QE_input_scripts/pw.NiPyC2_sc211.relax.in
Warning: card &CELL ignored
Warning: card    CELL_DYNAMICS='BFGS' ignored
Warning: card    CELL_DOFREE='XYZ' ignored
Warning: card / ignored

     Current dimensions of program PWSCF are:
     Max number of different atomic species (ntypx) = 10
     Max number of k-points (npk) =  40000
     Max angular momentum in pseudopotentials (lmaxx) =  3

     -------------------------------------------------
     Parameters for Dispersion (Grimme-D2) Correction:
     -------------------------------------------------
       atom      VdW radius       C_6     

        Ni1        2.952        374.666
        Ni2        2.952        374.666
        H          1.892          4.857
        O          2.536         24.284
        N          2.640         42.670
        C          2.744         60.710

     gamma-point specific algorithms are used

     Subspace diagonalization in iterative solution of the eigenvalue problem:
     a serial algorithm will be used

     Found symmetry operation: I + ( -0.5000  0.0000  0.0000)
     This is a supercell, fractional translations are disabled
 
     Parallelization info
     --------------------
     sticks:   dense  smooth     PW     G-vecs:    dense   smooth      PW
     Min        2228    2228    555               183371   183371   22915
     Max        2230    2230    558               183374   183374   22918
     Sum       17829   17829   4457              1466989  1466989  183341
 

     Title: 
     NiPyC2_relax_sc211                                                         


     bravais-lattice index     =            0
     lattice parameter (alat)  =      23.6361  a.u.
     unit-cell volume          =   10858.6450 (a.u.)^3
     number of atoms/cell      =          108
     number of atomic types    =            6
     number of electrons       =       400.00 (up: 202.00, down: 198.00)
     number of Kohn-Sham states=          242
     kinetic-energy cutoff     =     100.0000  Ry
     charge density cutoff     =     400.0000  Ry
     convergence threshold     =      1.0E-06
     mixing beta               =       0.7000
     number of iterations used =            8  local-TF  mixing
     Exchange-correlation= PBESOL
                           (   1   4  10   8   0   0   0)
     nstep                     =          200


     celldm(1)=  23.636072  celldm(2)=   0.000000  celldm(3)=   0.000000
     celldm(4)=   0.000000  celldm(5)=   0.000000  celldm(6)=   0.000000

     crystal axes: (cart. coord. in units of alat)
               a(1) = (   0.999834   0.000000  -0.018196 )  
               a(2) = (   0.000000   1.001258   0.000000 )  
               a(3) = (   0.000000   0.000000   0.821440 )  

     reciprocal axes: (cart. coord. in units 2 pi/alat)
               b(1) = (  1.000166  0.000000  0.000000 )  
               b(2) = ( -0.000000  0.998744  0.000000 )  
               b(3) = (  0.022155 -0.000000  1.217375 )  


     PseudoPot. # 1 for Ni read from file:
     ../structural_relaxation/pseudo/Ni.pbesol-n-nc.UPF
     MD5 check sum: 623411631e0c2eb7c0b2b9815547d2d9
     Pseudo is Norm-conserving + core correction, Zval = 10.0
     Generated using "atomic" code by A. Dal Corso v.6.5
     Using radial grid of 1195 points,  2 beta functions with: 
                l(1) =   1
                l(2) =   2

     PseudoPot. # 2 for Ni read from file:
     ../structural_relaxation/pseudo/Ni.pbesol-n-nc.UPF
     MD5 check sum: 623411631e0c2eb7c0b2b9815547d2d9
     Pseudo is Norm-conserving + core correction, Zval = 10.0
     Generated using "atomic" code by A. Dal Corso v.6.5
     Using radial grid of 1195 points,  2 beta functions with: 
                l(1) =   1
                l(2) =   2

     PseudoPot. # 3 for H  read from file:
     ../structural_relaxation/pseudo/H.pbesol-n-nc.UPF
     MD5 check sum: 7995ef24074557c85b430109caaacc09
     Pseudo is Norm-conserving, Zval =  1.0
     Generated using "atomic" code by A. Dal Corso v.6.5
     Using radial grid of  929 points,  0 beta functions with: 

     PseudoPot. # 4 for O  read from file:
     ../structural_relaxation/pseudo/O.pbesol-nc.UPF
     MD5 check sum: 73d10e7e91dbfcbe8a7e362101007f84
     Pseudo is Norm-conserving, Zval =  6.0
     Generated using "atomic" code by A. Dal Corso v.6.5
     Using radial grid of 1095 points,  1 beta functions with: 
                l(1) =   1

     PseudoPot. # 5 for N  read from file:
     ../structural_relaxation/pseudo/N.pbesol-nc.UPF
     MD5 check sum: e18cc5e4b8a5600c1a19b30c2cab1ca0
     Pseudo is Norm-conserving, Zval =  5.0
     Generated using "atomic" code by A. Dal Corso v.6.5
     Using radial grid of 1085 points,  1 beta functions with: 
                l(1) =   1

     PseudoPot. # 6 for C  read from file:
     ../structural_relaxation/pseudo/C.pbesol-nc.UPF
     MD5 check sum: ce26087537ded160c8d400e183a8bf42
     Pseudo is Norm-conserving, Zval =  4.0
     Generated using "atomic" code by A. Dal Corso v.6.5
     Using radial grid of 1073 points,  1 beta functions with: 
                l(1) =   1

     atomic species   valence    mass     pseudopotential
        Ni1           10.00    58.69000     Ni( 1.00)
        Ni2           10.00    58.69000     Ni( 1.00)
        H              1.00     1.00000     H ( 1.00)
        O              6.00    16.00000     O ( 1.00)
        N              5.00    65.38000     N ( 1.00)
        C              4.00    65.38000     C ( 1.00)

     Starting magnetic structure 
     atomic species   magnetization
        Ni1          0.250
        Ni2          0.250
        H            0.000
        O            0.000
        N            0.000
        C            0.000

     No symmetry found



   Cartesian axes

     site n.     atom                  positions (alat units)
         1           Ni1 tau(   1) = (   0.2469611   0.7524310   0.6824970  )
         2           Ni2 tau(   2) = (   0.4998892   0.2483109   0.2695167  )
         3           O   tau(   3) = (   0.1227577   0.3481262   0.3122730  )
         4           O   tau(   4) = (   0.3711465   0.6517956   0.7171738  )
         5           O   tau(   5) = (   0.3775675   0.1476925   0.3029576  )
         6           O   tau(   6) = (   0.1250773   0.8534239   0.7175194  )
         7           O   tau(   7) = (   0.4729907   0.3566079   0.3881424  )
         8           O   tau(   8) = (   0.2211004   0.6422216   0.8008862  )
         9           O   tau(   9) = (   0.0288352   0.1353280   0.3946519  )
        10           O   tau(  10) = (   0.2766402   0.8638430   0.7994827  )
        11           N   tau(  11) = (   0.3083859   0.8523235   0.5733614  )
        12           N   tau(  12) = (   0.0607189   0.1490442   0.1681543  )
        13           N   tau(  13) = (   0.1865111   0.6511278   0.5764091  )
        14           N   tau(  14) = (   0.4387373   0.3513693   0.1629084  )
        15           C   tau(  15) = (   0.2881643   0.9712699   0.4235341  )
        16           C   tau(  16) = (   0.0383726   0.0311451   0.0176263  )
        17           H   tau(  17) = (   0.2370847   1.0008320   0.3596759  )
        18           H   tau(  18) = (   0.4864574   0.0026954   0.7661745  )
        19           C   tau(  19) = (   0.3905693   0.0117848   0.4418022  )
        20           C   tau(  20) = (   0.1402208   0.9889861   0.0353542  )
        21           C   tau(  21) = (   0.4518402   0.9714221   0.5260175  )
        22           C   tau(  22) = (   0.2024865   0.0283887   0.1194430  )
        23           H   tau(  23) = (   0.0320577   1.0000611   0.5526728  )
        24           H   tau(  24) = (   0.2822933   0.9999209   0.1366446  )
        25           C   tau(  25) = (   0.2081465   0.5303701   0.4286047  )
        26           C   tau(  26) = (   0.4584691   0.4720018   0.0145776  )
        27           H   tau(  27) = (   0.2586572   0.5015249   0.3643508  )
        28           H   tau(  28) = (   0.0086396   0.5010263   0.7806608  )
        29           C   tau(  29) = (   0.2450964   0.6141023   0.4936893  )
        30           C   tau(  30) = (   0.4967367   0.3891658   0.0801820  )
        31           H   tau(  31) = (   0.3225876   0.6513240   0.4809432  )
        32           H   tau(  32) = (   0.0749556   0.3532947   0.0766956  )
        33           C   tau(  33) = (   0.2494347   0.8903242   0.4909555  )
        34           C   tau(  34) = (   0.0010688   0.1123731   0.0856132  )
        35           H   tau(  35) = (   0.1701258   0.8561984   0.4803705  )
        36           H   tau(  36) = (   0.4222521   0.1479178   0.0661512  )
        37           C   tau(  37) = (   0.4079095   0.8905015   0.5902166  )
        38           C   tau(  38) = (   0.1599085   0.1096848   0.1842236  )
        39           H   tau(  39) = (   0.4532949   0.8562484   0.6560989  )
        40           H   tau(  40) = (   0.2062049   0.1432830   0.2499054  )
        41           C   tau(  41) = (   0.0888473   0.6097488   0.5958590  )
        42           C   tau(  42) = (   0.3408336   0.3921255   0.1822304  )
        43           H   tau(  43) = (   0.0437218   0.6437525   0.6617843  )
        44           H   tau(  44) = (   0.2963289   0.3579756   0.2484738  )
        45           C   tau(  45) = (   0.0469172   0.5257393   0.5341598  )
        46           C   tau(  46) = (   0.2976087   0.4753080   0.1200619  )
        47           H   tau(  47) = (   0.4685944   0.4938513   0.5447133  )
        48           H   tau(  48) = (   0.2189157   0.5058363   0.1399847  )
        49           C   tau(  49) = (   0.1081461   0.4848790   0.4499190  )
        50           C   tau(  50) = (   0.3577728   0.5163045   0.0350848  )
        51           C   tau(  51) = (   0.4332383   0.0994439   0.3754164  )
        52           C   tau(  52) = (   0.1814869   0.9008515   0.7899386  )
        53           C   tau(  53) = (   0.0673668   0.3949701   0.3854060  )
        54           C   tau(  54) = (   0.3159907   0.6049318   0.7903123  )
        55           Ni1 tau(  55) = (   0.7468783   0.7524310   0.6733988  )
        56           Ni2 tau(  56) = (   0.9998064   0.2483109   0.2604185  )
        57           O   tau(  57) = (   0.6226759   0.3481262   0.3031749  )
        58           O   tau(  58) = (   0.8710638   0.6517956   0.7080756  )
        59           O   tau(  59) = (   0.8774847   0.1476925   0.2938594  )
        60           O   tau(  60) = (   0.6249945   0.8534239   0.7084213  )
        61           O   tau(  61) = (   0.9729079   0.3566079   0.3790442  )
        62           O   tau(  62) = (   0.7210176   0.6422216   0.7917880  )
        63           O   tau(  63) = (   0.5287524   0.1353280   0.3855537  )
        64           O   tau(  64) = (   0.7765574   0.8638430   0.7903846  )
        65           N   tau(  65) = (   0.8083031   0.8523235   0.5642632  )
        66           N   tau(  66) = (   0.5606362   0.1490442   0.1590561  )
        67           N   tau(  67) = (   0.6864293   0.6511278   0.5673109  )
        68           N   tau(  68) = (   0.9386546   0.3513693   0.1538103  )
        69           C   tau(  69) = (   0.7880815   0.9712699   0.4144359  )
        70           C   tau(  70) = (   0.5382899   0.0311451   0.0085281  )
        71           H   tau(  71) = (   0.7370020   1.0008320   0.3505777  )
        72           H   tau(  72) = (   0.9863747   0.0026954   0.7570763  )
        73           C   tau(  73) = (   0.8904865   0.0117848   0.4327040  )
        74           C   tau(  74) = (   0.6401380   0.9889861   0.0262561  )
        75           C   tau(  75) = (   0.9517574   0.9714221   0.5169193  )
        76           C   tau(  76) = (   0.7024037   0.0283887   0.1103448  )
        77           H   tau(  77) = (   0.5319739   1.0000611   0.5435746  )
        78           H   tau(  78) = (   0.7822105   0.9999209   0.1275464  )
        79           C   tau(  79) = (   0.7080647   0.5303701   0.4195065  )
        80           C   tau(  80) = (   0.9583873   0.4720018   0.0054794  )
        81           H   tau(  81) = (   0.7585744   0.5015249   0.3552526  )
        82           H   tau(  82) = (   0.5085568   0.5010263   0.7715627  )
        83           C   tau(  83) = (   0.7450136   0.6141023   0.4845911  )
        84           C   tau(  84) = (   0.9966540   0.3891658   0.0710839  )
        85           H   tau(  85) = (   0.8225048   0.6513240   0.4718450  )
        86           H   tau(  86) = (   0.5748728   0.3532947   0.0675975  )
        87           C   tau(  87) = (   0.7493519   0.8903242   0.4818573  )
        88           C   tau(  88) = (   0.5009860   0.1123731   0.0765150  )
        89           H   tau(  89) = (   0.6700430   0.8561984   0.4712723  )
        90           H   tau(  90) = (   0.9221693   0.1479178   0.0570531  )
        91           C   tau(  91) = (   0.9078267   0.8905015   0.5811184  )
        92           C   tau(  92) = (   0.6598247   0.1096848   0.1751255  )
        93           H   tau(  93) = (   0.9532122   0.8562484   0.6470007  )
        94           H   tau(  94) = (   0.7061231   0.1432830   0.2408072  )
        95           C   tau(  95) = (   0.5887645   0.6097488   0.5867608  )
        96           C   tau(  96) = (   0.8407508   0.3921255   0.1731323  )
        97           H   tau(  97) = (   0.5436390   0.6437525   0.6526861  )
        98           H   tau(  98) = (   0.7962461   0.3579756   0.2393756  )
        99           C   tau(  99) = (   0.5468344   0.5257393   0.5250616  )
       100           C   tau( 100) = (   0.7975259   0.4753080   0.1109638  )
       101           H   tau( 101) = (   0.9685116   0.4938513   0.5356151  )
       102           H   tau( 102) = (   0.7188330   0.5058363   0.1308865  )
       103           C   tau( 103) = (   0.6080633   0.4848790   0.4408209  )
       104           C   tau( 104) = (   0.8576900   0.5163045   0.0259867  )
       105           C   tau( 105) = (   0.9331555   0.0994439   0.3663183  )
       106           C   tau( 106) = (   0.6814042   0.9008515   0.7808404  )
       107           C   tau( 107) = (   0.5672831   0.3949701   0.3763079  )
       108           C   tau( 108) = (   0.8159079   0.6049318   0.7812142  )

     number of k points=     1  Marzari-Vanderbilt smearing, width (Ry)=  0.2000
                       cart. coord. in units 2pi/alat
        k(    1) = (   0.0000000   0.0000000   0.0000000), wk =   1.0000000

     Dense  grid:   733495 G-vectors     FFT dimensions: ( 160, 160, 125)

     Estimated max dynamical RAM per process >     575.14 MB

     Estimated total dynamical RAM >       8.99 GB
     Generating pointlists ...
     new r_m :   0.0654 (alat units)  1.5469 (a.u.) for type    1
     new r_m :   0.0662 (alat units)  1.5638 (a.u.) for type    2
     new r_m :   0.0357 (alat units)  0.8447 (a.u.) for type    3
     new r_m :   0.0423 (alat units)  0.9992 (a.u.) for type    4
     new r_m :   0.0445 (alat units)  1.0510 (a.u.) for type    5
     new r_m :   0.0357 (alat units)  0.8447 (a.u.) for type    6

     Check: negative core charge=   -0.000145

     Initial potential from superposition of free atoms

     starting charge  399.99669, renormalised to  400.00000
     Starting wfcs are  356 randomized atomic wfcs

     total cpu time spent up to now is       52.1 secs

     Self-consistent Calculation

     iteration #  1     ecut=   100.00 Ry     beta= 0.70
     Davidson diagonalization with overlap
     ethr =  1.00E-02,  avg # of iterations =  4.0

     total cpu time spent up to now is      150.4 secs

     total energy              =   -1619.09489942 Ry
     Harris-Foulkes estimate   =   -1626.90278744 Ry
     estimated scf accuracy    <      20.08060360 Ry

     total magnetization       =     4.00 Bohr mag/cell
     absolute magnetization    =     8.62 Bohr mag/cell

     iteration #  2     ecut=   100.00 Ry     beta= 0.70
     Davidson diagonalization with overlap
     ethr =  5.02E-03,  avg # of iterations =  2.0

     total cpu time spent up to now is      213.5 secs

     total energy              =   -1622.44495280 Ry
     Harris-Foulkes estimate   =   -1626.45530678 Ry
     estimated scf accuracy    <      19.08685987 Ry

     total magnetization       =     4.00 Bohr mag/cell
     absolute magnetization    =     4.16 Bohr mag/cell

     iteration #  3     ecut=   100.00 Ry     beta= 0.70
     Davidson diagonalization with overlap
     ethr =  4.77E-03,  avg # of iterations =  1.0

     total cpu time spent up to now is      270.4 secs

     total energy              =   -1622.06100608 Ry
     Harris-Foulkes estimate   =   -1623.17295311 Ry
     estimated scf accuracy    <       3.64647491 Ry

     total magnetization       =     4.00 Bohr mag/cell
     absolute magnetization    =     4.07 Bohr mag/cell

     iteration #  4     ecut=   100.00 Ry     beta= 0.70
     Davidson diagonalization with overlap
     ethr =  9.12E-04,  avg # of iterations =  8.0

     total cpu time spent up to now is      342.6 secs

     total energy              =   -1622.03394108 Ry
     Harris-Foulkes estimate   =   -1623.22745972 Ry
     estimated scf accuracy    <      10.24624307 Ry

     total magnetization       =     4.00 Bohr mag/cell
     absolute magnetization    =     4.27 Bohr mag/cell

     iteration #  5     ecut=   100.00 Ry     beta= 0.70
     Davidson diagonalization with overlap
     ethr =  9.12E-04,  avg # of iterations =  1.5

     total cpu time spent up to now is      400.1 secs

     total energy              =   -1622.51561077 Ry
     Harris-Foulkes estimate   =   -1622.58373317 Ry
     estimated scf accuracy    <       0.32144576 Ry

     total magnetization       =     4.00 Bohr mag/cell
     absolute magnetization    =     4.08 Bohr mag/cell

     iteration #  6     ecut=   100.00 Ry     beta= 0.70
     Davidson diagonalization with overlap
     ethr =  8.04E-05,  avg # of iterations =  7.5

     total cpu time spent up to now is      469.1 secs

     total energy              =   -1622.52063245 Ry
     Harris-Foulkes estimate   =   -1622.59380474 Ry
     estimated scf accuracy    <       1.37547517 Ry

     total magnetization       =     4.00 Bohr mag/cell
     absolute magnetization    =     4.08 Bohr mag/cell

     iteration #  7     ecut=   100.00 Ry     beta= 0.70
     Davidson diagonalization with overlap
     ethr =  8.04E-05,  avg # of iterations =  1.0

     total cpu time spent up to now is      525.9 secs

     total energy              =   -1622.43201017 Ry
     Harris-Foulkes estimate   =   -1622.55726698 Ry
     estimated scf accuracy    <       0.78210200 Ry

     total magnetization       =     4.00 Bohr mag/cell
     absolute magnetization    =     4.08 Bohr mag/cell

     iteration #  8     ecut=   100.00 Ry     beta= 0.70
     Davidson diagonalization with overlap
     ethr =  8.04E-05,  avg # of iterations =  1.5

     total cpu time spent up to now is      584.5 secs

     total energy              =   -1622.48941088 Ry
     Harris-Foulkes estimate   =   -1622.50887130 Ry
     estimated scf accuracy    <       0.18440706 Ry

     total magnetization       =     4.00 Bohr mag/cell
     absolute magnetization    =     4.11 Bohr mag/cell

     iteration #  9     ecut=   100.00 Ry     beta= 0.70
     Davidson diagonalization with overlap
     ethr =  4.61E-05,  avg # of iterations =  2.0

     total cpu time spent up to now is      642.1 secs

     total energy              =   -1622.49977010 Ry
     Harris-Foulkes estimate   =   -1622.50304335 Ry
     estimated scf accuracy    <       0.06902028 Ry

     total magnetization       =     4.00 Bohr mag/cell
     absolute magnetization    =     4.10 Bohr mag/cell

     iteration # 10     ecut=   100.00 Ry     beta= 0.70
     Davidson diagonalization with overlap
     ethr =  1.73E-05,  avg # of iterations =  5.0

     total cpu time spent up to now is      701.8 secs

     total energy              =   -1622.50402815 Ry
     Harris-Foulkes estimate   =   -1622.50429574 Ry
     estimated scf accuracy    <       0.05225929 Ry

     total magnetization       =     4.00 Bohr mag/cell
     absolute magnetization    =     4.10 Bohr mag/cell

     iteration # 11     ecut=   100.00 Ry     beta= 0.70
     Davidson diagonalization with overlap
     ethr =  1.31E-05,  avg # of iterations =  3.0

     total cpu time spent up to now is      760.6 secs

     total energy              =   -1622.50684039 Ry
     Harris-Foulkes estimate   =   -1622.50566884 Ry
     estimated scf accuracy    <       0.01054042 Ry

     total magnetization       =     4.00 Bohr mag/cell
     absolute magnetization    =     4.10 Bohr mag/cell

     iteration # 12     ecut=   100.00 Ry     beta= 0.70
     Davidson diagonalization with overlap
     ethr =  2.64E-06,  avg # of iterations =  5.0

     total cpu time spent up to now is      827.0 secs

     total energy              =   -1622.50835232 Ry
     Harris-Foulkes estimate   =   -1622.50770473 Ry
     estimated scf accuracy    <       0.00241176 Ry

     total magnetization       =     4.00 Bohr mag/cell
     absolute magnetization    =     4.10 Bohr mag/cell

     iteration # 13     ecut=   100.00 Ry     beta= 0.70
     Davidson diagonalization with overlap
     ethr =  6.03E-07,  avg # of iterations =  3.5

     total cpu time spent up to now is      887.4 secs

     total energy              =   -1622.50848905 Ry
     Harris-Foulkes estimate   =   -1622.50855273 Ry
     estimated scf accuracy    <       0.00234619 Ry

     total magnetization       =     4.00 Bohr mag/cell
     absolute magnetization    =     4.10 Bohr mag/cell

     iteration # 14     ecut=   100.00 Ry     beta= 0.70
     Davidson diagonalization with overlap
     ethr =  5.87E-07,  avg # of iterations =  1.5

     total cpu time spent up to now is      944.5 secs

     total energy              =   -1622.50894477 Ry
     Harris-Foulkes estimate   =   -1622.50868998 Ry
     estimated scf accuracy    <       0.00166331 Ry

     total magnetization       =     4.00 Bohr mag/cell
     absolute magnetization    =     4.10 Bohr mag/cell

     iteration # 15     ecut=   100.00 Ry     beta= 0.70
     Davidson diagonalization with overlap
     ethr =  4.16E-07,  avg # of iterations =  2.5

     total cpu time spent up to now is     1002.6 secs

     total energy              =   -1622.50907848 Ry
     Harris-Foulkes estimate   =   -1622.50901628 Ry
     estimated scf accuracy    <       0.00015940 Ry

     total magnetization       =     4.00 Bohr mag/cell
     absolute magnetization    =     4.10 Bohr mag/cell

     iteration # 16     ecut=   100.00 Ry     beta= 0.70
     Davidson diagonalization with overlap
     ethr =  3.99E-08,  avg # of iterations =  4.0

     total cpu time spent up to now is     1066.3 secs

     total energy              =   -1622.50908213 Ry
     Harris-Foulkes estimate   =   -1622.50910832 Ry
     estimated scf accuracy    <       0.00047233 Ry

     total magnetization       =     4.00 Bohr mag/cell
     absolute magnetization    =     4.10 Bohr mag/cell

     iteration # 17     ecut=   100.00 Ry     beta= 0.70
     Davidson diagonalization with overlap
     ethr =  3.99E-08,  avg # of iterations =  1.5

     total cpu time spent up to now is     1123.5 secs

     total energy              =   -1622.50911260 Ry
     Harris-Foulkes estimate   =   -1622.50910224 Ry
     estimated scf accuracy    <       0.00005431 Ry

     total magnetization       =     4.00 Bohr mag/cell
     absolute magnetization    =     4.10 Bohr mag/cell

     iteration # 18     ecut=   100.00 Ry     beta= 0.70
     Davidson diagonalization with overlap
     ethr =  1.36E-08,  avg # of iterations =  2.0

     total cpu time spent up to now is     1181.1 secs

     total energy              =   -1622.50911743 Ry
     Harris-Foulkes estimate   =   -1622.50911431 Ry
     estimated scf accuracy    <       0.00001847 Ry

     total magnetization       =     4.00 Bohr mag/cell
     absolute magnetization    =     4.10 Bohr mag/cell

     iteration # 19     ecut=   100.00 Ry     beta= 0.70
     Davidson diagonalization with overlap
     ethr =  4.62E-09,  avg # of iterations =  3.0

     total cpu time spent up to now is     1241.7 secs

     total energy              =   -1622.50911807 Ry
     Harris-Foulkes estimate   =   -1622.50911892 Ry
     estimated scf accuracy    <       0.00001903 Ry

     total magnetization       =     4.00 Bohr mag/cell
     absolute magnetization    =     4.09 Bohr mag/cell

     iteration # 20     ecut=   100.00 Ry     beta= 0.70
     Davidson diagonalization with overlap
     ethr =  4.62E-09,  avg # of iterations =  1.5

     total cpu time spent up to now is     1298.7 secs

     total energy              =   -1622.50911966 Ry
     Harris-Foulkes estimate   =   -1622.50911909 Ry
     estimated scf accuracy    <       0.00000732 Ry

     total magnetization       =     4.00 Bohr mag/cell
     absolute magnetization    =     4.09 Bohr mag/cell

     iteration # 21     ecut=   100.00 Ry     beta= 0.70
     Davidson diagonalization with overlap
     ethr =  1.83E-09,  avg # of iterations =  2.0

     total cpu time spent up to now is     1356.2 secs

     total energy              =   -1622.50912038 Ry
     Harris-Foulkes estimate   =   -1622.50912012 Ry
     estimated scf accuracy    <       0.00000202 Ry

     total magnetization       =     4.00 Bohr mag/cell
     absolute magnetization    =     4.09 Bohr mag/cell

     iteration # 22     ecut=   100.00 Ry     beta= 0.70
     Davidson diagonalization with overlap
     ethr =  5.06E-10,  avg # of iterations =  2.5

     total cpu time spent up to now is     1414.2 secs

     total energy              =   -1622.50912068 Ry
     Harris-Foulkes estimate   =   -1622.50912059 Ry
     estimated scf accuracy    <       0.00000144 Ry

     total magnetization       =     4.00 Bohr mag/cell
     absolute magnetization    =     4.09 Bohr mag/cell

     iteration # 23     ecut=   100.00 Ry     beta= 0.70
     Davidson diagonalization with overlap
     ethr =  3.60E-10,  avg # of iterations =  2.0
 
     Magnetic moment per site:
     atom:    1    charge:    7.4386    magn:    0.6355    constr:    0.0000
     atom:    2    charge:    7.4878    magn:    0.6359    constr:    0.0000
     atom:    3    charge:    3.2585    magn:    0.0256    constr:    0.0000
     atom:    4    charge:    3.2574    magn:    0.0265    constr:    0.0000
     atom:    5    charge:    3.2569    magn:    0.0260    constr:    0.0000
     atom:    6    charge:    3.2539    magn:    0.0261    constr:    0.0000
     atom:    7    charge:    3.2553    magn:    0.0262    constr:    0.0000
     atom:    8    charge:    3.2562    magn:    0.0270    constr:    0.0000
     atom:    9    charge:    3.2564    magn:    0.0269    constr:    0.0000
     atom:   10    charge:    3.2540    magn:    0.0268    constr:    0.0000
     atom:   11    charge:    2.4427    magn:    0.0061    constr:    0.0000
     atom:   12    charge:    2.4425    magn:    0.0061    constr:    0.0000
     atom:   13    charge:    2.4485    magn:    0.0058    constr:    0.0000
     atom:   14    charge:    2.4455    magn:    0.0060    constr:    0.0000
     atom:   15    charge:    0.8409    magn:    0.0028    constr:    0.0000
     atom:   16    charge:    0.8412    magn:    0.0028    constr:    0.0000
     atom:   17    charge:    0.4858    magn:   -0.0005    constr:    0.0000
     atom:   18    charge:    0.4852    magn:   -0.0005    constr:    0.0000
     atom:   19    charge:    0.8424    magn:    0.0021    constr:    0.0000
     atom:   20    charge:    0.8419    magn:    0.0021    constr:    0.0000
     atom:   21    charge:    0.8411    magn:    0.0029    constr:    0.0000
     atom:   22    charge:    0.8424    magn:    0.0029    constr:    0.0000
     atom:   23    charge:    0.4854    magn:   -0.0005    constr:    0.0000
     atom:   24    charge:    0.4857    magn:   -0.0005    constr:    0.0000
     atom:   25    charge:    0.8429    magn:    0.0027    constr:    0.0000
     atom:   26    charge:    0.8418    magn:    0.0028    constr:    0.0000
     atom:   27    charge:    0.4879    magn:   -0.0005    constr:    0.0000
     atom:   28    charge:    0.4886    magn:   -0.0005    constr:    0.0000
     atom:   29    charge:    0.8340    magn:    0.0025    constr:    0.0000
     atom:   30    charge:    0.8333    magn:    0.0025    constr:    0.0000
     atom:   31    charge:    0.4894    magn:   -0.0004    constr:    0.0000
     atom:   32    charge:    0.4893    magn:   -0.0003    constr:    0.0000
     atom:   33    charge:    0.8329    magn:    0.0025    constr:    0.0000
     atom:   34    charge:    0.8328    magn:    0.0025    constr:    0.0000
     atom:   35    charge:    0.4883    magn:   -0.0003    constr:    0.0000
     atom:   36    charge:    0.4889    magn:   -0.0003    constr:    0.0000
     atom:   37    charge:    0.8355    magn:    0.0025    constr:    0.0000
     atom:   38    charge:    0.8346    magn:    0.0025    constr:    0.0000
     atom:   39    charge:    0.4844    magn:   -0.0002    constr:    0.0000
     atom:   40    charge:    0.4839    magn:   -0.0002    constr:    0.0000
     atom:   41    charge:    0.8356    magn:    0.0026    constr:    0.0000
     atom:   42    charge:    0.8353    magn:    0.0025    constr:    0.0000
     atom:   43    charge:    0.4865    magn:   -0.0002    constr:    0.0000
     atom:   44    charge:    0.4865    magn:   -0.0002    constr:    0.0000
     atom:   45    charge:    0.8424    magn:    0.0028    constr:    0.0000
     atom:   46    charge:    0.8421    magn:    0.0028    constr:    0.0000
     atom:   47    charge:    0.4867    magn:   -0.0005    constr:    0.0000
     atom:   48    charge:    0.4872    magn:   -0.0005    constr:    0.0000
     atom:   49    charge:    0.8453    magn:    0.0020    constr:    0.0000
     atom:   50    charge:    0.8429    magn:    0.0020    constr:    0.0000
     atom:   51    charge:    0.8179    magn:   -0.0007    constr:    0.0000
     atom:   52    charge:    0.8186    magn:   -0.0007    constr:    0.0000
     atom:   53    charge:    0.8194    magn:   -0.0006    constr:    0.0000
     atom:   54    charge:    0.8200    magn:   -0.0007    constr:    0.0000
     atom:   55    charge:    7.4386    magn:    0.6355    constr:    0.0000
     atom:   56    charge:    7.4877    magn:    0.6359    constr:    0.0000
     atom:   57    charge:    3.2585    magn:    0.0256    constr:    0.0000
     atom:   58    charge:    3.2574    magn:    0.0265    constr:    0.0000
     atom:   59    charge:    3.2569    magn:    0.0260    constr:    0.0000
     atom:   60    charge:    3.2539    magn:    0.0261    constr:    0.0000
     atom:   61    charge:    3.2553    magn:    0.0262    constr:    0.0000
     atom:   62    charge:    3.2562    magn:    0.0270    constr:    0.0000
     atom:   63    charge:    3.2564    magn:    0.0269    constr:    0.0000
     atom:   64    charge:    3.2540    magn:    0.0268    constr:    0.0000
     atom:   65    charge:    2.4427    magn:    0.0061    constr:    0.0000
     atom:   66    charge:    2.4425    magn:    0.0061    constr:    0.0000
     atom:   67    charge:    2.4485    magn:    0.0058    constr:    0.0000
     atom:   68    charge:    2.4455    magn:    0.0060    constr:    0.0000
     atom:   69    charge:    0.8409    magn:    0.0028    constr:    0.0000
     atom:   70    charge:    0.8412    magn:    0.0028    constr:    0.0000
     atom:   71    charge:    0.4858    magn:   -0.0005    constr:    0.0000
     atom:   72    charge:    0.4852    magn:   -0.0005    constr:    0.0000
     atom:   73    charge:    0.8424    magn:    0.0021    constr:    0.0000
     atom:   74    charge:    0.8419    magn:    0.0021    constr:    0.0000
     atom:   75    charge:    0.8411    magn:    0.0029    constr:    0.0000
     atom:   76    charge:    0.8424    magn:    0.0029    constr:    0.0000
     atom:   77    charge:    0.4854    magn:   -0.0005    constr:    0.0000
     atom:   78    charge:    0.4857    magn:   -0.0005    constr:    0.0000
     atom:   79    charge:    0.8429    magn:    0.0027    constr:    0.0000
     atom:   80    charge:    0.8418    magn:    0.0028    constr:    0.0000
     atom:   81    charge:    0.4879    magn:   -0.0005    constr:    0.0000
     atom:   82    charge:    0.4886    magn:   -0.0005    constr:    0.0000
     atom:   83    charge:    0.8340    magn:    0.0025    constr:    0.0000
     atom:   84    charge:    0.8333    magn:    0.0025    constr:    0.0000
     atom:   85    charge:    0.4894    magn:   -0.0004    constr:    0.0000
     atom:   86    charge:    0.4893    magn:   -0.0003    constr:    0.0000
     atom:   87    charge:    0.8329    magn:    0.0025    constr:    0.0000
     atom:   88    charge:    0.8328    magn:    0.0025    constr:    0.0000
     atom:   89    charge:    0.4883    magn:   -0.0003    constr:    0.0000
     atom:   90    charge:    0.4889    magn:   -0.0003    constr:    0.0000
     atom:   91    charge:    0.8355    magn:    0.0025    constr:    0.0000
     atom:   92    charge:    0.8346    magn:    0.0025    constr:    0.0000
     atom:   93    charge:    0.4844    magn:   -0.0002    constr:    0.0000
     atom:   94    charge:    0.4839    magn:   -0.0002    constr:    0.0000
     atom:   95    charge:    0.8356    magn:    0.0026    constr:    0.0000
     atom:   96    charge:    0.8353    magn:    0.0025    constr:    0.0000
     atom:   97    charge:    0.4865    magn:   -0.0002    constr:    0.0000
     atom:   98    charge:    0.4865    magn:   -0.0002    constr:    0.0000
     atom:   99    charge:    0.8424    magn:    0.0028    constr:    0.0000
     atom:  100    charge:    0.8421    magn:    0.0028    constr:    0.0000
     atom:  101    charge:    0.4867    magn:   -0.0005    constr:    0.0000
     atom:  102    charge:    0.4872    magn:   -0.0005    constr:    0.0000
     atom:  103    charge:    0.8453    magn:    0.0020    constr:    0.0000
     atom:  104    charge:    0.8429    magn:    0.0020    constr:    0.0000
     atom:  105    charge:    0.8179    magn:   -0.0007    constr:    0.0000
     atom:  106    charge:    0.8186    magn:   -0.0007    constr:    0.0000
     atom:  107    charge:    0.8194    magn:   -0.0006    constr:    0.0000
     atom:  108    charge:    0.8200    magn:   -0.0007    constr:    0.0000

     total cpu time spent up to now is     1470.5 secs

     End of self-consistent calculation

 ------ SPIN UP ------------


          k = 0.0000 0.0000 0.0000 ( 91671 PWs)   bands (ev):

   -22.5448 -22.5426 -22.5316 -22.5295 -22.4037 -22.4031 -22.4004 -22.4004
   -19.5106 -19.5090 -19.4886 -19.4882 -19.4808 -19.4766 -19.4761 -19.4701
   -19.2506 -19.2444 -19.2279 -19.2276 -19.1295 -19.1264 -19.1171 -19.1168
   -15.5002 -15.4557 -15.4465 -15.4212 -15.4170 -15.4077 -15.4013 -15.3794
   -14.1834 -14.1752 -14.1666 -14.1542 -14.1435 -14.1358 -14.1206 -14.0739
   -11.7633 -11.6718 -11.6616 -11.6308 -11.6071 -11.5906 -11.5842 -11.5824
   -11.0468 -11.0169 -11.0138 -10.9981 -10.9882 -10.9424 -10.9377 -10.9206
    -9.3824  -9.1803  -9.1737  -9.1500  -9.1374  -9.0692  -9.0575  -9.0526
    -8.2769  -7.8902  -7.8768  -7.8108  -7.7093  -7.7019  -7.6982  -7.6681
    -7.5287  -7.4877  -7.4847  -7.4717  -7.4567  -7.4366  -7.4338  -7.3888
    -6.8665  -6.7973  -6.7875  -6.6940  -6.6583  -6.6534  -6.6493  -6.6266
    -6.5806  -6.5756  -6.5702  -6.5607  -6.5530  -6.5442  -6.4453  -6.4353
    -6.4022  -6.3758  -6.3273  -6.3118  -6.2973  -6.2953  -6.2361  -6.2321
    -6.2136  -6.2079  -6.2000  -6.1204  -6.1116  -6.0208  -6.0109  -5.9000
    -5.6390  -5.5909  -5.5694  -5.5595  -5.5446  -5.5290  -5.5257  -5.4543
    -5.3644  -5.3521  -5.2618  -5.2382  -5.2350  -5.2300  -5.1771  -4.9750
    -4.6715  -4.4883  -4.4658  -4.3988  -4.1393  -4.0446  -4.0347  -4.0111
    -3.9789  -3.9284  -3.8900  -3.8792  -3.8720  -3.7511  -3.7319  -3.7238
    -3.5578  -3.5523  -3.5114  -3.4738  -3.4535  -3.3850  -3.1861  -3.1732
    -3.1073  -3.0803  -3.0715  -3.0398  -3.0201  -3.0034  -2.9292  -2.9173
    -2.8519  -2.8458  -2.8415  -2.5356  -2.5250  -2.5186  -2.4724  -2.4621
    -2.4492  -2.4424  -2.4107  -2.3141  -2.3017  -2.2532  -2.2390  -2.1921
    -2.1330  -2.1256  -2.1127  -2.0903  -2.0109  -1.9981  -1.9957  -1.9861
    -1.9826  -1.9435  -1.9144  -1.9074  -1.9059  -1.8939  -1.8272  -1.8257
    -1.8187  -1.7916  -1.7900  -1.7202  -0.1607  -0.1236  -0.0974  -0.0543
     0.1730   0.2035   0.2103   0.2295   1.8509   1.8588   1.9276   1.9325
     1.9348   1.9506   1.9840   2.0593   2.9896   3.0475   3.0480   3.1361
     3.1757   3.1783   3.2727   3.4554   3.5322   4.2478   4.3294   4.3363
     4.4254   4.4607   4.4666   4.4863   4.6060   4.6100   4.6486   4.6661
     4.9977   5.1907   5.1953   5.3088   5.3121   5.3574   5.6492   5.7362
     5.9159   5.9192

 ------ SPIN DOWN ----------


          k = 0.0000 0.0000 0.0000 ( 91671 PWs)   bands (ev):

   -22.4957 -22.4935 -22.4815 -22.4795 -22.3546 -22.3541 -22.3510 -22.3509
   -19.4482 -19.4465 -19.4244 -19.4240 -19.4176 -19.4135 -19.4128 -19.4066
   -19.2342 -19.2281 -19.2115 -19.2113 -19.1133 -19.1098 -19.1008 -19.1003
   -15.4820 -15.4377 -15.4283 -15.4034 -15.3991 -15.3896 -15.3832 -15.3610
   -14.1647 -14.1564 -14.1478 -14.1354 -14.1247 -14.1170 -14.1017 -14.0550
   -11.7414 -11.6499 -11.6397 -11.6112 -11.5859 -11.5712 -11.5649 -11.5629
   -11.0316 -11.0019 -10.9988 -10.9831 -10.9735 -10.9277 -10.9229 -10.9062
    -9.3667  -9.1645  -9.1578  -9.1351  -9.1241  -9.0549  -9.0435  -9.0384
    -8.2433  -7.8549  -7.8414  -7.7739  -7.6837  -7.6684  -7.6655  -7.6323
    -7.5011  -7.4618  -7.4573  -7.4464  -7.4187  -7.4059  -7.4030  -7.3677
    -6.8078  -6.7365  -6.7269  -6.6460  -6.6276  -6.6182  -6.5864  -6.5610
    -6.5250  -6.5218  -6.5199  -6.5074  -6.5046  -6.5029  -6.4304  -6.4216
    -6.3705  -6.3438  -6.3068  -6.2824  -6.2606  -6.2585  -6.1765  -6.1725
    -6.1721  -6.1656  -6.1477  -6.0799  -6.0599  -5.9796  -5.9699  -5.8577
    -5.6004  -5.5799  -5.5505  -5.5398  -5.5350  -5.5064  -5.5022  -5.4200
    -5.3223  -5.3100  -5.2477  -5.2225  -5.2022  -5.1942  -5.1374  -4.9355
    -4.6015  -4.3192  -4.2949  -4.1168  -4.0470  -4.0029  -3.9457  -3.9320
    -3.9218  -3.8986  -3.8628  -3.8455  -3.7604  -3.5935  -3.5929  -3.5859
    -3.4321  -3.4246  -3.4147  -3.3430  -3.1929  -3.1846  -3.0024  -2.9869
    -2.9061  -2.8581  -2.8470  -2.8437  -2.7851  -2.7840  -2.7814  -2.7739
    -2.6912  -2.6519  -2.6328  -2.4420  -2.4158  -2.4050  -2.3994  -2.3724
    -2.3675  -2.3243  -2.2228  -2.2113  -2.1462  -2.1290  -2.0498  -2.0387
    -1.9575  -1.9181  -1.8879  -1.8506  -1.8441  -1.8286  -1.8064  -1.7998
    -1.7524  -1.6202  -1.6088  -1.4963  -1.4918  -1.4814  -1.4732  -1.4714
    -1.4614  -1.3880  -1.3800  -1.3384   0.2686   0.3021   0.3259   0.3600
     0.5594   0.5976   0.6015   0.6166   1.8986   1.9064   1.9779   1.9820
     1.9885   2.0058   2.0486   2.1054   3.0306   3.0889   3.0894   3.1782
     3.2174   3.2199   3.3151   3.4995   3.5475   4.2705   4.3465   4.3531
     4.4566   4.4940   4.4994   4.5124   4.6417   4.6455   4.6851   4.7006
     5.0196   5.2070   5.2110   5.3254   5.3286   5.3780   5.6646   5.7511
     5.9278   5.9356

     the spin up/dw Fermi energies are     0.0675   -0.0836 ev

!    total energy              =   -1622.50912074 Ry
     Harris-Foulkes estimate   =   -1622.50912077 Ry
     estimated scf accuracy    <       0.00000027 Ry

     The total energy is the sum of the following terms:

     one-electron contribution =   -2437.65409066 Ry
     hartree contribution      =    1359.71358267 Ry
     xc contribution           =    -492.79249638 Ry
     ewald contribution        =     -54.03570174 Ry
     Dispersion Correction     =      -0.41717465 Ry
     smearing contrib. (-TS)   =       2.67676001 Ry

     total magnetization       =     4.00 Bohr mag/cell
     absolute magnetization    =     4.10 Bohr mag/cell

     convergence has been achieved in  23 iterations

     Forces acting on atoms (cartesian axes, Ry/au):

     atom    1 type  1   force =     0.01108974   -0.00021074    0.00465317
     atom    2 type  2   force =    -0.00076494   -0.00224566   -0.00089814
     atom    3 type  4   force =    -0.00024429   -0.00311050   -0.00298587
     atom    4 type  4   force =     0.00073469    0.00362470   -0.00263000
     atom    5 type  4   force =     0.00569181    0.00104807    0.00244443
     atom    6 type  4   force =     0.00538099   -0.00032927    0.00212489
     atom    7 type  4   force =    -0.00366118   -0.00163862   -0.00222673
     atom    8 type  4   force =    -0.00340111    0.00142094   -0.00145551
     atom    9 type  4   force =    -0.00288437    0.00177013   -0.00502272
     atom   10 type  4   force =    -0.00227380   -0.00143621   -0.00446454
     atom   11 type  5   force =    -0.00277199   -0.00386602    0.00180830
     atom   12 type  5   force =    -0.00302956    0.00427452    0.00127042
     atom   13 type  5   force =    -0.00031013    0.00554896    0.00340570
     atom   14 type  5   force =     0.00061045   -0.00517341    0.00396631
     atom   15 type  6   force =     0.00104738    0.00220513   -0.00018162
     atom   16 type  6   force =     0.00106361   -0.00209801    0.00016420
     atom   17 type  3   force =     0.00136132   -0.00036696    0.00130835
     atom   18 type  3   force =     0.00182517    0.00029392    0.00134446
     atom   19 type  6   force =    -0.00040118   -0.00072343    0.00184335
     atom   20 type  6   force =     0.00043000    0.00073240    0.00235464
     atom   21 type  6   force =    -0.00276080   -0.00039604   -0.00545976
     atom   22 type  6   force =    -0.00416732    0.00067245   -0.00563286
     atom   23 type  3   force =    -0.00159857    0.00056382   -0.00136785
     atom   24 type  3   force =    -0.00130722   -0.00063190   -0.00178464
     atom   25 type  6   force =     0.00030553    0.00048453    0.00271612
     atom   26 type  6   force =     0.00082145   -0.00013239    0.00146003
     atom   27 type  3   force =     0.00169149   -0.00085365   -0.00245649
     atom   28 type  3   force =     0.00248180    0.00106783   -0.00275849
     atom   29 type  6   force =    -0.00148455   -0.00390985   -0.00056332
     atom   30 type  6   force =    -0.00138496    0.00329205   -0.00014014
     atom   31 type  3   force =     0.00039978   -0.00018035    0.00055685
     atom   32 type  3   force =     0.00058922   -0.00013676    0.00020213
     atom   33 type  6   force =     0.00320365    0.00014707    0.00506347
     atom   34 type  6   force =     0.00364699   -0.00033303    0.00482817
     atom   35 type  3   force =     0.00067741   -0.00010532    0.00126343
     atom   36 type  3   force =     0.00090883   -0.00039025    0.00154049
     atom   37 type  6   force =    -0.00102235   -0.00312647    0.00173892
     atom   38 type  6   force =    -0.00082801    0.00276018    0.00149812
     atom   39 type  3   force =    -0.00256174    0.00041257   -0.00126468
     atom   40 type  3   force =    -0.00311642   -0.00079983   -0.00195205
     atom   41 type  6   force =    -0.00242930   -0.00121673   -0.00069122
     atom   42 type  6   force =    -0.00267051    0.00052435   -0.00023681
     atom   43 type  3   force =    -0.00014538    0.00082485    0.00172841
     atom   44 type  3   force =    -0.00112039   -0.00039972    0.00163678
     atom   45 type  6   force =     0.00315996    0.00372520   -0.00096943
     atom   46 type  6   force =     0.00230772   -0.00383530   -0.00119327
     atom   47 type  3   force =    -0.00153851   -0.00036504   -0.00069112
     atom   48 type  3   force =    -0.00183843    0.00115382   -0.00090794
     atom   49 type  6   force =    -0.00011344   -0.00108150   -0.00116926
     atom   50 type  6   force =     0.00027510    0.00086925   -0.00104843
     atom   51 type  6   force =    -0.00026770    0.00421857   -0.00173409
     atom   52 type  6   force =    -0.00061203   -0.00333960   -0.00147054
     atom   53 type  6   force =     0.00114490    0.00081549    0.00075296
     atom   54 type  6   force =    -0.00013710   -0.00002289    0.00168218
     atom   55 type  1   force =     0.01109132   -0.00021101    0.00464728
     atom   56 type  2   force =    -0.00077151   -0.00224243   -0.00090126
     atom   57 type  4   force =    -0.00026934   -0.00310007   -0.00296980
     atom   58 type  4   force =     0.00073441    0.00362568   -0.00263062
     atom   59 type  4   force =     0.00568746    0.00105494    0.00243733
     atom   60 type  4   force =     0.00537632   -0.00033208    0.00211963
     atom   61 type  4   force =    -0.00365564   -0.00163954   -0.00222333
     atom   62 type  4   force =    -0.00340305    0.00142173   -0.00145524
     atom   63 type  4   force =    -0.00290122    0.00176179   -0.00502677
     atom   64 type  4   force =    -0.00226401   -0.00143645   -0.00446416
     atom   65 type  5   force =    -0.00276971   -0.00386383    0.00180587
     atom   66 type  5   force =    -0.00303804    0.00427632    0.00126747
     atom   67 type  5   force =    -0.00033849    0.00554354    0.00341342
     atom   68 type  5   force =     0.00061085   -0.00517618    0.00396844
     atom   69 type  6   force =     0.00104572    0.00220426   -0.00018087
     atom   70 type  6   force =     0.00106347   -0.00209767    0.00016494
     atom   71 type  3   force =     0.00136124   -0.00036693    0.00130824
     atom   72 type  3   force =     0.00182528    0.00029387    0.00134444
     atom   73 type  6   force =    -0.00040007   -0.00072205    0.00184258
     atom   74 type  6   force =     0.00043060    0.00073312    0.00235489
     atom   75 type  6   force =    -0.00274652   -0.00039282   -0.00545652
     atom   76 type  6   force =    -0.00417329    0.00067355   -0.00563330
     atom   77 type  3   force =    -0.00158380    0.00056858   -0.00136491
     atom   78 type  3   force =    -0.00130737   -0.00063084   -0.00178379
     atom   79 type  6   force =     0.00027639    0.00047711    0.00272374
     atom   80 type  6   force =     0.00079394   -0.00012721    0.00146881
     atom   81 type  3   force =     0.00169897   -0.00085598   -0.00246292
     atom   82 type  3   force =     0.00247431    0.00106533   -0.00275199
     atom   83 type  6   force =    -0.00146975   -0.00390696   -0.00056610
     atom   84 type  6   force =    -0.00137858    0.00329034   -0.00014007
     atom   85 type  3   force =     0.00040036   -0.00018025    0.00055623
     atom   86 type  3   force =     0.00058916   -0.00013572    0.00020146
     atom   87 type  6   force =     0.00320343    0.00014663    0.00506442
     atom   88 type  6   force =     0.00364372   -0.00033326    0.00482461
     atom   89 type  3   force =     0.00067758   -0.00010518    0.00126342
     atom   90 type  3   force =     0.00090866   -0.00039025    0.00154049
     atom   91 type  6   force =    -0.00102151   -0.00312509    0.00173818
     atom   92 type  6   force =    -0.00079634    0.00275862    0.00150996
     atom   93 type  3   force =    -0.00256196    0.00041254   -0.00126486
     atom   94 type  3   force =    -0.00312845   -0.00080461   -0.00196275
     atom   95 type  6   force =    -0.00241721   -0.00121390   -0.00069395
     atom   96 type  6   force =    -0.00267079    0.00052448   -0.00023615
     atom   97 type  3   force =    -0.00014423    0.00082553    0.00172814
     atom   98 type  3   force =    -0.00112031   -0.00039965    0.00163674
     atom   99 type  6   force =     0.00316390    0.00372915   -0.00096838
     atom  100 type  6   force =     0.00230901   -0.00383489   -0.00119439
     atom  101 type  3   force =    -0.00153841   -0.00036530   -0.00069109
     atom  102 type  3   force =    -0.00183853    0.00115372   -0.00090794
     atom  103 type  6   force =    -0.00010660   -0.00107904   -0.00117187
     atom  104 type  6   force =     0.00028638    0.00086513   -0.00105029
     atom  105 type  6   force =    -0.00027065    0.00421453   -0.00172852
     atom  106 type  6   force =    -0.00061156   -0.00333741   -0.00146830
     atom  107 type  6   force =     0.00117822    0.00081488    0.00073799
     atom  108 type  6   force =    -0.00013548   -0.00002412    0.00168261

     Total force =     0.043496     Total SCF correction =     0.001077

     BFGS Geometry Optimization

     number of scf cycles    =   1
     number of bfgs steps    =   0

     energy   new            =   -1622.5091207410 Ry

     new trust radius        =       0.0120282473 bohr
     new conv_thr            =       0.0000010000 Ry


ATOMIC_POSITIONS (crystal)
Ni1           0.2474712648        0.7514770953        0.8365760561
Ni2           0.4999396312        0.2479041094        0.3391310243
O             0.1227676627        0.3475575655        0.3827189842
O             0.3712390886        0.6511301619        0.8811572307
O             0.3778708501        0.1475512863        0.3773092352
O             0.1253256978        0.8523380865        0.8763754864
O             0.4729140764        0.3560907601        0.4828758808
O             0.2209930814        0.6414750418        0.9797988461
O             0.0287179474        0.1352327968        0.4808166013
O             0.2765897837        0.8626973128        0.9791669228
N             0.3083197025        0.8510896412        0.7049185379
N             0.0606008033        0.1490376203        0.2061145931
N             0.1865288769        0.6505444719        0.7060131194
N             0.4388358315        0.3507093970        0.2082458570
C             0.2882563201        0.9701431779        0.5219756273
C             0.0384240069        0.0310173482        0.0223174540
H             0.2371816048        0.9995594941        0.4431816625
H             0.4866152325        0.0027044194        0.9435699572
C             0.3906170241        0.0117394312        0.5465865657
C             0.1402621954        0.9877749474        0.0462676788
C             0.4517981763        0.9701852655        0.6500872077
C             0.2023436591        0.0283814143        0.1495989736
H             0.0319953561        0.9988288245        0.6734480506
H             0.2822846845        0.9986382989        0.1725088568
C             0.2081939286        0.5297244739        0.5265241801
C             0.4585797597        0.4714034059        0.0279799687
H             0.2587715759        0.5008589289        0.4491570642
H             0.0087460179        0.5004421214        0.9504082506
C             0.2450741810        0.6131657891        0.6064045947
C             0.4967603950        0.3888161058        0.1086084841
H             0.3226579169        0.6504983793        0.5926640555
H             0.0749929328        0.3528452210        0.0950389630
C             0.2496115630        0.8892122145        0.6034667967
C             0.0012233230        0.1122179278        0.1044990933
H             0.1701826649        0.8551185499        0.5886257080
H             0.4223604572        0.1477155101        0.0899661946
C             0.4079337389        0.8892508907        0.7276406045
C             0.1598999628        0.1096636316        0.2278883847
H             0.4532615994        0.8551904331        0.8086934616
H             0.2061071278        0.1430692033        0.3086935388
C             0.0887592038        0.6089315870        0.7273141218
C             0.3407769967        0.3916551565        0.2293793000
H             0.0437228482        0.6429788540        0.8066968856
H             0.2963305906        0.3575091100        0.3091342521
C             0.0470587143        0.5252364085        0.6512650314
C             0.2977556517        0.4745489393        0.1526947041
H             0.4686068976        0.4932155751        0.6734649619
H             0.2188742063        0.5052497547        0.1752155136
C             0.1081591999        0.4842243010        0.5500556711
C             0.3578436408        0.5156927301        0.0505842583
C             0.4332986724        0.0994972562        0.4665314347
C             0.1814911020        0.8995788850        0.9655956863
C             0.0674264469        0.3945084587        0.4707158541
C             0.3160371987        0.6041710326        0.9691935123
Ni1           0.7474713318        0.7514770839        0.8365757543
Ni2           0.9999393535        0.2479042459        0.3391308574
O             0.6227676028        0.3475580062        0.3827197884
O             0.8712390766        0.6511302034        0.8811571983
O             0.8778706659        0.1475515767        0.3773088656
O             0.6253255000        0.8523379681        0.8763752107
O             0.9729143109        0.3560907213        0.4828760607
O             0.7209929991        0.6414750752        0.9797988580
O             0.5287172342        0.1352324444        0.4808163770
O             0.7765901978        0.8626973026        0.9791669515
N             0.8083197989        0.8510897335        0.7049184148
N             0.5606004447        0.1490376960        0.2061144332
N             0.6865286766        0.6505442426        0.7060134909
N             0.9388358483        0.3507092799        0.2082459668
C             0.7882562500        0.9701431411        0.5219756645
C             0.5384240009        0.0310173629        0.0223174922
H             0.7371816010        0.9995594955        0.4431816566
H             0.9866152373        0.0027044177        0.9435699564
C             0.8906170710        0.0117394898        0.5465865272
C             0.6402622209        0.9877749782        0.0462676923
C             0.9517987804        0.9701854016        0.6500873878
C             0.7023434063        0.0283814608        0.1495989455
H             0.5319949811        0.9988290252        0.6734482157
H             0.7822846784        0.9986383438        0.1725089004
C             0.7081936957        0.5297241604        0.5265245450
C             0.9585795959        0.4714036247        0.0279803953
H             0.7587718924        0.5008588306        0.4491567402
H             0.5087457008        0.5004420156        0.9504085784
C             0.7450748070        0.6131659110        0.6064044652
C             0.9967606653        0.3888160336        0.1086084935
H             0.8226579415        0.6504983836        0.5926640241
H             0.5749929302        0.3528452653        0.0950389284
C             0.7496115537        0.8892121959        0.6034668452
C             0.5012231850        0.1122179182        0.1044989066
H             0.6701826718        0.8551185557        0.5886257076
H             0.9223604503        0.1477155098        0.0899661947
C             0.9079337744        0.8892509489        0.7276405674
C             0.6599003028        0.1096635657        0.2278890241
H             0.9532615901        0.8551904317        0.8086934518
H             0.7061076191        0.1430690012        0.3086929764
C             0.5887597153        0.6089317065        0.7273139925
C             0.8407769849        0.3916551619        0.2293793338
H             0.5437228971        0.6429788830        0.8066968727
H             0.7963305938        0.3575091125        0.3091342500
C             0.5470588811        0.5252365755        0.6512650891
C             0.7977557064        0.4745489563        0.1526946476
H             0.9686069018        0.4932155642        0.6734649634
H             0.7188742024        0.5052497507        0.1752155130
C             0.6081594892        0.4842244049        0.5500555429
C             0.8578441181        0.5156925563        0.0505841734
C             0.9332985475        0.0994970855        0.4665317189
C             0.6814911216        0.8995789776        0.9655958019
C             0.5674268564        0.3945084328        0.4707151148
C             0.8160372672        0.6041709808        0.9691935360



     Writing output data file ../structural_relaxation/NiPyC2_relax_sc211.save/
     NEW-OLD atomic charge density approx. for the potential

     Check: negative core charge=   -0.000145

     total cpu time spent up to now is     1508.9 secs

     Self-consistent Calculation

     iteration #  1     ecut=   100.00 Ry     beta= 0.70
     Davidson diagonalization with overlap
     ethr =  1.00E-06,  avg # of iterations =  4.0

     total cpu time spent up to now is     1656.6 secs

     total energy              =   -1622.50997197 Ry
     Harris-Foulkes estimate   =   -1622.51018597 Ry
     estimated scf accuracy    <       0.00061831 Ry

     total magnetization       =     4.00 Bohr mag/cell
     absolute magnetization    =     4.10 Bohr mag/cell

     iteration #  2     ecut=   100.00 Ry     beta= 0.70
     Davidson diagonalization with overlap
     ethr =  1.55E-07,  avg # of iterations =  3.0

     total cpu time spent up to now is     1730.7 secs

     total energy              =   -1622.51001895 Ry
     Harris-Foulkes estimate   =   -1622.51012274 Ry
     estimated scf accuracy    <       0.00061871 Ry

     total magnetization       =     4.00 Bohr mag/cell
     absolute magnetization    =     4.10 Bohr mag/cell

     iteration #  3     ecut=   100.00 Ry     beta= 0.70
     Davidson diagonalization with overlap
     ethr =  1.55E-07,  avg # of iterations =  1.0

     total cpu time spent up to now is     1787.5 secs

     total energy              =   -1622.51003181 Ry
     Harris-Foulkes estimate   =   -1622.51011308 Ry
     estimated scf accuracy    <       0.00107162 Ry

     total magnetization       =     4.00 Bohr mag/cell
     absolute magnetization    =     4.10 Bohr mag/cell

     iteration #  4     ecut=   100.00 Ry     beta= 0.70
     Davidson diagonalization with overlap
     ethr =  1.55E-07,  avg # of iterations =  1.0

     total cpu time spent up to now is     1844.3 secs

     total energy              =   -1622.51006903 Ry
     Harris-Foulkes estimate   =   -1622.51008091 Ry
     estimated scf accuracy    <       0.00007817 Ry

     total magnetization       =     4.00 Bohr mag/cell
     absolute magnetization    =     4.10 Bohr mag/cell

     iteration #  5     ecut=   100.00 Ry     beta= 0.70
     Davidson diagonalization with overlap
     ethr =  1.95E-08,  avg # of iterations =  1.0

     total cpu time spent up to now is     1901.1 secs

     total energy              =   -1622.51007159 Ry
     Harris-Foulkes estimate   =   -1622.51007505 Ry
     estimated scf accuracy    <       0.00002627 Ry

     total magnetization       =     4.00 Bohr mag/cell
     absolute magnetization    =     4.10 Bohr mag/cell

     iteration #  6     ecut=   100.00 Ry     beta= 0.70
     Davidson diagonalization with overlap
     ethr =  6.57E-09,  avg # of iterations =  1.0

     total cpu time spent up to now is     1957.9 secs

     total energy              =   -1622.51007308 Ry
     Harris-Foulkes estimate   =   -1622.51007424 Ry
     estimated scf accuracy    <       0.00001272 Ry

     total magnetization       =     4.00 Bohr mag/cell
     absolute magnetization    =     4.10 Bohr mag/cell

     iteration #  7     ecut=   100.00 Ry     beta= 0.70
     Davidson diagonalization with overlap
     ethr =  3.18E-09,  avg # of iterations =  1.0

     total cpu time spent up to now is     2014.8 secs

     total energy              =   -1622.51007290 Ry
     Harris-Foulkes estimate   =   -1622.51007357 Ry
     estimated scf accuracy    <       0.00000522 Ry

     total magnetization       =     4.00 Bohr mag/cell
     absolute magnetization    =     4.10 Bohr mag/cell

     iteration #  8     ecut=   100.00 Ry     beta= 0.70
     Davidson diagonalization with overlap
     ethr =  1.30E-09,  avg # of iterations =  2.0

     total cpu time spent up to now is     2072.4 secs

     total energy              =   -1622.51007236 Ry
     Harris-Foulkes estimate   =   -1622.51007362 Ry
     estimated scf accuracy    <       0.00001650 Ry

     total magnetization       =     4.00 Bohr mag/cell
     absolute magnetization    =     4.10 Bohr mag/cell

     iteration #  9     ecut=   100.00 Ry     beta= 0.70
     Davidson diagonalization with overlap
     ethr =  1.30E-09,  avg # of iterations =  1.0

     total cpu time spent up to now is     2129.3 secs

     total energy              =   -1622.51007288 Ry
     Harris-Foulkes estimate   =   -1622.51007304 Ry
     estimated scf accuracy    <       0.00000142 Ry

     total magnetization       =     4.00 Bohr mag/cell
     absolute magnetization    =     4.10 Bohr mag/cell

     iteration # 10     ecut=   100.00 Ry     beta= 0.70
     Davidson diagonalization with overlap
     ethr =  3.54E-10,  avg # of iterations =  3.0
 
     Magnetic moment per site:
     atom:    1    charge:    7.4391    magn:    0.6332    constr:    0.0000
     atom:    2    charge:    7.4883    magn:    0.6330    constr:    0.0000
     atom:    3    charge:    3.2579    magn:    0.0260    constr:    0.0000
     atom:    4    charge:    3.2568    magn:    0.0267    constr:    0.0000
     atom:    5    charge:    3.2586    magn:    0.0260    constr:    0.0000
     atom:    6    charge:    3.2550    magn:    0.0263    constr:    0.0000
     atom:    7    charge:    3.2544    magn:    0.0267    constr:    0.0000
     atom:    8    charge:    3.2558    magn:    0.0272    constr:    0.0000
     atom:    9    charge:    3.2573    magn:    0.0271    constr:    0.0000
     atom:   10    charge:    3.2548    magn:    0.0270    constr:    0.0000
     atom:   11    charge:    2.4443    magn:    0.0060    constr:    0.0000
     atom:   12    charge:    2.4441    magn:    0.0061    constr:    0.0000
     atom:   13    charge:    2.4468    magn:    0.0060    constr:    0.0000
     atom:   14    charge:    2.4441    magn:    0.0061    constr:    0.0000
     atom:   15    charge:    0.8409    magn:    0.0028    constr:    0.0000
     atom:   16    charge:    0.8411    magn:    0.0029    constr:    0.0000
     atom:   17    charge:    0.4859    magn:   -0.0005    constr:    0.0000
     atom:   18    charge:    0.4852    magn:   -0.0005    constr:    0.0000
     atom:   19    charge:    0.8429    magn:    0.0020    constr:    0.0000
     atom:   20    charge:    0.8426    magn:    0.0021    constr:    0.0000
     atom:   21    charge:    0.8410    magn:    0.0029    constr:    0.0000
     atom:   22    charge:    0.8424    magn:    0.0029    constr:    0.0000
     atom:   23    charge:    0.4841    magn:   -0.0005    constr:    0.0000
     atom:   24    charge:    0.4840    magn:   -0.0005    constr:    0.0000
     atom:   25    charge:    0.8431    magn:    0.0028    constr:    0.0000
     atom:   26    charge:    0.8418    magn:    0.0028    constr:    0.0000
     atom:   27    charge:    0.4872    magn:   -0.0005    constr:    0.0000
     atom:   28    charge:    0.4883    magn:   -0.0005    constr:    0.0000
     atom:   29    charge:    0.8335    magn:    0.0025    constr:    0.0000
     atom:   30    charge:    0.8327    magn:    0.0025    constr:    0.0000
     atom:   31    charge:    0.4886    magn:   -0.0004    constr:    0.0000
     atom:   32    charge:    0.4886    magn:   -0.0004    constr:    0.0000
     atom:   33    charge:    0.8328    magn:    0.0025    constr:    0.0000
     atom:   34    charge:    0.8328    magn:    0.0025    constr:    0.0000
     atom:   35    charge:    0.4872    magn:   -0.0003    constr:    0.0000
     atom:   36    charge:    0.4876    magn:   -0.0003    constr:    0.0000
     atom:   37    charge:    0.8350    magn:    0.0026    constr:    0.0000
     atom:   38    charge:    0.8343    magn:    0.0026    constr:    0.0000
     atom:   39    charge:    0.4852    magn:   -0.0002    constr:    0.0000
     atom:   40    charge:    0.4846    magn:   -0.0002    constr:    0.0000
     atom:   41    charge:    0.8356    magn:    0.0026    constr:    0.0000
     atom:   42    charge:    0.8351    magn:    0.0025    constr:    0.0000
     atom:   43    charge:    0.4867    magn:   -0.0002    constr:    0.0000
     atom:   44    charge:    0.4870    magn:   -0.0002    constr:    0.0000
     atom:   45    charge:    0.8424    magn:    0.0028    constr:    0.0000
     atom:   46    charge:    0.8420    magn:    0.0029    constr:    0.0000
     atom:   47    charge:    0.4852    magn:   -0.0005    constr:    0.0000
     atom:   48    charge:    0.4859    magn:   -0.0005    constr:    0.0000
     atom:   49    charge:    0.8455    magn:    0.0020    constr:    0.0000
     atom:   50    charge:    0.8430    magn:    0.0021    constr:    0.0000
     atom:   51    charge:    0.8190    magn:   -0.0007    constr:    0.0000
     atom:   52    charge:    0.8196    magn:   -0.0007    constr:    0.0000
     atom:   53    charge:    0.8183    magn:   -0.0006    constr:    0.0000
     atom:   54    charge:    0.8189    magn:   -0.0007    constr:    0.0000
     atom:   55    charge:    7.4392    magn:    0.6332    constr:    0.0000
     atom:   56    charge:    7.4883    magn:    0.6330    constr:    0.0000
     atom:   57    charge:    3.2579    magn:    0.0260    constr:    0.0000
     atom:   58    charge:    3.2568    magn:    0.0267    constr:    0.0000
     atom:   59    charge:    3.2586    magn:    0.0260    constr:    0.0000
     atom:   60    charge:    3.2550    magn:    0.0263    constr:    0.0000
     atom:   61    charge:    3.2544    magn:    0.0267    constr:    0.0000
     atom:   62    charge:    3.2558    magn:    0.0272    constr:    0.0000
     atom:   63    charge:    3.2573    magn:    0.0271    constr:    0.0000
     atom:   64    charge:    3.2548    magn:    0.0270    constr:    0.0000
     atom:   65    charge:    2.4443    magn:    0.0060    constr:    0.0000
     atom:   66    charge:    2.4440    magn:    0.0061    constr:    0.0000
     atom:   67    charge:    2.4468    magn:    0.0060    constr:    0.0000
     atom:   68    charge:    2.4441    magn:    0.0061    constr:    0.0000
     atom:   69    charge:    0.8409    magn:    0.0028    constr:    0.0000
     atom:   70    charge:    0.8411    magn:    0.0029    constr:    0.0000
     atom:   71    charge:    0.4859    magn:   -0.0005    constr:    0.0000
     atom:   72    charge:    0.4852    magn:   -0.0005    constr:    0.0000
     atom:   73    charge:    0.8429    magn:    0.0020    constr:    0.0000
     atom:   74    charge:    0.8426    magn:    0.0021    constr:    0.0000
     atom:   75    charge:    0.8410    magn:    0.0029    constr:    0.0000
     atom:   76    charge:    0.8424    magn:    0.0029    constr:    0.0000
     atom:   77    charge:    0.4841    magn:   -0.0005    constr:    0.0000
     atom:   78    charge:    0.4840    magn:   -0.0005    constr:    0.0000
     atom:   79    charge:    0.8431    magn:    0.0028    constr:    0.0000
     atom:   80    charge:    0.8418    magn:    0.0028    constr:    0.0000
     atom:   81    charge:    0.4872    magn:   -0.0005    constr:    0.0000
     atom:   82    charge:    0.4883    magn:   -0.0005    constr:    0.0000
     atom:   83    charge:    0.8335    magn:    0.0025    constr:    0.0000
     atom:   84    charge:    0.8327    magn:    0.0025    constr:    0.0000
     atom:   85    charge:    0.4886    magn:   -0.0004    constr:    0.0000
     atom:   86    charge:    0.4886    magn:   -0.0004    constr:    0.0000
     atom:   87    charge:    0.8328    magn:    0.0025    constr:    0.0000
     atom:   88    charge:    0.8328    magn:    0.0025    constr:    0.0000
     atom:   89    charge:    0.4872    magn:   -0.0003    constr:    0.0000
     atom:   90    charge:    0.4876    magn:   -0.0003    constr:    0.0000
     atom:   91    charge:    0.8350    magn:    0.0026    constr:    0.0000
     atom:   92    charge:    0.8343    magn:    0.0026    constr:    0.0000
     atom:   93    charge:    0.4852    magn:   -0.0002    constr:    0.0000
     atom:   94    charge:    0.4846    magn:   -0.0002    constr:    0.0000
     atom:   95    charge:    0.8356    magn:    0.0026    constr:    0.0000
     atom:   96    charge:    0.8351    magn:    0.0025    constr:    0.0000
     atom:   97    charge:    0.4867    magn:   -0.0002    constr:    0.0000
     atom:   98    charge:    0.4870    magn:   -0.0002    constr:    0.0000
     atom:   99    charge:    0.8424    magn:    0.0028    constr:    0.0000
     atom:  100    charge:    0.8420    magn:    0.0029    constr:    0.0000
     atom:  101    charge:    0.4852    magn:   -0.0005    constr:    0.0000
     atom:  102    charge:    0.4859    magn:   -0.0005    constr:    0.0000
     atom:  103    charge:    0.8455    magn:    0.0020    constr:    0.0000
     atom:  104    charge:    0.8430    magn:    0.0021    constr:    0.0000
     atom:  105    charge:    0.8190    magn:   -0.0007    constr:    0.0000
     atom:  106    charge:    0.8196    magn:   -0.0007    constr:    0.0000
     atom:  107    charge:    0.8183    magn:   -0.0006    constr:    0.0000
     atom:  108    charge:    0.8189    magn:   -0.0007    constr:    0.0000

     total cpu time spent up to now is     2186.8 secs

     End of self-consistent calculation

 ------ SPIN UP ------------


          k = 0.0000 0.0000 0.0000 ( 91671 PWs)   bands (ev):

   -22.5548 -22.5525 -22.5444 -22.5424 -22.4221 -22.4218 -22.4135 -22.4133
   -19.5127 -19.5112 -19.5026 -19.5006 -19.4869 -19.4820 -19.4717 -19.4668
   -19.2350 -19.2280 -19.2150 -19.2148 -19.1262 -19.1234 -19.1144 -19.1141
   -15.5069 -15.4602 -15.4519 -15.4316 -15.4206 -15.4192 -15.4145 -15.3933
   -14.1739 -14.1664 -14.1583 -14.1463 -14.1357 -14.1282 -14.1117 -14.0660
   -11.7676 -11.6782 -11.6630 -11.6352 -11.6042 -11.5899 -11.5846 -11.5839
   -11.0319 -11.0062 -10.9941 -10.9885 -10.9849 -10.9459 -10.9384 -10.9169
    -9.3820  -9.1799  -9.1739  -9.1508  -9.1375  -9.0701  -9.0578  -9.0530
    -8.2848  -7.8924  -7.8825  -7.8151  -7.7112  -7.7041  -7.6999  -7.6657
    -7.5283  -7.4856  -7.4849  -7.4714  -7.4633  -7.4426  -7.4373  -7.3900
    -6.8713  -6.8021  -6.7954  -6.6956  -6.6697  -6.6615  -6.6525  -6.6329
    -6.5854  -6.5803  -6.5754  -6.5632  -6.5537  -6.5452  -6.4343  -6.4231
    -6.4021  -6.3669  -6.3155  -6.3144  -6.2948  -6.2925  -6.2397  -6.2352
    -6.2171  -6.2098  -6.1966  -6.1271  -6.1146  -6.0222  -6.0123  -5.9029
    -5.6363  -5.5813  -5.5642  -5.5568  -5.5324  -5.5254  -5.5245  -5.4489
    -5.3598  -5.3512  -5.2522  -5.2376  -5.2296  -5.2283  -5.1762  -4.9720
    -4.6831  -4.4997  -4.4830  -4.4133  -4.1412  -4.0479  -4.0371  -4.0020
    -3.9720  -3.9183  -3.8775  -3.8743  -3.8607  -3.7573  -3.7285  -3.7223
    -3.5714  -3.5663  -3.5258  -3.4784  -3.4680  -3.3927  -3.1881  -3.1817
    -3.1135  -3.0863  -3.0807  -3.0414  -3.0278  -3.0122  -2.9330  -2.9248
    -2.8577  -2.8540  -2.8490  -2.5429  -2.5303  -2.5196  -2.4771  -2.4708
    -2.4522  -2.4466  -2.4132  -2.3164  -2.3070  -2.2547  -2.2410  -2.1909
    -2.1361  -2.1260  -2.1196  -2.0874  -2.0140  -2.0002  -1.9967  -1.9880
    -1.9872  -1.9436  -1.9142  -1.9085  -1.9060  -1.8965  -1.8265  -1.8245
    -1.8205  -1.7924  -1.7910  -1.7205  -0.1547  -0.1203  -0.0926  -0.0519
     0.1793   0.2095   0.2165   0.2355   1.8492   1.8598   1.9291   1.9311
     1.9344   1.9495   1.9822   2.0585   2.9929   3.0502   3.0508   3.1410
     3.1798   3.1854   3.2757   3.4577   3.5319   4.2454   4.3287   4.3358
     4.4212   4.4572   4.4619   4.4813   4.6019   4.6043   4.6465   4.6591
     4.9976   5.1874   5.1927   5.3079   5.3117   5.3557   5.6481   5.7341
     5.9138   5.9210

 ------ SPIN DOWN ----------


          k = 0.0000 0.0000 0.0000 ( 91671 PWs)   bands (ev):

   -22.5050 -22.5027 -22.4941 -22.4921 -22.3728 -22.3725 -22.3635 -22.3634
   -19.4489 -19.4474 -19.4386 -19.4365 -19.4239 -19.4188 -19.4073 -19.4022
   -19.2184 -19.2115 -19.1985 -19.1982 -19.1099 -19.1067 -19.0979 -19.0975
   -15.4885 -15.4419 -15.4335 -15.4137 -15.4025 -15.4012 -15.3964 -15.3748
   -14.1550 -14.1474 -14.1392 -14.1273 -14.1167 -14.1091 -14.0926 -14.0468
   -11.7456 -11.6563 -11.6410 -11.6153 -11.5829 -11.5701 -11.5652 -11.5642
   -11.0165 -10.9910 -10.9789 -10.9738 -10.9696 -10.9312 -10.9237 -10.9025
    -9.3661  -9.1638  -9.1578  -9.1357  -9.1239  -9.0558  -9.0435  -9.0387
    -8.2511  -7.8569  -7.8471  -7.7778  -7.6852  -7.6701  -7.6668  -7.6296
    -7.5008  -7.4590  -7.4577  -7.4457  -7.4245  -7.4114  -7.4061  -7.3687
    -6.8121  -6.7407  -6.7339  -6.6510  -6.6300  -6.6204  -6.5984  -6.5667
    -6.5264  -6.5245  -6.5211  -6.5097  -6.5092  -6.5033  -6.4198  -6.4103
    -6.3580  -6.3456  -6.2912  -6.2860  -6.2587  -6.2570  -6.1793  -6.1751
    -6.1700  -6.1663  -6.1547  -6.0826  -6.0663  -5.9810  -5.9714  -5.8606
    -5.5973  -5.5703  -5.5450  -5.5367  -5.5231  -5.5038  -5.5014  -5.4139
    -5.3172  -5.3088  -5.2386  -5.2170  -5.2014  -5.1923  -5.1359  -4.9320
    -4.6133  -4.3310  -4.3126  -4.1322  -4.0514  -3.9846  -3.9409  -3.9293
    -3.9195  -3.8773  -3.8498  -3.8355  -3.7662  -3.6082  -3.5966  -3.5920
    -3.4482  -3.4380  -3.4291  -3.3548  -3.2001  -3.1947  -3.0066  -2.9957
    -2.9129  -2.8635  -2.8551  -2.8478  -2.7910  -2.7905  -2.7895  -2.7833
    -2.6981  -2.6572  -2.6390  -2.4450  -2.4218  -2.4090  -2.4027  -2.3783
    -2.3702  -2.3290  -2.2254  -2.2184  -2.1469  -2.1311  -2.0464  -2.0412
    -1.9565  -1.9214  -1.8854  -1.8484  -1.8421  -1.8342  -1.8044  -1.7983
    -1.7517  -1.6235  -1.6149  -1.5007  -1.4953  -1.4845  -1.4776  -1.4759
    -1.4668  -1.3913  -1.3864  -1.3428   0.2734   0.3042   0.3300   0.3613
     0.5644   0.6025   0.6062   0.6214   1.8976   1.9076   1.9772   1.9837
     1.9887   2.0049   2.0472   2.1051   3.0344   3.0921   3.0928   3.1836
     3.2219   3.2274   3.3185   3.5023   3.5474   4.2684   4.3463   4.3529
     4.4527   4.4907   4.4949   4.5077   4.6379   4.6401   4.6865   4.6909
     5.0197   5.2039   5.2086   5.3245   5.3283   5.3764   5.6636   5.7490
     5.9259   5.9372

     the spin up/dw Fermi energies are     0.0666   -0.0861 ev

!    total energy              =   -1622.51007284 Ry
     Harris-Foulkes estimate   =   -1622.51007296 Ry
     estimated scf accuracy    <       0.00000027 Ry

     The total energy is the sum of the following terms:

     one-electron contribution =   -2440.02178147 Ry
     hartree contribution      =    1360.87789920 Ry
     xc contribution           =    -492.79318350 Ry
     ewald contribution        =     -52.84030045 Ry
     Dispersion Correction     =      -0.41727942 Ry
     smearing contrib. (-TS)   =       2.68457280 Ry

     total magnetization       =     4.00 Bohr mag/cell
     absolute magnetization    =     4.10 Bohr mag/cell

     convergence has been achieved in  10 iterations

     Forces acting on atoms (cartesian axes, Ry/au):

     atom    1 type  1   force =     0.00999045   -0.00123547   -0.00114937
     atom    2 type  2   force =     0.00053554   -0.00052255    0.00053328
     atom    3 type  4   force =    -0.00232843   -0.00108100    0.00036235
     atom    4 type  4   force =    -0.00156811    0.00153432    0.00116786
     atom    5 type  4   force =    -0.00099014    0.00350036   -0.00261429
     atom    6 type  4   force =     0.00024488   -0.00243955   -0.00201430
     atom    7 type  4   force =     0.00135527    0.00024443   -0.00250433
     atom    8 type  4   force =     0.00079648    0.00002616   -0.00147348
     atom    9 type  4   force =     0.00262655    0.00256640   -0.00301137
     atom   10 type  4   force =     0.00271042   -0.00215736   -0.00223542
     atom   11 type  5   force =     0.00150915   -0.00243280    0.00329298
     atom   12 type  5   force =     0.00137225    0.00262457    0.00287942
     atom   13 type  5   force =    -0.00084755    0.00074505   -0.00046041
     atom   14 type  5   force =    -0.00118563   -0.00030621    0.00002210
     atom   15 type  6   force =     0.00066730   -0.00090600    0.00334470
     atom   16 type  6   force =     0.00120615    0.00049522    0.00332970
     atom   17 type  3   force =     0.00036402    0.00008930    0.00040387
     atom   18 type  3   force =     0.00083342   -0.00013306    0.00049584
     atom   19 type  6   force =    -0.00105733    0.00338283   -0.00316003
     atom   20 type  6   force =    -0.00185592   -0.00311238   -0.00337145
     atom   21 type  6   force =     0.00027415   -0.00398894    0.00167406
     atom   22 type  6   force =     0.00141291    0.00359963    0.00221254
     atom   23 type  3   force =    -0.00297567    0.00005905   -0.00191051
     atom   24 type  3   force =    -0.00373726    0.00029061   -0.00247777
     atom   25 type  6   force =     0.00143740   -0.00380748   -0.00277728
     atom   26 type  6   force =     0.00153304    0.00311691   -0.00251146
     atom   27 type  3   force =    -0.00024746    0.00041764    0.00043734
     atom   28 type  3   force =     0.00072259   -0.00009032   -0.00015913
     atom   29 type  6   force =     0.00082746    0.00313504    0.00485155
     atom   30 type  6   force =     0.00113532   -0.00259640    0.00416000
     atom   31 type  3   force =    -0.00157101   -0.00155465    0.00057825
     atom   32 type  3   force =    -0.00142684    0.00113040    0.00033833
     atom   33 type  6   force =    -0.00168662    0.00067246    0.00066686
     atom   34 type  6   force =    -0.00160998   -0.00067125    0.00042458
     atom   35 type  3   force =     0.00233844    0.00071004    0.00161800
     atom   36 type  3   force =     0.00249410   -0.00125066    0.00178647
     atom   37 type  6   force =    -0.00219670    0.00047256   -0.00329168
     atom   38 type  6   force =    -0.00313766   -0.00007134   -0.00340273
     atom   39 type  3   force =    -0.00086958   -0.00072798    0.00101868
     atom   40 type  3   force =    -0.00117325    0.00046600    0.00064463
     atom   41 type  6   force =     0.00176690    0.00476947    0.00268117
     atom   42 type  6   force =     0.00139076   -0.00420633    0.00213690
     atom   43 type  3   force =    -0.00021635   -0.00018171    0.00069340
     atom   44 type  3   force =    -0.00122525    0.00030403    0.00090598
     atom   45 type  6   force =    -0.00383053   -0.00163723   -0.00143058
     atom   46 type  6   force =    -0.00358322    0.00066487   -0.00139554
     atom   47 type  3   force =     0.00204506    0.00127972   -0.00149538
     atom   48 type  3   force =     0.00162270   -0.00044633   -0.00170812
     atom   49 type  6   force =     0.00066482    0.00012938   -0.00025827
     atom   50 type  6   force =     0.00055398    0.00011307   -0.00043993
     atom   51 type  6   force =    -0.00064686   -0.00200449    0.00347010
     atom   52 type  6   force =    -0.00082828    0.00160180    0.00261580
     atom   53 type  6   force =    -0.00216084   -0.00355183   -0.00223385
     atom   54 type  6   force =    -0.00148557    0.00297474   -0.00127144
     atom   55 type  1   force =     0.00998717   -0.00123485   -0.00113850
     atom   56 type  2   force =     0.00054187   -0.00053865    0.00053860
     atom   57 type  4   force =    -0.00231697   -0.00108905    0.00035004
     atom   58 type  4   force =    -0.00156980    0.00152950    0.00116948
     atom   59 type  4   force =    -0.00098042    0.00349105   -0.00260199
[...]
    -3.9188  -3.9086  -3.8015  -3.7994  -3.7922  -3.6491  -3.6020  -3.5944
    -3.4731  -3.4569  -3.4517  -3.3834  -3.2422  -3.2250  -3.0474  -3.0390
    -2.9049  -2.9003  -2.8962  -2.8933  -2.8054  -2.7919  -2.7865  -2.7790
    -2.7575  -2.6455  -2.6347  -2.4509  -2.4470  -2.4394  -2.4265  -2.3790
    -2.3514  -2.3390  -2.2369  -2.2295  -2.1872  -2.1640  -2.0867  -2.0244
    -1.9513  -1.9139  -1.8859  -1.8485  -1.8465  -1.8393  -1.8283  -1.8230
    -1.7521  -1.6378  -1.6337  -1.5225  -1.5108  -1.4987  -1.4912  -1.4827
    -1.4764  -1.3979  -1.3769  -1.3461   0.2866   0.3119   0.3340   0.3635
     0.5799   0.6319   0.6353   0.6420   1.9038   1.9057   1.9381   1.9714
     1.9923   1.9937   2.0141   2.0672   3.0609   3.1302   3.1371   3.1590
     3.1849   3.1891   3.2742   3.4025   3.5628   4.2729   4.4180   4.4212
     4.4679   4.4920   4.4944   4.4974   4.5881   4.5911   4.6556   4.6658
     5.0209   5.2517   5.2563   5.4434   5.4490   5.5121   5.7275   5.7721
     5.9723   6.0292

     the spin up/dw Fermi energies are     0.0641   -0.0938 ev

!    total energy              =   -1622.51977789 Ry
     Harris-Foulkes estimate   =   -1622.51977789 Ry
     estimated scf accuracy    <          6.7E-09 Ry

     The total energy is the sum of the following terms:

     one-electron contribution =   -2469.91948774 Ry
     hartree contribution      =    1375.65663633 Ry
     xc contribution           =    -492.83486719 Ry
     ewald contribution        =     -37.69053273 Ry
     Dispersion Correction     =      -0.42172185 Ry
     smearing contrib. (-TS)   =       2.69019529 Ry

     total magnetization       =     4.00 Bohr mag/cell
     absolute magnetization    =     4.10 Bohr mag/cell

     convergence has been achieved in  10 iterations

     Forces acting on atoms (cartesian axes, Ry/au):

     atom    1 type  1   force =    -0.00007177    0.00074797    0.00031678
     atom    2 type  2   force =     0.00042285    0.00065348   -0.00008520
     atom    3 type  4   force =     0.00029109   -0.00006257   -0.00001370
     atom    4 type  4   force =     0.00000296   -0.00027210   -0.00035293
     atom    5 type  4   force =     0.00004490   -0.00067365    0.00001926
     atom    6 type  4   force =    -0.00043392   -0.00034091   -0.00020172
     atom    7 type  4   force =     0.00020600   -0.00030712    0.00007124
     atom    8 type  4   force =    -0.00001272   -0.00026761   -0.00011816
     atom    9 type  4   force =    -0.00039208   -0.00031752    0.00010939
     atom   10 type  4   force =     0.00019014    0.00003865   -0.00021100
     atom   11 type  5   force =    -0.00011793   -0.00030210   -0.00037691
     atom   12 type  5   force =     0.00031019    0.00042407    0.00022948
     atom   13 type  5   force =    -0.00017949   -0.00003557    0.00052296
     atom   14 type  5   force =     0.00018399   -0.00006318   -0.00002458
     atom   15 type  6   force =    -0.00026189   -0.00004197    0.00039866
     atom   16 type  6   force =     0.00019489   -0.00003011    0.00034742
     atom   17 type  3   force =    -0.00037373   -0.00019724   -0.00045708
     atom   18 type  3   force =    -0.00046664   -0.00006697   -0.00023045
     atom   19 type  6   force =    -0.00039978   -0.00034494    0.00061592
     atom   20 type  6   force =    -0.00060830   -0.00000035    0.00007257
     atom   21 type  6   force =    -0.00002729   -0.00006646    0.00047753
     atom   22 type  6   force =    -0.00004274   -0.00001319    0.00024913
     atom   23 type  3   force =     0.00036882   -0.00008112   -0.00028892
     atom   24 type  3   force =     0.00029884   -0.00007404    0.00004497
     atom   25 type  6   force =     0.00028556   -0.00013740   -0.00042668
     atom   26 type  6   force =     0.00054393    0.00039614   -0.00025291
     atom   27 type  3   force =     0.00057077    0.00009880    0.00011969
     atom   28 type  3   force =     0.00021811    0.00011177   -0.00021464
     atom   29 type  6   force =     0.00034071   -0.00002118    0.00017193
     atom   30 type  6   force =     0.00028169    0.00022345   -0.00011078
     atom   31 type  3   force =    -0.00056874   -0.00035479   -0.00030385
     atom   32 type  3   force =    -0.00029376    0.00032768   -0.00003049
     atom   33 type  6   force =     0.00018001    0.00038711   -0.00002847
     atom   34 type  6   force =    -0.00012918    0.00013744    0.00023688
     atom   35 type  3   force =     0.00000080    0.00068222   -0.00011080
     atom   36 type  3   force =     0.00056583   -0.00037415   -0.00036033
     atom   37 type  6   force =    -0.00006946    0.00019496   -0.00004256
     atom   38 type  6   force =    -0.00017305   -0.00017799   -0.00024832
     atom   39 type  3   force =     0.00000502    0.00094279   -0.00012478
     atom   40 type  3   force =     0.00025309   -0.00049644   -0.00039235
     atom   41 type  6   force =     0.00004292   -0.00010776    0.00025279
     atom   42 type  6   force =    -0.00010812    0.00017930    0.00022927
     atom   43 type  3   force =    -0.00039154   -0.00054357   -0.00003780
     atom   44 type  3   force =     0.00022502    0.00046042    0.00015114
     atom   45 type  6   force =    -0.00049272    0.00004613   -0.00006498
     atom   46 type  6   force =     0.00024163   -0.00007884    0.00011526
     atom   47 type  3   force =     0.00020836    0.00021071   -0.00011415
     atom   48 type  3   force =    -0.00029240    0.00006660   -0.00029906
     atom   49 type  6   force =     0.00028091   -0.00003559   -0.00053889
     atom   50 type  6   force =    -0.00008565    0.00015216    0.00025144
     atom   51 type  6   force =     0.00021877   -0.00005591    0.00015128
     atom   52 type  6   force =    -0.00043483   -0.00003333    0.00033496
     atom   53 type  6   force =    -0.00033024   -0.00022742    0.00042330
     atom   54 type  6   force =    -0.00016284   -0.00028304    0.00018553
     atom   55 type  1   force =    -0.00007025    0.00076164    0.00034871
     atom   56 type  2   force =     0.00043117    0.00068656   -0.00009342
     atom   57 type  4   force =     0.00034707   -0.00010536   -0.00007737
     atom   58 type  4   force =     0.00000694   -0.00026890   -0.00035994
     atom   59 type  4   force =    -0.00002416   -0.00061660   -0.00006342
     atom   60 type  4   force =    -0.00038653   -0.00029964   -0.00014230
     atom   61 type  4   force =     0.00030289   -0.00027553    0.00005694
     atom   62 type  4   force =    -0.00001537   -0.00026738   -0.00011762
     atom   63 type  4   force =    -0.00054789   -0.00035962    0.00009119
     atom   64 type  4   force =     0.00004647    0.00007994   -0.00022938
     atom   65 type  5   force =    -0.00011474   -0.00029500   -0.00038577
     atom   66 type  5   force =     0.00031250    0.00042994    0.00023403
     atom   67 type  5   force =    -0.00018653   -0.00004082    0.00052109
     atom   68 type  5   force =     0.00018158   -0.00006042   -0.00002707
     atom   69 type  6   force =    -0.00027229   -0.00005776    0.00040969
     atom   70 type  6   force =     0.00017865   -0.00005173    0.00031885
     atom   71 type  3   force =    -0.00037523   -0.00019283   -0.00046158
     atom   72 type  3   force =    -0.00047926   -0.00007591   -0.00024433
     atom   73 type  6   force =    -0.00037302   -0.00028275    0.00056598
     atom   74 type  6   force =    -0.00062421    0.00003461    0.00010117
     atom   75 type  6   force =    -0.00001668   -0.00007930    0.00049557
     atom   76 type  6   force =    -0.00003243   -0.00001912    0.00024713
     atom   77 type  3   force =     0.00037257   -0.00008176   -0.00028696
     atom   78 type  3   force =     0.00029494   -0.00007278    0.00004468
     atom   79 type  6   force =     0.00027355   -0.00011992   -0.00040450
     atom   80 type  6   force =     0.00055835    0.00040169   -0.00026451
     atom   81 type  3   force =     0.00057932    0.00009215    0.00010978
     atom   82 type  3   force =     0.00022345    0.00011522   -0.00022042
     atom   83 type  6   force =     0.00033956   -0.00002744    0.00016645
     atom   84 type  6   force =     0.00028263    0.00021684   -0.00010370
     atom   85 type  3   force =    -0.00056763   -0.00035403   -0.00030381
     atom   86 type  3   force =    -0.00029279    0.00032674   -0.00002940
     atom   87 type  6   force =     0.00020121    0.00039102   -0.00002177
     atom   88 type  6   force =    -0.00014742    0.00014974    0.00024107
     atom   89 type  3   force =    -0.00001031    0.00067772   -0.00011187
     atom   90 type  3   force =     0.00055575   -0.00036956   -0.00036028
     atom   91 type  6   force =    -0.00008424    0.00019513   -0.00004897
     atom   92 type  6   force =    -0.00016803   -0.00017951   -0.00024815
     atom   93 type  3   force =     0.00000940    0.00093872   -0.00011876
     atom   94 type  3   force =     0.00025221   -0.00049680   -0.00039274
     atom   95 type  6   force =     0.00004905   -0.00011294    0.00024548
     atom   96 type  6   force =    -0.00010483    0.00017807    0.00023005
     atom   97 type  3   force =    -0.00039397   -0.00054131   -0.00003480
     atom   98 type  3   force =     0.00022427    0.00045999    0.00015145
     atom   99 type  6   force =    -0.00048239    0.00006102   -0.00005598
     atom  100 type  6   force =     0.00025254   -0.00007888    0.00010970
     atom  101 type  3   force =     0.00021509    0.00021382   -0.00011493
     atom  102 type  3   force =    -0.00029698    0.00006870   -0.00029832
     atom  103 type  6   force =     0.00027083   -0.00007466   -0.00057256
     atom  104 type  6   force =    -0.00010246    0.00015392    0.00025665
     atom  105 type  6   force =     0.00010454   -0.00021081    0.00025449
     atom  106 type  6   force =    -0.00032162   -0.00015374    0.00026521
     atom  107 type  6   force =    -0.00027099   -0.00011629    0.00050199
     atom  108 type  6   force =    -0.00016127   -0.00028978    0.00019099

     Total force =     0.005406     Total SCF correction =     0.000173

     bfgs converged in  40 scf cycles and  39 bfgs steps
     (criteria: energy <  1.0E-04 Ry, force <  1.0E-03 Ry/Bohr)

     End of BFGS Geometry Optimization

     Final energy   =   -1622.5197778863 Ry
Begin final coordinates

ATOMIC_POSITIONS (crystal)
Ni1           0.2500335101        0.7513900678        0.8362827530
Ni2           0.4997168679        0.2478988136        0.3389601391
O             0.1236848293        0.3455895262        0.3821264295
O             0.3747694051        0.6547624503        0.8829543288
O             0.3740181745        0.1536875415        0.3803634907
O             0.1253778880        0.8475701028        0.8784800636
O             0.4725571264        0.3600645116        0.4776394819
O             0.2231694890        0.6405156462        0.9773199074
O             0.0267898194        0.1357733388        0.4779521962
O             0.2774545078        0.8644089996        0.9776159841
N             0.3082428351        0.8519549842        0.7055964664
N             0.0576066088        0.1469964201        0.2070935116
N             0.1900038268        0.6501033028        0.7051325910
N             0.4391110122        0.3495758791        0.2066893071
C             0.2813944987        0.9795905438        0.5322895802
C             0.0317698680        0.0204859687        0.0321897012
H             0.2262600378        1.0148600990        0.4616160763
H             0.4769003788       -0.0142422828        0.9608171989
C             0.3869582401        0.0154893509        0.5476139456
C             0.1375226197        0.9849335072        0.0471580475
C             0.4523014409        0.9670304527        0.6426822450
C             0.2024387089        0.0332021882        0.1428174011
H             0.0343085960        0.9925246752        0.6598781728
H             0.2846771082        1.0083032100        0.1596322511
C             0.2152580190        0.5219137646        0.5334983878
C             0.4656138251        0.4783783802        0.0357272942
H             0.2690335482        0.4872107888        0.4632439051
H             0.0202771988        0.5131830918        0.9665677033
C             0.2522012977        0.6054845618        0.6137795146
C             0.5018444447        0.3944849795        0.1161311654
H             0.3329839696        0.6368666965        0.6068021820
H             0.0826379603        0.3631137702        0.1095793728
C             0.2449578425        0.8968287430        0.6126880698
C            -0.0053088409        0.1022781700        0.1137312003
H             0.1637817099        0.8661747093        0.6042850442
H             0.4131688872        0.1321533195        0.1058152423
C             0.4103458994        0.8851909530        0.7202511875
C             0.1598673650        0.1141275405        0.2213955206
H             0.4586553048        0.8468166956        0.7958333660
H             0.2079054437        0.1519617634        0.2976371979
C             0.0885771936        0.6155841462        0.7186143631
C             0.3376172475        0.3842096060        0.2189809623
H             0.0414668829        0.6536969184        0.7933906572
H             0.2896003090        0.3460503679        0.2928642365
C             0.0462647111        0.5326316360        0.6412561682
C             0.2959186617        0.4674590402        0.1414038093
H             0.4647839169        0.5062360852        0.6569914141
H             0.2143667423        0.4937847785        0.1566026602
C             0.1106427884        0.4844521909        0.5478776773
C             0.3609096379        0.5159784188        0.0488625594
C             0.4296540281        0.1030374757        0.4673741842
C             0.1807114279        0.8976370504        0.9663500194
C             0.0684473626        0.3953481173        0.4679054393
C             0.3191420759        0.6052565671        0.9685156843
Ni1           0.7500333178        0.7513897704        0.8362819597
Ni2           0.9997167058        0.2478981520        0.3389603839
O             0.6236836111        0.3455908211        0.3821277407
O             0.8747686348        0.6547622303        0.8829551471
O             0.8740195459        0.1536862715        0.3803660103
O             0.6253769674        0.8475692225        0.8784785299
O             0.9725555006        0.3600629566        0.4776410751
O             0.7231686491        0.6405154920        0.9773199809
O             0.5267933357        0.1357735942        0.4779519585
O             0.7774576977        0.8644077257        0.9776163829
N             0.8082427549        0.8519547349        0.7055967301
N             0.5576065723        0.1469963392        0.2070934092
N             0.6900038476        0.6501037632        0.7051322843
N             0.9391103734        0.3495754253        0.2066895405
C             0.7813946995        0.9795906261        0.5322892124
C             0.5317704130        0.0204862197        0.0321906810
H             0.7262600325        1.0148594938        0.4616160731
H             0.9769005226       -0.0142419395        0.9608172594
C             0.8869575738        0.0154880408        0.5476154037
C             0.6375231391        0.9849325712        0.0471575337
C             0.9523011358        0.9670305893        0.6426816497
C             0.7024384681        0.0332021825        0.1428177502
H             0.5343085703        0.9925249450        0.6598787254
H             0.7846771351        1.0083032887        0.1596329610
C             0.7152581102        0.5219137793        0.5334974512
C             0.9656126143        0.4783781726        0.0357278779
H             0.7690330616        0.4872113566        0.4632435052
H             0.5202782477        0.5131831165        0.9665677290
C             0.7522012958        0.6054849687        0.6137793687
C             1.0018435773        0.3944848680        0.1161311130
H             0.8329840203        0.6368668804        0.6068022402
H             0.5826387252        0.3631138233        0.1095791405
C             0.7449574591        0.8968284170        0.6126878398
C             0.4946916401        0.1022777866        0.1137312000
H             0.6637819251        0.8661747889        0.6042851331
H             0.9131689563        0.1321533845        0.1058154246
C             0.9103461566        0.8851908903        0.7202512554
C             0.6598671475        0.1141275287        0.2213955944
H             0.9586554324        0.8468170881        0.7958330114
H             0.7079053883        0.1519617721        0.2976371191
C             0.5885768564        0.6155847472        0.7186141614
C             0.8376165179        0.3842093332        0.2189814171
H             0.5414668417        0.6536972814        0.7933904412
H             0.7895999307        0.3460500890        0.2928649232
C             0.5462642769        0.5326318925        0.6412554429
C             0.7959177102        0.4674588986        0.1414047155
H             0.9647840696        0.5062353491        0.6569924512
H             0.7143660073        0.4937843212        0.1566035231
C             0.6106428066        0.4844535056        0.5478780545
C             0.8609091141        0.5159783955        0.0488632420
C             0.9296563922        0.1030409532        0.4673721478
C             0.6807092058        0.8976394328        0.9663518524
C             0.5684458449        0.3953463688        0.4679026244
C             0.8191412055        0.6052566696        0.9685161590
End final coordinates



     Writing output data file ../structural_relaxation/NiPyC2_relax_sc211.save/
 
     init_run     :     45.60s CPU     48.82s WALL (       1 calls)
     electrons    :  30003.98s CPU  32264.55s WALL (      40 calls)
     update_pot   :    580.01s CPU    597.08s WALL (      39 calls)
     forces       :    850.84s CPU    892.83s WALL (      40 calls)

     Called by init_run:
     wfcinit      :     29.56s CPU     32.34s WALL (       1 calls)
     potinit      :      6.71s CPU      6.97s WALL (       1 calls)
     hinit0       :      7.05s CPU      7.20s WALL (       1 calls)

     Called by electrons:
     c_bands      :  27538.64s CPU  29495.18s WALL (     477 calls)
     sum_band     :   1457.56s CPU   1624.20s WALL (     477 calls)
     v_of_rho     :    514.94s CPU    566.49s WALL (     508 calls)
     mix_rho      :    500.11s CPU    561.70s WALL (     477 calls)

     Called by c_bands:
     init_us_2    :     28.34s CPU     28.88s WALL (     955 calls)
     regterg      :  27417.15s CPU  29121.31s WALL (     477 calls)

     Called by sum_band:

     Called by *egterg:
     h_psi        :  10876.46s CPU  11675.36s WALL (    1586 calls)
     g_psi        :      8.40s CPU      8.45s WALL (    1108 calls)
     rdiaghg      :    748.74s CPU    757.49s WALL (    1537 calls)

     Called by h_psi:
     h_psi:calbec :   2851.00s CPU   3013.36s WALL (    1586 calls)
     vloc_psi     :   5193.53s CPU   5822.15s WALL (    1586 calls)
     add_vuspsi   :   2800.16s CPU   2807.89s WALL (    1586 calls)

     General routines
     calbec       :   3277.07s CPU   3461.75s WALL (    1746 calls)
     fft          :    328.70s CPU    390.86s WALL (    8077 calls)
     ffts         :    342.18s CPU    389.87s WALL (    8232 calls)
     fftw         :   5338.43s CPU   6104.92s WALL (  316475 calls)
 
     Parallel routines
     fft_scatt_xy :   1272.66s CPU   1282.93s WALL (  332784 calls)
     fft_scatt_yz :   1159.69s CPU   1984.95s WALL (  332784 calls)
 
     PWSCF        :      8h44m CPU      9h23m WALL

 
   This run was terminated on:   8:55:13  26May2020            

=------------------------------------------------------------------------------=
   JOB DONE.
=------------------------------------------------------------------------------=
QE finished Tue May 26 08:55:13 PDT 2020
