/apps/openmpi/3.1_intel-19/bin/mpiexec
starting QE Mon May 11 21:32:22 PDT 2020

     Program PWSCF v.6.5 starts on 11May2020 at 21:32:23 

     This program is part of the open-source Quantum ESPRESSO suite
     for quantum simulation of materials; please cite
         "P. Giannozzi et al., J. Phys.:Condens. Matter 21 395502 (2009);
         "P. Giannozzi et al., J. Phys.:Condens. Matter 29 465901 (2017);
          URL http://www.quantum-espresso.org", 
     in publications or presentations arising from this work. More details at
     http://www.quantum-espresso.org/quote

     Parallel version (MPI), running on     4 processors

     MPI processes distributed on     1 nodes
     K-points division:     npool     =       2
     R & G space division:  proc/nbgrp/npool/nimage =       2
     Reading input from pw.NiPyC2_P1.relax.in
Warning: card &CELL ignored
Warning: card    CELL_DYNAMICS='BFGS' ignored
Warning: card    CELL_DOFREE='XYZ' ignored
Warning: card / ignored

     Current dimensions of program PWSCF are:
     Max number of different atomic species (ntypx) = 10
     Max number of k-points (npk) =  40000
     Max angular momentum in pseudopotentials (lmaxx) =  3

     -------------------------------------------------
     Parameters for Dispersion (Grimme-D2) Correction:
     -------------------------------------------------
       atom      VdW radius       C_6     

        Ni1        2.952        374.666
        Ni2        2.952        374.666
        H          1.892          4.857
        O          2.536         24.284
        N          2.640         42.670
        C          2.744         60.710

     gamma-point specific algorithms are used

     Subspace diagonalization in iterative solution of the eigenvalue problem:
     a serial algorithm will be used

 
     Parallelization info
     --------------------
     sticks:   dense  smooth     PW     G-vecs:    dense   smooth      PW
     Min        4457    4457   1109               366761   366761   45817
     Max        4460    4460   1110               366764   366764   45820
     Sum        8917    8917   2219               733525   733525   91637
 

     Title: 
     NiPyC2_P1_relax                                                            


     bravais-lattice index     =            0
     lattice parameter (alat)  =      11.8161  a.u.
     unit-cell volume          =    5429.3119 (a.u.)^3
     number of atoms/cell      =           54
     number of atomic types    =            6
     number of electrons       =       200.00 (up: 102.00, down:  98.00)
     number of Kohn-Sham states=          122
     kinetic-energy cutoff     =     100.0000  Ry
     charge density cutoff     =     400.0000  Ry
     convergence threshold     =      1.0E-06
     mixing beta               =       0.7000
     number of iterations used =            8  local-TF  mixing
     Exchange-correlation= PBESOL
                           (   1   4  10   8   0   0   0)
     nstep                     =          200


     celldm(1)=  11.816080  celldm(2)=   0.000000  celldm(3)=   0.000000
     celldm(4)=   0.000000  celldm(5)=   0.000000  celldm(6)=   0.000000

     crystal axes: (cart. coord. in units of alat)
               a(1) = (   1.000000   0.000000   0.000000 )  
               a(2) = (   0.000000   2.002847   0.000000 )  
               a(3) = (  -0.036399   0.000000   1.643149 )  

     reciprocal axes: (cart. coord. in units 2 pi/alat)
               b(1) = (  1.000000  0.000000  0.022152 )  
               b(2) = (  0.000000  0.499289  0.000000 )  
               b(3) = (  0.000000  0.000000  0.608588 )  


     PseudoPot. # 1 for Ni read from file:
     pseudo/Ni.pbesol-n-nc.UPF
     MD5 check sum: 623411631e0c2eb7c0b2b9815547d2d9
     Pseudo is Norm-conserving + core correction, Zval = 10.0
     Generated using "atomic" code by A. Dal Corso v.6.5
     Using radial grid of 1195 points,  2 beta functions with: 
                l(1) =   1
                l(2) =   2

     PseudoPot. # 2 for Ni read from file:
     pseudo/Ni.pbesol-n-nc.UPF
     MD5 check sum: 623411631e0c2eb7c0b2b9815547d2d9
     Pseudo is Norm-conserving + core correction, Zval = 10.0
     Generated using "atomic" code by A. Dal Corso v.6.5
     Using radial grid of 1195 points,  2 beta functions with: 
                l(1) =   1
                l(2) =   2

     PseudoPot. # 3 for H  read from file:
     pseudo/H.pbesol-n-nc.UPF
     MD5 check sum: 7995ef24074557c85b430109caaacc09
     Pseudo is Norm-conserving, Zval =  1.0
     Generated using "atomic" code by A. Dal Corso v.6.5
     Using radial grid of  929 points,  0 beta functions with: 

     PseudoPot. # 4 for O  read from file:
     pseudo/O.pbesol-nc.UPF
     MD5 check sum: 73d10e7e91dbfcbe8a7e362101007f84
     Pseudo is Norm-conserving, Zval =  6.0
     Generated using "atomic" code by A. Dal Corso v.6.5
     Using radial grid of 1095 points,  1 beta functions with: 
                l(1) =   1

     PseudoPot. # 5 for N  read from file:
     pseudo/N.pbesol-nc.UPF
     MD5 check sum: e18cc5e4b8a5600c1a19b30c2cab1ca0
     Pseudo is Norm-conserving, Zval =  5.0
     Generated using "atomic" code by A. Dal Corso v.6.5
     Using radial grid of 1085 points,  1 beta functions with: 
                l(1) =   1

     PseudoPot. # 6 for C  read from file:
     pseudo/C.pbesol-nc.UPF
     MD5 check sum: ce26087537ded160c8d400e183a8bf42
     Pseudo is Norm-conserving, Zval =  4.0
     Generated using "atomic" code by A. Dal Corso v.6.5
     Using radial grid of 1073 points,  1 beta functions with: 
                l(1) =   1

     atomic species   valence    mass     pseudopotential
        Ni1           10.00    58.69000     Ni( 1.00)
        Ni2           10.00    58.69000     Ni( 1.00)
        H              1.00     1.00000     H ( 1.00)
        O              6.00    16.00000     O ( 1.00)
        N              5.00    65.38000     N ( 1.00)
        C              4.00    65.38000     C ( 1.00)

     Starting magnetic structure 
     atomic species   magnetization
        Ni1          0.250
        Ni2          0.250
        H            0.000
        O            0.000
        N            0.000
        C            0.000

     No symmetry found



   Cartesian axes

     site n.     atom                  positions (alat units)
         1           Ni1 tau(   1) = (   0.4642458   1.5100664   1.3793082  )
         2           Ni2 tau(   2) = (   0.9824452   0.4927804   0.5577339  )
         3           O   tau(   3) = (   0.2269990   0.7002353   0.6455931  )
         4           O   tau(   4) = (   0.7087996   1.3026115   1.4671674  )
         5           O   tau(   5) = (   0.7414252   0.2665388   0.6082936  )
         6           O   tau(   6) = (   0.2232258   1.7363079   1.4298679  )
         7           O   tau(   7) = (   0.9187989   0.7054627   0.8171378  )
         8           O   tau(   8) = (   0.4005996   1.2973841   1.6387121  )
         9           O   tau(   9) = (   0.0492397   0.2399410   0.7791811  )
        10           O   tau(  10) = (   0.5310404   1.7629057   1.6007554  )
        11           N   tau(  11) = (   0.6025592   1.6881995   1.1439601  )
        12           N   tau(  12) = (   0.1207586   0.3146472   0.3223858  )
        13           N   tau(  13) = (   0.3350713   1.2940393   1.1750156  )
        14           N   tau(  14) = (   0.8532706   0.7088075   0.3534413  )
        15           C   tau(  15) = (   0.5691129   1.9213309   0.8435925  )
        16           C   tau(  16) = (   0.0873123   0.0815159   0.0220182  )
        17           H   tau(  17) = (   0.4840353   1.9752075   0.7297223  )
        18           H   tau(  18) = (  -0.0341640   0.0276393   1.5512966  )
        19           C   tau(  19) = (   0.7737740   1.9988411   0.8769484  )
        20           C   tau(  20) = (   0.2919734   0.0040057   0.0553741  )
        21           C   tau(  21) = (   0.8939723   1.9119175   1.0440566  )
        22           C   tau(  22) = (   0.4121716   0.0909292   0.2224823  )
        23           H   tau(  23) = (   0.0365226   1.9583836   1.0688682  )
        24           H   tau(  24) = (   0.5547220   0.0444632   0.2472939  )
        25           C   tau(  25) = (   0.3878955   1.0396778   0.8940372  )
        26           C   tau(  26) = (   0.9060948   0.9631690   0.0724629  )
        27           H   tau(  27) = (   0.4777087   0.9833978   0.7850964  )
        28           H   tau(  28) = (   0.9595093   1.0194490   1.6066707  )
        29           C   tau(  29) = (   0.4576709   1.2081172   1.0215455  )
        30           C   tau(  30) = (   0.9758703   0.7947296   0.1999712  )
        31           H   tau(  31) = (   0.5969732   1.2643972   0.9988700  )
        32           H   tau(  32) = (   0.1151726   0.7384496   0.1772957  )
        33           C   tau(  33) = (   0.4898428   1.7643077   0.9776734  )
        34           C   tau(  34) = (   0.0080421   0.2385391   0.1560991  )
        35           H   tau(  35) = (   0.3510215   1.7084283   0.9515474  )
        36           H   tau(  36) = (   0.8692209   0.2944185   0.1299731  )
        37           C   tau(  37) = (   0.8025222   1.7578986   1.1727152  )
        38           C   tau(  38) = (   0.3207216   0.2449482   0.3511409  )
        39           H   tau(  39) = (   0.8848144   1.6990149   1.2859281  )
        40           H   tau(  40) = (   0.4030137   0.3038319   0.4643538  )
        41           C   tau(  41) = (   0.1377615   1.2107209   1.2070570  )
        42           C   tau(  42) = (   0.6559609   0.7921259   0.3854827  )
        43           H   tau(  43) = (   0.0501556   1.2710066   1.3156691  )
        44           H   tau(  44) = (   0.5683549   0.7318402   0.4940948  )
        45           C   tau(  45) = (   0.0584822   1.0420812   1.0887503  )
        46           C   tau(  46) = (   0.5766816   0.9607656   0.2671760  )
        47           H   tau(  47) = (   0.9198816   0.9864020   1.1158622  )
        48           H   tau(  48) = (   0.4380810   1.0164447   0.2942879  )
        49           C   tau(  49) = (   0.1873493   0.9553579   0.9277217  )
        50           C   tau(  50) = (   0.7055486   1.0474889   0.1061474  )
        51           C   tau(  51) = (   0.8614386   0.1788542   0.7476326  )
        52           C   tau(  52) = (   0.3432392   1.8239926   1.5692069  )
        53           C   tau(  53) = (   0.1044740   0.7734994   0.7911761  )
        54           C   tau(  54) = (   0.5862747   1.2293474   1.6127504  )

     number of k points=     1  Marzari-Vanderbilt smearing, width (Ry)=  0.2000
                       cart. coord. in units 2pi/alat
        k(    1) = (   0.0000000   0.0000000   0.0000000), wk =   1.0000000

     Dense  grid:   366763 G-vectors     FFT dimensions: (  75, 160, 125)

     Estimated max dynamical RAM per process >     676.49 MB

     Estimated total dynamical RAM >       2.64 GB
     Generating pointlists ...
     new r_m :   0.1337 (alat units)  1.5801 (a.u.) for type    1
     new r_m :   0.1337 (alat units)  1.5801 (a.u.) for type    2
     new r_m :   0.0626 (alat units)  0.7399 (a.u.) for type    3
     new r_m :   0.0823 (alat units)  0.9721 (a.u.) for type    4
     new r_m :   0.0882 (alat units)  1.0416 (a.u.) for type    5
     new r_m :   0.0626 (alat units)  0.7399 (a.u.) for type    6

     Check: negative core charge=   -0.000145

     Initial potential from superposition of free atoms

     starting charge  199.99835, renormalised to  200.00000
     Starting wfcs are  178 randomized atomic wfcs

     total cpu time spent up to now is       47.4 secs

     Self-consistent Calculation

     iteration #  1     ecut=   100.00 Ry     beta= 0.70
     Davidson diagonalization with overlap
     ethr =  1.00E-02,  avg # of iterations =  4.0

     total cpu time spent up to now is       99.4 secs

     total energy              =    -808.50839369 Ry
     Harris-Foulkes estimate   =    -813.53975432 Ry
     estimated scf accuracy    <      13.16589346 Ry

     total magnetization       =     4.00 Bohr mag/cell
     absolute magnetization    =     4.57 Bohr mag/cell

     iteration #  2     ecut=   100.00 Ry     beta= 0.70
     Davidson diagonalization with overlap
     ethr =  6.58E-03,  avg # of iterations =  2.0

     total cpu time spent up to now is      133.1 secs

     total energy              =    -810.77816218 Ry
     Harris-Foulkes estimate   =    -813.09954933 Ry
     estimated scf accuracy    <      10.77384576 Ry

     total magnetization       =     4.00 Bohr mag/cell
     absolute magnetization    =     4.10 Bohr mag/cell

     iteration #  3     ecut=   100.00 Ry     beta= 0.70
     Davidson diagonalization with overlap
     ethr =  5.39E-03,  avg # of iterations =  1.0

     total cpu time spent up to now is      164.9 secs

     total energy              =    -810.33173561 Ry
     Harris-Foulkes estimate   =    -811.13829504 Ry
     estimated scf accuracy    <       2.70640970 Ry

     total magnetization       =     4.00 Bohr mag/cell
     absolute magnetization    =     4.10 Bohr mag/cell

     iteration #  4     ecut=   100.00 Ry     beta= 0.70
     Davidson diagonalization with overlap
     ethr =  1.35E-03,  avg # of iterations =  5.0

     total cpu time spent up to now is      200.5 secs

     total energy              =    -810.36328075 Ry
     Harris-Foulkes estimate   =    -811.20947445 Ry
     estimated scf accuracy    <       7.23340238 Ry

     total magnetization       =     4.00 Bohr mag/cell
     absolute magnetization    =     4.12 Bohr mag/cell

     iteration #  5     ecut=   100.00 Ry     beta= 0.70
     Davidson diagonalization with overlap
     ethr =  1.35E-03,  avg # of iterations =  2.0

     total cpu time spent up to now is      234.4 secs

     total energy              =    -810.68125476 Ry
     Harris-Foulkes estimate   =    -810.72591523 Ry
     estimated scf accuracy    <       0.13306302 Ry

     total magnetization       =     4.00 Bohr mag/cell
     absolute magnetization    =     4.13 Bohr mag/cell

     iteration #  6     ecut=   100.00 Ry     beta= 0.70
     Davidson diagonalization with overlap
     ethr =  6.65E-05,  avg # of iterations =  7.0

     total cpu time spent up to now is      279.7 secs

     total energy              =    -810.69163548 Ry
     Harris-Foulkes estimate   =    -810.73112210 Ry
     estimated scf accuracy    <       0.74273432 Ry

     total magnetization       =     4.00 Bohr mag/cell
     absolute magnetization    =     4.12 Bohr mag/cell

     iteration #  7     ecut=   100.00 Ry     beta= 0.70
     Davidson diagonalization with overlap
     ethr =  6.65E-05,  avg # of iterations =  1.5

     total cpu time spent up to now is      312.7 secs

     total energy              =    -810.64818588 Ry
     Harris-Foulkes estimate   =    -810.70534086 Ry
     estimated scf accuracy    <       0.41022579 Ry

     total magnetization       =     4.00 Bohr mag/cell
     absolute magnetization    =     4.13 Bohr mag/cell

     iteration #  8     ecut=   100.00 Ry     beta= 0.70
     Davidson diagonalization with overlap
     ethr =  6.65E-05,  avg # of iterations =  2.0

     total cpu time spent up to now is      347.5 secs

     total energy              =    -810.67589954 Ry
     Harris-Foulkes estimate   =    -810.68477811 Ry
     estimated scf accuracy    <       0.08973763 Ry

     total magnetization       =     4.00 Bohr mag/cell
     absolute magnetization    =     4.13 Bohr mag/cell

     iteration #  9     ecut=   100.00 Ry     beta= 0.70
     Davidson diagonalization with overlap
     ethr =  4.49E-05,  avg # of iterations =  1.5

     total cpu time spent up to now is      379.4 secs

     total energy              =    -810.68320878 Ry
     Harris-Foulkes estimate   =    -810.68168417 Ry
     estimated scf accuracy    <       0.01042417 Ry

     total magnetization       =     4.00 Bohr mag/cell
     absolute magnetization    =     4.12 Bohr mag/cell

     iteration # 10     ecut=   100.00 Ry     beta= 0.70
     Davidson diagonalization with overlap
     ethr =  5.21E-06,  avg # of iterations =  4.5

     total cpu time spent up to now is      416.8 secs

     total energy              =    -810.68262362 Ry
     Harris-Foulkes estimate   =    -810.68502590 Ry
     estimated scf accuracy    <       0.03643995 Ry

     total magnetization       =     4.00 Bohr mag/cell
     absolute magnetization    =     4.10 Bohr mag/cell

     iteration # 11     ecut=   100.00 Ry     beta= 0.70
     Davidson diagonalization with overlap
     ethr =  5.21E-06,  avg # of iterations =  2.5

     total cpu time spent up to now is      451.3 secs

     total energy              =    -810.68491595 Ry
     Harris-Foulkes estimate   =    -810.68442879 Ry
     estimated scf accuracy    <       0.00139492 Ry

     total magnetization       =     4.00 Bohr mag/cell
     absolute magnetization    =     4.10 Bohr mag/cell

     iteration # 12     ecut=   100.00 Ry     beta= 0.70
     Davidson diagonalization with overlap
     ethr =  6.97E-07,  avg # of iterations =  3.5

     total cpu time spent up to now is      485.5 secs

     total energy              =    -810.68539153 Ry
     Harris-Foulkes estimate   =    -810.68500119 Ry
     estimated scf accuracy    <       0.00036132 Ry

     total magnetization       =     4.00 Bohr mag/cell
     absolute magnetization    =     4.10 Bohr mag/cell

     iteration # 13     ecut=   100.00 Ry     beta= 0.70
     Davidson diagonalization with overlap
     ethr =  1.81E-07,  avg # of iterations =  3.0

     total cpu time spent up to now is      525.3 secs

     total energy              =    -810.68548523 Ry
     Harris-Foulkes estimate   =    -810.68542173 Ry
     estimated scf accuracy    <       0.00009230 Ry

     total magnetization       =     4.00 Bohr mag/cell
     absolute magnetization    =     4.10 Bohr mag/cell

     iteration # 14     ecut=   100.00 Ry     beta= 0.70
     Davidson diagonalization with overlap
     ethr =  4.61E-08,  avg # of iterations =  3.0

     total cpu time spent up to now is      559.9 secs

     total energy              =    -810.68550620 Ry
     Harris-Foulkes estimate   =    -810.68549293 Ry
     estimated scf accuracy    <       0.00002895 Ry

     total magnetization       =     4.00 Bohr mag/cell
     absolute magnetization    =     4.10 Bohr mag/cell

     iteration # 15     ecut=   100.00 Ry     beta= 0.70
     Davidson diagonalization with overlap
     ethr =  1.45E-08,  avg # of iterations =  2.5

     total cpu time spent up to now is      595.4 secs

     total energy              =    -810.68551247 Ry
     Harris-Foulkes estimate   =    -810.68550813 Ry
     estimated scf accuracy    <       0.00000964 Ry

     total magnetization       =     4.00 Bohr mag/cell
     absolute magnetization    =     4.10 Bohr mag/cell

     iteration # 16     ecut=   100.00 Ry     beta= 0.70
     Davidson diagonalization with overlap
     ethr =  4.82E-09,  avg # of iterations =  3.0

     total cpu time spent up to now is      637.4 secs

     total energy              =    -810.68551381 Ry
     Harris-Foulkes estimate   =    -810.68551374 Ry
     estimated scf accuracy    <       0.00000688 Ry

     total magnetization       =     4.00 Bohr mag/cell
     absolute magnetization    =     4.10 Bohr mag/cell

     iteration # 17     ecut=   100.00 Ry     beta= 0.70
     Davidson diagonalization with overlap
     ethr =  3.44E-09,  avg # of iterations =  1.5

     total cpu time spent up to now is      677.4 secs

     total energy              =    -810.68551488 Ry
     Harris-Foulkes estimate   =    -810.68551428 Ry
     estimated scf accuracy    <       0.00000340 Ry

     total magnetization       =     4.00 Bohr mag/cell
     absolute magnetization    =     4.10 Bohr mag/cell

     iteration # 18     ecut=   100.00 Ry     beta= 0.70
     Davidson diagonalization with overlap
     ethr =  1.70E-09,  avg # of iterations =  2.5
 
     Magnetic moment per site:
     atom:    1    charge:    7.5196    magn:    1.2592    constr:    0.0000
     atom:    2    charge:    7.5199    magn:    1.2595    constr:    0.0000
     atom:    3    charge:    3.1214    magn:    0.0530    constr:    0.0000
     atom:    4    charge:    3.1183    magn:    0.0530    constr:    0.0000
     atom:    5    charge:    3.1196    magn:    0.0537    constr:    0.0000
     atom:    6    charge:    3.1205    magn:    0.0537    constr:    0.0000
     atom:    7    charge:    3.1293    magn:    0.0507    constr:    0.0000
     atom:    8    charge:    3.1285    magn:    0.0507    constr:    0.0000
     atom:    9    charge:    3.1278    magn:    0.0529    constr:    0.0000
     atom:   10    charge:    3.1271    magn:    0.0529    constr:    0.0000
     atom:   11    charge:    2.4097    magn:    0.0143    constr:    0.0000
     atom:   12    charge:    2.4116    magn:    0.0143    constr:    0.0000
     atom:   13    charge:    2.4038    magn:    0.0134    constr:    0.0000
     atom:   14    charge:    2.4029    magn:    0.0134    constr:    0.0000
     atom:   15    charge:    0.5999    magn:    0.0036    constr:    0.0000
     atom:   16    charge:    0.5992    magn:    0.0036    constr:    0.0000
     atom:   17    charge:    0.4555    magn:   -0.0007    constr:    0.0000
     atom:   18    charge:    0.4554    magn:   -0.0007    constr:    0.0000
     atom:   19    charge:    0.5735    magn:    0.0039    constr:    0.0000
     atom:   20    charge:    0.5742    magn:    0.0039    constr:    0.0000
     atom:   21    charge:    0.5988    magn:    0.0038    constr:    0.0000
     atom:   22    charge:    0.5986    magn:    0.0038    constr:    0.0000
     atom:   23    charge:    0.4555    magn:   -0.0008    constr:    0.0000
     atom:   24    charge:    0.4561    magn:   -0.0008    constr:    0.0000
     atom:   25    charge:    0.6004    magn:    0.0036    constr:    0.0000
     atom:   26    charge:    0.5998    magn:    0.0036    constr:    0.0000
     atom:   27    charge:    0.4562    magn:   -0.0007    constr:    0.0000
     atom:   28    charge:    0.4559    magn:   -0.0007    constr:    0.0000
     atom:   29    charge:    0.5923    magn:    0.0032    constr:    0.0000
     atom:   30    charge:    0.5914    magn:    0.0032    constr:    0.0000
     atom:   31    charge:    0.4597    magn:   -0.0005    constr:    0.0000
     atom:   32    charge:    0.4596    magn:   -0.0005    constr:    0.0000
     atom:   33    charge:    0.5935    magn:    0.0033    constr:    0.0000
     atom:   34    charge:    0.5921    magn:    0.0033    constr:    0.0000
     atom:   35    charge:    0.4599    magn:   -0.0006    constr:    0.0000
     atom:   36    charge:    0.4598    magn:   -0.0006    constr:    0.0000
     atom:   37    charge:    0.5950    magn:    0.0032    constr:    0.0000
     atom:   38    charge:    0.5949    magn:    0.0032    constr:    0.0000
     atom:   39    charge:    0.4586    magn:   -0.0004    constr:    0.0000
     atom:   40    charge:    0.4586    magn:   -0.0004    constr:    0.0000
     atom:   41    charge:    0.5915    magn:    0.0033    constr:    0.0000
     atom:   42    charge:    0.5913    magn:    0.0033    constr:    0.0000
     atom:   43    charge:    0.4577    magn:   -0.0004    constr:    0.0000
     atom:   44    charge:    0.4570    magn:   -0.0004    constr:    0.0000
     atom:   45    charge:    0.5979    magn:    0.0036    constr:    0.0000
     atom:   46    charge:    0.5981    magn:    0.0036    constr:    0.0000
     atom:   47    charge:    0.4561    magn:   -0.0008    constr:    0.0000
     atom:   48    charge:    0.4566    magn:   -0.0008    constr:    0.0000
     atom:   49    charge:    0.5730    magn:    0.0038    constr:    0.0000
     atom:   50    charge:    0.5741    magn:    0.0038    constr:    0.0000
     atom:   51    charge:    0.5602    magn:   -0.0013    constr:    0.0000
     atom:   52    charge:    0.5597    magn:   -0.0013    constr:    0.0000
     atom:   53    charge:    0.5596    magn:   -0.0012    constr:    0.0000
     atom:   54    charge:    0.5600    magn:   -0.0012    constr:    0.0000

     total cpu time spent up to now is      714.9 secs

     End of self-consistent calculation

 ------ SPIN UP ------------


          k = 0.0000 0.0000 0.0000 ( 45819 PWs)   bands (ev):

   -22.6624 -22.6600 -22.5619 -22.5599 -19.9632 -19.9631 -19.9423 -19.9411
   -19.4054 -19.3915 -19.2803 -19.2728 -15.5796 -15.5124 -15.5073 -15.4799
   -14.6074 -14.5708 -14.5672 -14.5230 -11.7733 -11.7223 -11.7002 -11.6693
   -11.4717 -11.4410 -11.4107 -11.3508  -9.9227  -9.6610  -9.6375  -9.5632
    -8.2607  -7.9883  -7.9535  -7.9425  -7.6991  -7.6729  -7.6184  -7.5379
    -7.2950  -7.1781  -7.0214  -6.9626  -6.9113  -6.7457  -6.7172  -6.6696
    -6.6453  -6.6005  -6.4454  -6.4195  -6.3919  -6.3556  -6.2636  -6.1168
    -6.1108  -6.0393  -5.9785  -5.9309  -5.7183  -5.5557  -5.3636  -5.1751
    -4.5702  -4.5029  -4.3572  -4.2961  -4.2694  -4.2679  -4.0705  -4.0584
    -3.7553  -3.4913  -3.3577  -3.2640  -3.2475  -3.2077  -3.1875  -3.1477
    -3.0600  -2.7327  -2.6330  -2.6132  -2.5103  -2.4867  -2.4700  -2.4112
    -2.3792  -2.3316  -2.3046  -2.2856  -2.2261  -2.1468  -2.1078  -2.0668
    -2.0168  -1.9172  -0.5975  -0.5759  -0.3396  -0.3183   2.0440   2.0601
     2.0986   2.1390   3.0299   3.1421   3.3182   3.4720   3.4795   4.2663
     4.5055   4.5691   4.7437   4.7770   4.9911   5.3658   5.7329   5.7855
     5.8137   6.1267

 ------ SPIN DOWN ----------


          k = 0.0000 0.0000 0.0000 ( 45819 PWs)   bands (ev):

   -22.5613 -22.5588 -22.4605 -22.4584 -19.8353 -19.8352 -19.8113 -19.8102
   -19.3719 -19.3578 -19.2480 -19.2403 -15.5406 -15.4738 -15.4689 -15.4403
   -14.5733 -14.5365 -14.5330 -14.4888 -11.7278 -11.6804 -11.6590 -11.6295
   -11.4449 -11.4136 -11.3836 -11.3240  -9.8927  -9.6332  -9.6088  -9.5307
    -8.1953  -7.9351  -7.8966  -7.8797  -7.6598  -7.6259  -7.5769  -7.5049
    -7.2671  -7.1433  -6.9833  -6.9246  -6.8031  -6.6502  -6.5967  -6.5469
    -6.5298  -6.5202  -6.3399  -6.2953  -6.2667  -6.2418  -6.1973  -6.0809
    -6.0303  -6.0117  -5.9404  -5.9092  -5.6500  -5.4790  -5.2881  -5.0982
    -4.4315  -4.3072  -4.2770  -4.2389  -4.2314  -3.9082  -3.6079  -3.5901
    -3.2461  -3.1435  -3.0647  -3.0199  -2.7978  -2.7450  -2.6784  -2.6588
    -2.6092  -2.4722  -2.4716  -2.3582  -2.3140  -2.2950  -2.2145  -2.1615
    -2.1479  -2.0097  -1.9810  -1.8288  -1.6055  -1.3710  -1.3585  -1.3311
    -1.3121  -1.2011   0.2524   0.2588   0.4497   0.4685   2.1331   2.1631
     2.2153   2.2287   3.1061   3.2192   3.3970   3.5132   3.5532   4.3122
     4.5520   4.6266   4.8019   4.8488   5.0412   5.4117   5.7759   5.8175
     5.8606   6.2021

     the spin up/dw Fermi energies are     0.0862   -0.2218 ev

!    total energy              =    -810.68551511 Ry
     Harris-Foulkes estimate   =    -810.68551503 Ry
     estimated scf accuracy    <       0.00000071 Ry

     The total energy is the sum of the following terms:

     one-electron contribution =   -1216.55005548 Ry
     hartree contribution      =     678.55008258 Ry
     xc contribution           =    -248.39649458 Ry
     ewald contribution        =     -25.36060033 Ry
     Dispersion Correction     =      -0.20316512 Ry
     smearing contrib. (-TS)   =       1.27471782 Ry

     total magnetization       =     4.00 Bohr mag/cell
     absolute magnetization    =     4.10 Bohr mag/cell

     convergence has been achieved in  18 iterations

     Forces acting on atoms (cartesian axes, Ry/au):

     atom    1 type  1   force =    -0.01097839   -0.00924688   -0.03723478
     atom    2 type  2   force =     0.02016854    0.00811534   -0.00675244
     atom    3 type  4   force =    -0.01555629   -0.03649132   -0.02529680
     atom    4 type  4   force =    -0.01573024    0.03662707   -0.02630732
     atom    5 type  4   force =     0.01569870    0.03986289   -0.01994025
     atom    6 type  4   force =     0.01677200   -0.04011519   -0.02083750
     atom    7 type  4   force =    -0.04214647   -0.04400751   -0.01636722
     atom    8 type  4   force =    -0.04264424    0.04435455   -0.01727799
     atom    9 type  4   force =     0.03692404    0.04794478   -0.01344407
     atom   10 type  4   force =     0.03768290   -0.04769337   -0.01498977
     atom   11 type  5   force =    -0.01997168   -0.01699868    0.01603266
     atom   12 type  5   force =    -0.02052396    0.01620092    0.01608457
     atom   13 type  5   force =    -0.00205022    0.00399469    0.01711156
     atom   14 type  5   force =    -0.00217206   -0.00382030    0.01730272
     atom   15 type  6   force =     0.15795394   -0.07203824    0.17026990
     atom   16 type  6   force =     0.15788096    0.07212220    0.17026329
     atom   17 type  3   force =    -0.16212046    0.09374688   -0.20270766
     atom   18 type  3   force =    -0.16211277   -0.09371679   -0.20269776
     atom   19 type  6   force =     0.01385991    0.01127021    0.01184592
     atom   20 type  6   force =     0.01386033   -0.01115972    0.01193630
     atom   21 type  6   force =    -0.23427910   -0.04743212   -0.08007835
     atom   22 type  6   force =    -0.23407373    0.04754392   -0.08009450
     atom   23 type  3   force =     0.25817484    0.08086941    0.05540533
     atom   24 type  3   force =     0.25817672   -0.08083370    0.05541368
     atom   25 type  6   force =    -0.15342190    0.08565726    0.17208800
     atom   26 type  6   force =    -0.15332388   -0.08567459    0.17196428
     atom   27 type  3   force =     0.17042462   -0.09721077   -0.19374154
     atom   28 type  3   force =     0.17043852    0.09724249   -0.19377018
     atom   29 type  6   force =    -0.22800093   -0.09340764    0.03078430
     atom   30 type  6   force =    -0.22798436    0.09358611    0.03075617
     atom   31 type  3   force =     0.25365731    0.11237690   -0.03357686
     atom   32 type  3   force =     0.25369383   -0.11233546   -0.03359187
     atom   33 type  6   force =     0.22242524    0.08440060    0.04633174
     atom   34 type  6   force =     0.22238091   -0.08447119    0.04640206
     atom   35 type  3   force =    -0.25725745   -0.10844024   -0.03620693
     atom   36 type  3   force =    -0.25722831    0.10843872   -0.03619696
     atom   37 type  6   force =    -0.13070925    0.08638591   -0.17412232
     atom   38 type  6   force =    -0.13061691   -0.08623782   -0.17399079
     atom   39 type  3   force =     0.14208435   -0.11264571    0.21334188
     atom   40 type  3   force =     0.14193503    0.11246987    0.21314431
     atom   41 type  6   force =     0.15567784   -0.07903341   -0.16647043
     atom   42 type  6   force =     0.15554437    0.07928216   -0.16628288
     atom   43 type  3   force =    -0.15084675    0.11850875    0.20176892
     atom   44 type  3   force =    -0.15075955   -0.11816140    0.20162566
     atom   45 type  6   force =     0.24683799    0.06770234   -0.07957181
     atom   46 type  6   force =     0.24670969   -0.06763317   -0.07956913
     atom   47 type  3   force =    -0.25610710   -0.09667361    0.05735574
     atom   48 type  3   force =    -0.25611003    0.09672147    0.05736680
     atom   49 type  6   force =    -0.03538704   -0.01945212    0.00212607
     atom   50 type  6   force =    -0.03530732    0.01938517    0.00216765
     atom   51 type  6   force =    -0.05051039   -0.07832257    0.03158027
     atom   52 type  6   force =    -0.05035122    0.07840943    0.03162561
     atom   53 type  6   force =     0.05972187    0.08214019    0.03954024
     atom   54 type  6   force =     0.05959753   -0.08210673    0.03948246

     Total force =     1.514234     Total SCF correction =     0.001463

     BFGS Geometry Optimization

     number of scf cycles    =   1
     number of bfgs steps    =   0

     energy   new            =    -810.6855151064 Ry

     new trust radius        =       0.2815166474 bohr
     new conv_thr            =       0.0000010000 Ry


ATOMIC_POSITIONS (crystal)
Ni1           0.4938010898        0.7535692726        0.8375122209
Ni2           0.9964942134        0.2463829142        0.3390822155
O             0.2399360401        0.3480780564        0.3915970872
O             0.7399194240        0.6519276795        0.8915450404
O             0.7561912058        0.1347644095        0.3691729767
O             0.2562803576        0.8652249296        0.8691267637
O             0.9333024421        0.3503704593        0.4964570057
O             0.4332586079        0.6496442049        0.9964100965
O             0.0695996943        0.1218259104        0.4735075627
O             0.5696610184        0.8781847131        0.9734279514
N             0.6262398446        0.8421817194        0.6970257631
N             0.1261932025        0.1577845710        0.1970284364
N             0.3609585683        0.6462687959        0.7159813316
N             0.8609486153        0.3537385728        0.2159911772
C             0.6014869190        0.9562560189        0.5221697585
C             0.1014807304        0.0437475291        0.0221694182
H             0.4860996547        0.9901612816        0.4336595335
H            -0.0138996757        0.0098399902        0.9336600435
C             0.7943951781        0.9984762236        0.5343101249
C             0.2943953827        0.0015284453        0.0343147795
C             0.8971227329        0.9525957523        0.6312755612
C             0.3971400828        0.0474089720        0.1312747293
H             0.0821533197        0.9812171429        0.6533536538
H             0.5821534940        0.0187843660        0.1533540839
C             0.3950384532        0.5227194539        0.5529633999
C             0.8950465169        0.4772798137        0.0529570275
H             0.5091599003        0.4868923517        0.4678213339
H             1.0091610227        0.5131089886        0.9678198586
C             0.4610618926        0.5992530531        0.6232855467
C             0.9610632426        0.4007544878        0.1232840978
H             0.6405041827        0.6360484943        0.6061706226
H             0.1405072449        0.3639532566        0.1061698491
C             0.5304108048        0.8844663538        0.5973863183
C             0.0304071847        0.1155306638        0.0973899401
H             0.3502603113        0.8484178497        0.5772351606
H             0.8502627964        0.1515820861        0.0772356739
C             0.8171115885        0.8813502431        0.7047318224
C             0.3171196498        0.1186560146        0.2047385971
H             0.9257246169        0.8435401470        0.7935881823
H             0.4257116088        0.1564524226        0.2935780069
C             0.1773629993        0.6011604374        0.7260259333
C             0.6773520552        0.3988500737        0.2260355932
H             0.0669120325        0.6396075958        0.8110921166
H             0.5669191437        0.3604070812        0.3110847381
C             0.1033408331        0.5231607675        0.6585016506
C             0.6033299802        0.4768421555        0.1585017886
H             0.9230330696        0.4884150493        0.6820541098
H             0.4230328423        0.5115869730        0.1820546796
C             0.2049091654        0.4761780493        0.5647095034
C             0.7049159900        0.5238191220        0.0647116451
C             0.8737844876        0.0859904738        0.4566265432
C             0.3737980431        0.9140131963        0.9566288783
C             0.1271284150        0.3896708400        0.4835365216
C             0.6271177833        0.6103305742        0.9835335456



     Writing output data file ./NiPyC2_P1_relax.save/
     NEW-OLD atomic charge density approx. for the potential

     Check: negative core charge=   -0.000145

     total cpu time spent up to now is      777.7 secs

     Self-consistent Calculation

     iteration #  1     ecut=   100.00 Ry     beta= 0.70
     Davidson diagonalization with overlap
     ethr =  1.00E-06,  avg # of iterations = 16.0

     total cpu time spent up to now is      979.5 secs

     total energy              =    -810.30238224 Ry
     Harris-Foulkes estimate   =    -810.50409023 Ry
     estimated scf accuracy    <       0.59931444 Ry

     total magnetization       =     4.00 Bohr mag/cell
     absolute magnetization    =     4.06 Bohr mag/cell

     iteration #  2     ecut=   100.00 Ry     beta= 0.70
     Davidson diagonalization with overlap
     ethr =  3.00E-04,  avg # of iterations =  2.0

     total cpu time spent up to now is     1021.1 secs

     total energy              =    -810.30973735 Ry
     Harris-Foulkes estimate   =    -810.34559388 Ry
     estimated scf accuracy    <       0.08622485 Ry

     total magnetization       =     4.00 Bohr mag/cell
     absolute magnetization    =     4.06 Bohr mag/cell

     iteration #  3     ecut=   100.00 Ry     beta= 0.70
     Davidson diagonalization with overlap
     ethr =  4.31E-05,  avg # of iterations =  2.0

     total cpu time spent up to now is     1093.9 secs

     total energy              =    -810.31423416 Ry
     Harris-Foulkes estimate   =    -810.32896866 Ry
     estimated scf accuracy    <       0.07685917 Ry

     total magnetization       =     4.00 Bohr mag/cell
     absolute magnetization    =     4.06 Bohr mag/cell

     iteration #  4     ecut=   100.00 Ry     beta= 0.70
     Davidson diagonalization with overlap
     ethr =  3.84E-05,  avg # of iterations =  1.5

     total cpu time spent up to now is     1149.8 secs

     total energy              =    -810.31951806 Ry
     Harris-Foulkes estimate   =    -810.32697788 Ry
     estimated scf accuracy    <       0.08161803 Ry

     total magnetization       =     4.00 Bohr mag/cell
     absolute magnetization    =     4.06 Bohr mag/cell

     iteration #  5     ecut=   100.00 Ry     beta= 0.70
     Davidson diagonalization with overlap
     ethr =  3.84E-05,  avg # of iterations =  1.0

     total cpu time spent up to now is     1191.7 secs

     total energy              =    -810.32272681 Ry
     Harris-Foulkes estimate   =    -810.32356720 Ry
     estimated scf accuracy    <       0.00928038 Ry

     total magnetization       =     4.00 Bohr mag/cell
     absolute magnetization    =     4.06 Bohr mag/cell

     iteration #  6     ecut=   100.00 Ry     beta= 0.70
     Davidson diagonalization with overlap
     ethr =  4.64E-06,  avg # of iterations =  1.0

     total cpu time spent up to now is     1229.8 secs

     total energy              =    -810.32309598 Ry
     Harris-Foulkes estimate   =    -810.32334744 Ry
     estimated scf accuracy    <       0.00246992 Ry

     total magnetization       =     4.00 Bohr mag/cell
     absolute magnetization    =     4.06 Bohr mag/cell

     iteration #  7     ecut=   100.00 Ry     beta= 0.70
     Davidson diagonalization with overlap
     ethr =  1.23E-06,  avg # of iterations =  1.0

     total cpu time spent up to now is     1272.9 secs

     total energy              =    -810.32321596 Ry
     Harris-Foulkes estimate   =    -810.32324385 Ry
     estimated scf accuracy    <       0.00036783 Ry

     total magnetization       =     4.00 Bohr mag/cell
     absolute magnetization    =     4.06 Bohr mag/cell

     iteration #  8     ecut=   100.00 Ry     beta= 0.70
     Davidson diagonalization with overlap
     ethr =  1.84E-07,  avg # of iterations =  2.5

     total cpu time spent up to now is     1316.2 secs

     total energy              =    -810.32323816 Ry
     Harris-Foulkes estimate   =    -810.32324113 Ry
     estimated scf accuracy    <       0.00015670 Ry

     total magnetization       =     4.00 Bohr mag/cell
     absolute magnetization    =     4.07 Bohr mag/cell

     iteration #  9     ecut=   100.00 Ry     beta= 0.70
     Davidson diagonalization with overlap
     ethr =  7.83E-08,  avg # of iterations =  2.5

     total cpu time spent up to now is     1371.5 secs

     total energy              =    -810.32325382 Ry
     Harris-Foulkes estimate   =    -810.32325402 Ry
     estimated scf accuracy    <       0.00004794 Ry

     total magnetization       =     4.00 Bohr mag/cell
     absolute magnetization    =     4.07 Bohr mag/cell

     iteration # 10     ecut=   100.00 Ry     beta= 0.70
     Davidson diagonalization with overlap
     ethr =  2.40E-08,  avg # of iterations =  2.0

     total cpu time spent up to now is     1423.6 secs

     total energy              =    -810.32325896 Ry
     Harris-Foulkes estimate   =    -810.32325732 Ry
     estimated scf accuracy    <       0.00002233 Ry

     total magnetization       =     4.00 Bohr mag/cell
     absolute magnetization    =     4.07 Bohr mag/cell

     iteration # 11     ecut=   100.00 Ry     beta= 0.70
     Davidson diagonalization with overlap
     ethr =  1.12E-08,  avg # of iterations =  2.0

     total cpu time spent up to now is     1475.1 secs

     total energy              =    -810.32326093 Ry
     Harris-Foulkes estimate   =    -810.32325996 Ry
     estimated scf accuracy    <       0.00001056 Ry

     total magnetization       =     4.00 Bohr mag/cell
     absolute magnetization    =     4.07 Bohr mag/cell

     iteration # 12     ecut=   100.00 Ry     beta= 0.70
     Davidson diagonalization with overlap
     ethr =  5.28E-09,  avg # of iterations =  3.0

     total cpu time spent up to now is     1527.1 secs

     total energy              =    -810.32326152 Ry
     Harris-Foulkes estimate   =    -810.32326158 Ry
     estimated scf accuracy    <       0.00000287 Ry

     total magnetization       =     4.00 Bohr mag/cell
     absolute magnetization    =     4.07 Bohr mag/cell

     iteration # 13     ecut=   100.00 Ry     beta= 0.70
     Davidson diagonalization with overlap
     ethr =  1.43E-09,  avg # of iterations =  2.5
 
     Magnetic moment per site:
     atom:    1    charge:    7.5100    magn:    1.2015    constr:    0.0000
     atom:    2    charge:    7.5108    magn:    1.2032    constr:    0.0000
     atom:    3    charge:    3.1041    magn:    0.0502    constr:    0.0000
     atom:    4    charge:    3.0998    magn:    0.0515    constr:    0.0000
     atom:    5    charge:    3.1000    magn:    0.0531    constr:    0.0000
     atom:    6    charge:    3.1013    magn:    0.0528    constr:    0.0000
     atom:    7    charge:    3.0896    magn:    0.0600    constr:    0.0000
     atom:    8    charge:    3.0883    magn:    0.0612    constr:    0.0000
     atom:    9    charge:    3.0921    magn:    0.0608    constr:    0.0000
     atom:   10    charge:    3.0905    magn:    0.0619    constr:    0.0000
     atom:   11    charge:    2.4753    magn:    0.0151    constr:    0.0000
     atom:   12    charge:    2.4769    magn:    0.0152    constr:    0.0000
     atom:   13    charge:    2.4742    magn:    0.0148    constr:    0.0000
     atom:   14    charge:    2.4717    magn:    0.0151    constr:    0.0000
     atom:   15    charge:    0.5685    magn:    0.0040    constr:    0.0000
     atom:   16    charge:    0.5676    magn:    0.0040    constr:    0.0000
     atom:   17    charge:    0.3537    magn:    0.0015    constr:    0.0000
     atom:   18    charge:    0.3536    magn:    0.0015    constr:    0.0000
     atom:   19    charge:    0.6080    magn:    0.0036    constr:    0.0000
     atom:   20    charge:    0.6087    magn:    0.0036    constr:    0.0000
     atom:   21    charge:    0.5682    magn:    0.0038    constr:    0.0000
     atom:   22    charge:    0.5679    magn:    0.0039    constr:    0.0000
     atom:   23    charge:    0.3524    magn:    0.0017    constr:    0.0000
     atom:   24    charge:    0.3528    magn:    0.0017    constr:    0.0000
     atom:   25    charge:    0.5675    magn:    0.0039    constr:    0.0000
     atom:   26    charge:    0.5669    magn:    0.0040    constr:    0.0000
     atom:   27    charge:    0.3528    magn:    0.0016    constr:    0.0000
     atom:   28    charge:    0.3526    magn:    0.0016    constr:    0.0000
     atom:   29    charge:    0.5623    magn:    0.0032    constr:    0.0000
     atom:   30    charge:    0.5613    magn:    0.0032    constr:    0.0000
     atom:   31    charge:    0.3589    magn:    0.0018    constr:    0.0000
     atom:   32    charge:    0.3587    magn:    0.0018    constr:    0.0000
     atom:   33    charge:    0.5633    magn:    0.0033    constr:    0.0000
     atom:   34    charge:    0.5619    magn:    0.0033    constr:    0.0000
     atom:   35    charge:    0.3609    magn:    0.0017    constr:    0.0000
     atom:   36    charge:    0.3608    magn:    0.0018    constr:    0.0000
     atom:   37    charge:    0.5647    magn:    0.0040    constr:    0.0000
     atom:   38    charge:    0.5646    magn:    0.0040    constr:    0.0000
     atom:   39    charge:    0.3573    magn:    0.0024    constr:    0.0000
     atom:   40    charge:    0.3574    magn:    0.0024    constr:    0.0000
     atom:   41    charge:    0.5643    magn:    0.0038    constr:    0.0000
     atom:   42    charge:    0.5639    magn:    0.0038    constr:    0.0000
     atom:   43    charge:    0.3554    magn:    0.0022    constr:    0.0000
     atom:   44    charge:    0.3547    magn:    0.0023    constr:    0.0000
     atom:   45    charge:    0.5628    magn:    0.0037    constr:    0.0000
     atom:   46    charge:    0.5627    magn:    0.0037    constr:    0.0000
     atom:   47    charge:    0.3486    magn:    0.0018    constr:    0.0000
     atom:   48    charge:    0.3489    magn:    0.0018    constr:    0.0000
     atom:   49    charge:    0.6070    magn:    0.0036    constr:    0.0000
     atom:   50    charge:    0.6082    magn:    0.0036    constr:    0.0000
     atom:   51    charge:    0.5479    magn:   -0.0017    constr:    0.0000
     atom:   52    charge:    0.5474    magn:   -0.0018    constr:    0.0000
     atom:   53    charge:    0.5468    magn:   -0.0016    constr:    0.0000
     atom:   54    charge:    0.5470    magn:   -0.0017    constr:    0.0000

     total cpu time spent up to now is     1574.3 secs

     End of self-consistent calculation

 ------ SPIN UP ------------


          k = 0.0000 0.0000 0.0000 ( 45819 PWs)   bands (ev):

   -22.3325 -22.3160 -22.2303 -22.2156 -20.6435 -20.6192 -20.5685 -20.5548
   -19.5668 -19.5597 -19.5528 -19.5361 -16.6079 -16.5474 -16.5437 -16.5191
   -14.3983 -14.3671 -14.3417 -14.3133 -12.5158 -12.3891 -12.3501 -12.3236
   -10.9731 -10.9467 -10.9186 -10.8540  -9.6544  -9.5161  -9.5044  -9.4045
    -8.6092  -8.2732  -8.2309  -8.1869  -8.1223  -8.1037  -7.8422  -7.7322
    -7.2300  -7.1236  -7.1059  -7.0165  -6.8665  -6.7464  -6.6876  -6.5143
    -6.4695  -6.3666  -6.3451  -6.2494  -6.2301  -6.0067  -5.7470  -5.5156
    -5.0698  -5.0337  -4.9523  -4.9167  -4.8629  -4.7127  -4.6363  -4.5800
    -4.5213  -4.4378  -4.3501  -4.2845  -3.9132  -3.8565  -3.8042  -3.7517
    -3.6304  -3.4498  -3.3976  -3.3675  -3.3575  -3.0871  -2.9906  -2.9097
    -2.8802  -2.7771  -2.7215  -2.7139  -2.6945  -2.6487  -2.6093  -2.5460
    -2.4817  -2.4292  -2.3281  -2.3159  -2.2807  -2.2757  -2.2321  -2.1793
    -2.1467  -2.1141  -0.6723  -0.6245  -0.5212  -0.5130   1.6940   1.7560
     1.7721   1.8585   3.3021   3.8593   3.9558   4.0621   4.1174   4.3173
     4.3312   4.5001   4.5804   4.7043   4.8153   5.0725   5.1779   5.3610
     5.4716   5.5062

 ------ SPIN DOWN ----------


          k = 0.0000 0.0000 0.0000 ( 45819 PWs)   bands (ev):

   -22.2255 -22.2072 -22.1238 -22.1081 -20.6088 -20.5838 -20.5335 -20.5192
   -19.4242 -19.4149 -19.4118 -19.3932 -16.5690 -16.5090 -16.5049 -16.4796
   -14.3560 -14.3247 -14.2982 -14.2698 -12.4735 -12.3483 -12.3106 -12.2811
   -10.9345 -10.9080 -10.8807 -10.8166  -9.6116  -9.4740  -9.4619  -9.3636
    -8.5475  -8.2334  -8.1851  -8.1431  -8.0823  -8.0299  -7.7654  -7.6429
    -7.1401  -7.0021  -6.9827  -6.9266  -6.7634  -6.6560  -6.6137  -6.4492
    -6.3309  -6.2397  -6.1977  -6.1428  -6.1133  -5.9057  -5.6491  -5.4256
    -5.0259  -4.9160  -4.8954  -4.8705  -4.7589  -4.5915  -4.5106  -4.4989
    -4.4499  -4.1722  -3.9601  -3.9377  -3.7132  -3.6008  -3.5656  -3.2817
    -3.1948  -3.1907  -3.1215  -2.9062  -2.8572  -2.8319  -2.7972  -2.7533
    -2.6054  -2.5698  -2.5106  -2.4286  -2.4222  -2.3688  -2.3100  -2.2303
    -2.1743  -2.0950  -2.0543  -2.0203  -1.8335  -1.5566  -1.5215  -1.5206
    -1.5071  -1.3979   0.1307   0.1532   0.2469   0.2741   1.8000   1.8440
     1.8905   1.9487   3.3338   3.9239   4.0093   4.1134   4.1829   4.3497
     4.4011   4.5558   4.6481   4.7502   4.8786   5.1202   5.2398   5.3941
     5.5007   5.5557

     the spin up/dw Fermi energies are    -0.1014   -0.3958 ev

!    total energy              =    -810.32326156 Ry
     Harris-Foulkes estimate   =    -810.32326173 Ry
     estimated scf accuracy    <       0.00000100 Ry

     The total energy is the sum of the following terms:

     one-electron contribution =   -1231.72182212 Ry
     hartree contribution      =     685.53231118 Ry
     xc contribution           =    -247.31859474 Ry
     ewald contribution        =     -18.08278810 Ry
     Dispersion Correction     =      -0.20008713 Ry
     smearing contrib. (-TS)   =       1.46771934 Ry

     total magnetization       =     4.00 Bohr mag/cell
     absolute magnetization    =     4.07 Bohr mag/cell

     convergence has been achieved in  13 iterations

     Forces acting on atoms (cartesian axes, Ry/au):

     atom    1 type  1   force =    -0.00215775   -0.00534537   -0.01006793
     atom    2 type  2   force =     0.02941253    0.00626412    0.01824151
     atom    3 type  4   force =    -0.03997030    0.00076843    0.02401639
     atom    4 type  4   force =    -0.04169870   -0.00177660    0.02471874
     atom    5 type  4   force =     0.04247208   -0.00177942    0.02670774
     atom    6 type  4   force =     0.04157586    0.00186172    0.02497630
     atom    7 type  4   force =     0.07652095    0.00806087   -0.02783188
     atom    8 type  4   force =     0.07624588   -0.00860678   -0.02835772
     atom    9 type  4   force =    -0.07095286    0.00088412   -0.02546035
     atom   10 type  4   force =    -0.07341616    0.00009011   -0.02669931
     atom   11 type  5   force =    -0.02864002   -0.05202703    0.05757257
     atom   12 type  5   force =    -0.02723740    0.05175626    0.05904124
     atom   13 type  5   force =     0.03771813    0.06370224    0.04466579
     atom   14 type  5   force =     0.03919753   -0.06461775    0.04649732
     atom   15 type  6   force =    -0.15306929    0.19360712   -0.32302452
     atom   16 type  6   force =    -0.15303601   -0.19380327   -0.32332279
     atom   17 type  3   force =     0.06396990   -0.04448480    0.09071536
     atom   18 type  3   force =     0.06398087    0.04448172    0.09074812
     atom   19 type  6   force =     0.02233374    0.09700736   -0.08604608
     atom   20 type  6   force =     0.02220332   -0.09708419   -0.08600202
     atom   21 type  6   force =     0.37985344    0.15990660    0.03105564
     atom   22 type  6   force =     0.37982821   -0.15993578    0.03111517
     atom   23 type  3   force =    -0.11407580   -0.03902555   -0.01694665
     atom   24 type  3   force =    -0.11404961    0.03902619   -0.01695262
     atom   25 type  6   force =     0.14069680   -0.23087082   -0.31715643
     atom   26 type  6   force =     0.14062137    0.23125803   -0.31752167
     atom   27 type  3   force =    -0.06675141    0.04802770    0.08674340
     atom   28 type  3   force =    -0.06673072   -0.04794926    0.08666636
     atom   29 type  6   force =     0.36681829    0.24876452    0.03008173
     atom   30 type  6   force =     0.36611870   -0.24969332    0.03158745
     atom   31 type  3   force =    -0.10962943   -0.04913245    0.01311086
     atom   32 type  3   force =    -0.10949182    0.04914564    0.01308049
     atom   33 type  6   force =    -0.37503038   -0.22444267    0.01755434
     atom   34 type  6   force =    -0.37543657    0.22484854    0.01805815
     atom   35 type  3   force =     0.10535497    0.04985125    0.01712025
     atom   36 type  3   force =     0.10536552   -0.04983501    0.01720451
     atom   37 type  6   force =     0.12795411   -0.21332387    0.32280041
     atom   38 type  6   force =     0.12740012    0.21278030    0.32185510
     atom   39 type  3   force =    -0.05531090    0.05061518   -0.08483365
     atom   40 type  3   force =    -0.05512616   -0.05056112   -0.08477365
     atom   41 type  6   force =    -0.16029203    0.21822719    0.30783144
     atom   42 type  6   force =    -0.15876064   -0.21909214    0.30789203
     atom   43 type  3   force =     0.05969906   -0.04893635   -0.08042473
     atom   44 type  3   force =     0.05953218    0.04903226   -0.08025468
     atom   45 type  6   force =    -0.37140886   -0.18758283    0.03877474
     atom   46 type  6   force =    -0.37153936    0.18794380    0.03847256
     atom   47 type  3   force =     0.11298854    0.05019901   -0.01922023
     atom   48 type  3   force =     0.11291379   -0.05013926   -0.01925351
     atom   49 type  6   force =     0.00516870   -0.08386314   -0.08553021
     atom   50 type  6   force =     0.00493065    0.08379249   -0.08515349
     atom   51 type  6   force =     0.04602320    0.04413950   -0.02184120
     atom   52 type  6   force =     0.04908958   -0.04452988   -0.02105502
     atom   53 type  6   force =    -0.05635834   -0.04738420   -0.02427239
     atom   54 type  6   force =    -0.05581750    0.04978062   -0.02690303

     Total force =     1.786143     Total SCF correction =     0.001320

     number of scf cycles    =   2
     number of bfgs steps    =   1

     energy   old            =    -810.6855151064 Ry
     energy   new            =    -810.3232615630 Ry

     CASE: energy  _new > energy  _old

     new trust radius        =       0.1215541237 bohr
     new conv_thr            =       0.0000010000 Ry


ATOMIC_POSITIONS (crystal)
Ni1           0.4943686875        0.7537912905        0.8386019355
Ni2           0.9955315327        0.2461880645        0.3392798325
O             0.2407110652        0.3489542149        0.3923374243
O             0.7407038907        0.6510482618        0.8923149514
O             0.7554575208        0.1338072995        0.3697565487
O             0.2554960150        0.8661880973        0.8697365947
O             0.9353466354        0.3514270818        0.4969360093
O             0.4353277085        0.6485792500        0.9969157547
O             0.0678383955        0.1206747538        0.4739010173
O             0.5678648743        0.8793298332        0.9738666425
N             0.6271831730        0.8425898586        0.6965565505
N             0.1271630337        0.1573955862        0.1965577048
N             0.3610389322        0.6461728832        0.7154805441
N             0.8610346346        0.3538302985        0.2154847952
C             0.5937097800        0.9579856605        0.5171866333
C             0.0937071079        0.0420158715        0.0171864864
H             0.4941117096        0.9879104143        0.4395919833
H            -0.0058880013        0.0120901348        0.9395922035
C             0.7937160577        0.9982056253        0.5339634416
C             0.2937161460        0.0017963907        0.0339654514
C             0.9084741542        0.9537345998        0.6336191371
C             0.4084816456        0.0462674401        0.1336187779
H             0.0696790719        0.9792754645        0.6517321594
H             0.5696791471        0.0207251870        0.1517323451
C             0.4022329584        0.5206628189        0.5479270661
C             0.9022364402        0.4793368648        0.0479243146
H             0.5011708270        0.4892263870        0.4734913809
H             1.0011713116        0.5107741917        0.9734907439
C             0.4719933108        0.6014957751        0.6223846122
C             0.9719938937        0.3985074809        0.1223839866
H             0.6283419638        0.6333503195        0.6071532841
H             0.1283432860        0.3666504365        0.1071529501
C             0.5196653654        0.8824398912        0.5960303719
C             0.0196638023        0.1175588210        0.0960319357
H             0.3626699921        0.8510215050        0.5782947939
H             0.8626710651        0.1489784672        0.0782950155
C             0.8235826766        0.8792761132        0.7098276927
C             0.3235861574        0.1207265888        0.2098306179
H             0.9186647393        0.8462447760        0.7873445112
H             0.4186591226        0.1537520156        0.2873401176
C             0.1700540254        0.6030580334        0.7308978631
C             0.6700492999        0.3969465051        0.2309020341
H             0.0739510853        0.6367621951        0.8051871401
H             0.5739541558        0.3632441422        0.3051839541
C             0.0915555407        0.5215352310        0.6608304021
C             0.5915508546        0.4784660311        0.1608304617
H             0.9352877645        0.4907361874        0.6803755346
H             0.4352876663        0.5092646858        0.1803757806
C             0.2066086083        0.4766450956        0.5646472817
C             0.7066115550        0.5233536830        0.0646482065
C             0.8761798131        0.0878710026        0.4557023138
C             0.3761856661        0.9121305821        0.9557033221
C             0.1242143628        0.3876986500        0.4823793355
C             0.6242097722        0.6123019607        0.9823780506



     Writing output data file ./NiPyC2_P1_relax.save/
     NEW-OLD atomic charge density approx. for the potential

     Check: negative core charge=   -0.000145

     total cpu time spent up to now is     1628.4 secs

     Self-consistent Calculation

     iteration #  1     ecut=   100.00 Ry     beta= 0.70
     Davidson diagonalization with overlap
     ethr =  1.00E-06,  avg # of iterations = 14.0

     total cpu time spent up to now is     1807.1 secs

     total energy              =    -811.06540274 Ry
     Harris-Foulkes estimate   =    -811.12692068 Ry
     estimated scf accuracy    <       0.18106549 Ry

     total magnetization       =     4.00 Bohr mag/cell
     absolute magnetization    =     4.08 Bohr mag/cell

     iteration #  2     ecut=   100.00 Ry     beta= 0.70
     Davidson diagonalization with overlap
     ethr =  9.05E-05,  avg # of iterations =  2.0

     total cpu time spent up to now is     1858.0 secs

     total energy              =    -811.06629343 Ry
     Harris-Foulkes estimate   =    -811.07857295 Ry
     estimated scf accuracy    <       0.02827728 Ry

     total magnetization       =     4.00 Bohr mag/cell
     absolute magnetization    =     4.08 Bohr mag/cell

     iteration #  3     ecut=   100.00 Ry     beta= 0.70
     Davidson diagonalization with overlap
     ethr =  1.41E-05,  avg # of iterations =  2.0

     total cpu time spent up to now is     1919.2 secs

     total energy              =    -811.06690664 Ry
     Harris-Foulkes estimate   =    -811.07222432 Ry
     estimated scf accuracy    <       0.03061549 Ry

     total magnetization       =     4.00 Bohr mag/cell
     absolute magnetization    =     4.09 Bohr mag/cell

     iteration #  4     ecut=   100.00 Ry     beta= 0.70
     Davidson diagonalization with overlap
     ethr =  1.41E-05,  avg # of iterations =  1.5

     total cpu time spent up to now is     1963.8 secs

     total energy              =    -811.06858124 Ry
     Harris-Foulkes estimate   =    -811.07185663 Ry
     estimated scf accuracy    <       0.04095537 Ry

     total magnetization       =     4.00 Bohr mag/cell
     absolute magnetization    =     4.08 Bohr mag/cell

     iteration #  5     ecut=   100.00 Ry     beta= 0.70
     Davidson diagonalization with overlap
     ethr =  1.41E-05,  avg # of iterations =  1.0

     total cpu time spent up to now is     2005.5 secs

     total energy              =    -811.06979580 Ry
     Harris-Foulkes estimate   =    -811.07032022 Ry
     estimated scf accuracy    <       0.00461913 Ry

     total magnetization       =     4.00 Bohr mag/cell
     absolute magnetization    =     4.08 Bohr mag/cell

     iteration #  6     ecut=   100.00 Ry     beta= 0.70
     Davidson diagonalization with overlap
     ethr =  2.31E-06,  avg # of iterations =  1.0

     total cpu time spent up to now is     2045.0 secs

     total energy              =    -811.07008735 Ry
     Harris-Foulkes estimate   =    -811.07015326 Ry
     estimated scf accuracy    <       0.00076971 Ry

     total magnetization       =     4.00 Bohr mag/cell
     absolute magnetization    =     4.09 Bohr mag/cell

     iteration #  7     ecut=   100.00 Ry     beta= 0.70
     Davidson diagonalization with overlap
     ethr =  3.85E-07,  avg # of iterations =  1.0

     total cpu time spent up to now is     2085.1 secs

     total energy              =    -811.07013651 Ry
     Harris-Foulkes estimate   =    -811.07013323 Ry
     estimated scf accuracy    <       0.00007665 Ry

     total magnetization       =     4.00 Bohr mag/cell
     absolute magnetization    =     4.08 Bohr mag/cell

     iteration #  8     ecut=   100.00 Ry     beta= 0.70
     Davidson diagonalization with overlap
     ethr =  3.83E-08,  avg # of iterations =  2.5

     total cpu time spent up to now is     2122.9 secs

     total energy              =    -811.07014517 Ry
     Harris-Foulkes estimate   =    -811.07014234 Ry
     estimated scf accuracy    <       0.00004416 Ry

     total magnetization       =     4.00 Bohr mag/cell
     absolute magnetization    =     4.08 Bohr mag/cell

     iteration #  9     ecut=   100.00 Ry     beta= 0.70
     Davidson diagonalization with overlap
     ethr =  2.21E-08,  avg # of iterations =  2.5

     total cpu time spent up to now is     2161.0 secs

     total energy              =    -811.07014827 Ry
     Harris-Foulkes estimate   =    -811.07014863 Ry
     estimated scf accuracy    <       0.00001919 Ry

     total magnetization       =     4.00 Bohr mag/cell
     absolute magnetization    =     4.08 Bohr mag/cell

     iteration # 10     ecut=   100.00 Ry     beta= 0.70
     Davidson diagonalization with overlap
     ethr =  9.60E-09,  avg # of iterations =  2.0

     total cpu time spent up to now is     2200.1 secs

     total energy              =    -811.07014947 Ry
     Harris-Foulkes estimate   =    -811.07014937 Ry
     estimated scf accuracy    <       0.00000785 Ry

     total magnetization       =     4.00 Bohr mag/cell
     absolute magnetization    =     4.08 Bohr mag/cell

     iteration # 11     ecut=   100.00 Ry     beta= 0.70
     Davidson diagonalization with overlap
     ethr =  3.92E-09,  avg # of iterations =  2.5

     total cpu time spent up to now is     2239.0 secs

     total energy              =    -811.07014991 Ry
     Harris-Foulkes estimate   =    -811.07015002 Ry
     estimated scf accuracy    <       0.00000418 Ry

     total magnetization       =     4.00 Bohr mag/cell
     absolute magnetization    =     4.08 Bohr mag/cell

     iteration # 12     ecut=   100.00 Ry     beta= 0.70
     Davidson diagonalization with overlap
     ethr =  2.09E-09,  avg # of iterations =  1.5

     total cpu time spent up to now is     2277.7 secs

     total energy              =    -811.07015007 Ry
     Harris-Foulkes estimate   =    -811.07015013 Ry
     estimated scf accuracy    <       0.00000127 Ry

     total magnetization       =     4.00 Bohr mag/cell
     absolute magnetization    =     4.08 Bohr mag/cell

     iteration # 13     ecut=   100.00 Ry     beta= 0.70
     Davidson diagonalization with overlap
     ethr =  6.36E-10,  avg # of iterations =  2.5
 
     Magnetic moment per site:
     atom:    1    charge:    7.5138    magn:    1.2406    constr:    0.0000
     atom:    2    charge:    7.5143    magn:    1.2417    constr:    0.0000
     atom:    3    charge:    3.1148    magn:    0.0531    constr:    0.0000
     atom:    4    charge:    3.1112    magn:    0.0537    constr:    0.0000
     atom:    5    charge:    3.1122    magn:    0.0548    constr:    0.0000
     atom:    6    charge:    3.1132    magn:    0.0547    constr:    0.0000
     atom:    7    charge:    3.1134    magn:    0.0561    constr:    0.0000
     atom:    8    charge:    3.1124    magn:    0.0565    constr:    0.0000
     atom:    9    charge:    3.1139    magn:    0.0577    constr:    0.0000
     atom:   10    charge:    3.1127    magn:    0.0581    constr:    0.0000
     atom:   11    charge:    2.4392    magn:    0.0144    constr:    0.0000
     atom:   12    charge:    2.4410    magn:    0.0145    constr:    0.0000
     atom:   13    charge:    2.4351    magn:    0.0138    constr:    0.0000
     atom:   14    charge:    2.4335    magn:    0.0140    constr:    0.0000
     atom:   15    charge:    0.5906    magn:    0.0038    constr:    0.0000
     atom:   16    charge:    0.5898    magn:    0.0038    constr:    0.0000
     atom:   17    charge:    0.4118    magn:   -0.0003    constr:    0.0000
     atom:   18    charge:    0.4117    magn:   -0.0003    constr:    0.0000
     atom:   19    charge:    0.5884    magn:    0.0038    constr:    0.0000
     atom:   20    charge:    0.5891    magn:    0.0038    constr:    0.0000
     atom:   21    charge:    0.5902    magn:    0.0039    constr:    0.0000
     atom:   22    charge:    0.5899    magn:    0.0039    constr:    0.0000
     atom:   23    charge:    0.4112    magn:   -0.0003    constr:    0.0000
     atom:   24    charge:    0.4117    magn:   -0.0003    constr:    0.0000
     atom:   25    charge:    0.5905    magn:    0.0038    constr:    0.0000
     atom:   26    charge:    0.5899    magn:    0.0038    constr:    0.0000
     atom:   27    charge:    0.4120    magn:   -0.0003    constr:    0.0000
     atom:   28    charge:    0.4117    magn:   -0.0003    constr:    0.0000
     atom:   29    charge:    0.5838    magn:    0.0031    constr:    0.0000
     atom:   30    charge:    0.5829    magn:    0.0031    constr:    0.0000
     atom:   31    charge:    0.4162    magn:   -0.0002    constr:    0.0000
     atom:   32    charge:    0.4162    magn:   -0.0002    constr:    0.0000
     atom:   33    charge:    0.5848    magn:    0.0032    constr:    0.0000
     atom:   34    charge:    0.5833    magn:    0.0032    constr:    0.0000
     atom:   35    charge:    0.4174    magn:   -0.0003    constr:    0.0000
     atom:   36    charge:    0.4173    magn:   -0.0003    constr:    0.0000
     atom:   37    charge:    0.5861    magn:    0.0034    constr:    0.0000
     atom:   38    charge:    0.5860    magn:    0.0034    constr:    0.0000
     atom:   39    charge:    0.4158    magn:    0.0002    constr:    0.0000
     atom:   40    charge:    0.4159    magn:    0.0002    constr:    0.0000
     atom:   41    charge:    0.5844    magn:    0.0034    constr:    0.0000
     atom:   42    charge:    0.5841    magn:    0.0034    constr:    0.0000
     atom:   43    charge:    0.4143    magn:    0.0001    constr:    0.0000
     atom:   44    charge:    0.4137    magn:    0.0001    constr:    0.0000
     atom:   45    charge:    0.5881    magn:    0.0037    constr:    0.0000
     atom:   46    charge:    0.5881    magn:    0.0037    constr:    0.0000
     atom:   47    charge:    0.4094    magn:   -0.0004    constr:    0.0000
     atom:   48    charge:    0.4098    magn:   -0.0003    constr:    0.0000
     atom:   49    charge:    0.5880    magn:    0.0037    constr:    0.0000
     atom:   50    charge:    0.5891    magn:    0.0037    constr:    0.0000
     atom:   51    charge:    0.5555    magn:   -0.0016    constr:    0.0000
     atom:   52    charge:    0.5551    magn:   -0.0016    constr:    0.0000
     atom:   53    charge:    0.5549    magn:   -0.0015    constr:    0.0000
     atom:   54    charge:    0.5552    magn:   -0.0016    constr:    0.0000

     total cpu time spent up to now is     2314.9 secs

     End of self-consistent calculation

 ------ SPIN UP ------------


          k = 0.0000 0.0000 0.0000 ( 45819 PWs)   bands (ev):

   -22.5414 -22.5333 -22.4422 -22.4358 -19.8765 -19.8613 -19.8149 -19.8083
   -19.8063 -19.8030 -19.7840 -19.7731 -15.9460 -15.8815 -15.8764 -15.8525
   -14.4377 -14.4044 -14.4017 -14.3642 -11.9981 -11.8803 -11.8654 -11.8512
   -11.1463 -11.1229 -11.0955 -11.0361  -9.6683  -9.4605  -9.4367  -9.3654
    -8.4318  -8.0033  -7.9607  -7.8984  -7.8040  -7.8013  -7.7255  -7.7161
    -7.0215  -6.9244  -6.8857  -6.8020  -6.7198  -6.6058  -6.4977  -6.4445
    -6.4010  -6.3727  -6.2321  -6.1841  -6.1623  -6.0613  -6.0200  -5.9756
    -5.9382  -5.8326  -5.6409  -5.5004  -5.4286  -5.3434  -5.2870  -5.2682
    -4.7482  -4.6492  -4.2499  -4.2391  -3.8092  -3.6811  -3.6351  -3.6105
    -3.5774  -3.5627  -3.5137  -3.4344  -3.4088  -3.3414  -3.3078  -3.2846
    -3.1755  -2.8642  -2.7842  -2.6690  -2.6385  -2.5997  -2.5952  -2.5224
    -2.4226  -2.4162  -2.3590  -2.3472  -2.2815  -2.2715  -2.2204  -2.1280
    -2.0826  -1.9925  -0.6682  -0.6291  -0.4429  -0.4257   1.9433   1.9575
     1.9885   2.0518   3.3893   3.4742   3.5195   3.6847   3.8530   4.1987
     4.4834   4.5558   4.7048   4.7416   4.9542   5.3100   5.6139   5.6854
     5.7658   5.8881

 ------ SPIN DOWN ----------


          k = 0.0000 0.0000 0.0000 ( 45819 PWs)   bands (ev):

   -22.4345 -22.4257 -22.3356 -22.3288 -19.8412 -19.8252 -19.7515 -19.7414
   -19.6807 -19.6716 -19.6667 -19.6634 -15.9064 -15.8425 -15.8372 -15.8125
   -14.4002 -14.3667 -14.3639 -14.3264 -11.9513 -11.8371 -11.8197 -11.8088
   -11.1150 -11.0917 -11.0650 -11.0063  -9.6357  -9.4294  -9.4069  -9.3334
    -8.3649  -7.9309  -7.9140  -7.8434  -7.7584  -7.7359  -7.6868  -7.6396
    -6.8956  -6.8311  -6.7471  -6.6930  -6.6259  -6.4842  -6.3946  -6.3356
    -6.3063  -6.2252  -6.1500  -6.1061  -6.0837  -6.0309  -5.9826  -5.9492
    -5.8825  -5.7554  -5.5918  -5.4735  -5.3810  -5.2671  -5.2656  -5.2512
    -4.6053  -4.0755  -3.7980  -3.7784  -3.5967  -3.5455  -3.5422  -3.5044
    -3.4649  -3.2796  -3.2376  -3.2109  -2.9117  -2.9002  -2.8092  -2.7978
    -2.7241  -2.6081  -2.5087  -2.4867  -2.4336  -2.4120  -2.2291  -2.1886
    -2.1598  -2.0718  -2.0414  -1.9035  -1.7385  -1.4787  -1.4676  -1.4537
    -1.4334  -1.3201   0.1690   0.1792   0.3388   0.3599   2.0454   2.0469
     2.1069   2.1423   3.4483   3.5185   3.5926   3.7600   3.9311   4.2415
     4.5266   4.6125   4.7739   4.7975   5.0054   5.3545   5.6593   5.7134
     5.8128   5.9478

     the spin up/dw Fermi energies are    -0.0381   -0.3431 ev

!    total energy              =    -811.07015014 Ry
     Harris-Foulkes estimate   =    -811.07015018 Ry
     estimated scf accuracy    <       0.00000032 Ry

     The total energy is the sum of the following terms:

     one-electron contribution =   -1221.44522240 Ry
     hartree contribution      =     680.83302072 Ry
     xc contribution           =    -247.81211084 Ry
     ewald contribution        =     -23.86144422 Ry
     Dispersion Correction     =      -0.20104117 Ry
     smearing contrib. (-TS)   =       1.41664777 Ry

     total magnetization       =     4.00 Bohr mag/cell
     absolute magnetization    =     4.08 Bohr mag/cell

     convergence has been achieved in  13 iterations

     Forces acting on atoms (cartesian axes, Ry/au):

     atom    1 type  1   force =    -0.00793173   -0.00792554   -0.03292279
     atom    2 type  2   force =     0.02710786    0.00784746    0.00336303
     atom    3 type  4   force =    -0.02871213   -0.02188159   -0.00374445
     atom    4 type  4   force =    -0.02945901    0.02148882   -0.00401080
     atom    5 type  4   force =     0.02963601    0.02290556    0.00095793
     atom    6 type  4   force =     0.02982254   -0.02296809   -0.00036244
     atom    7 type  4   force =     0.01663204   -0.02018482   -0.02373681
     atom    8 type  4   force =     0.01569908    0.02048746   -0.02468704
     atom    9 type  4   force =    -0.01503304    0.02783486   -0.02077110
     atom   10 type  4   force =    -0.01579925   -0.02703403   -0.02214866
     atom   11 type  5   force =    -0.02034971   -0.02406110    0.02750431
     atom   12 type  5   force =    -0.01989405    0.02309960    0.02792846
     atom   13 type  5   force =     0.00877611    0.01958027    0.02309856
     atom   14 type  5   force =     0.00930356   -0.01973766    0.02387609
     atom   15 type  6   force =    -0.01793976    0.06951626   -0.09839712
     atom   16 type  6   force =    -0.01775899   -0.06976809   -0.09841536
     atom   17 type  3   force =    -0.02225366    0.00446618   -0.01592424
     atom   18 type  3   force =    -0.02222869   -0.00446544   -0.01588884
     atom   19 type  6   force =     0.01464276    0.03761320   -0.01998145
     atom   20 type  6   force =     0.01463060   -0.03759860   -0.01988380
     atom   21 type  6   force =     0.10341466    0.07064601   -0.02507724
     atom   22 type  6   force =     0.10329020   -0.07067186   -0.02513256
     atom   23 type  3   force =     0.02212538    0.00241682    0.01297895
     atom   24 type  3   force =     0.02217858   -0.00242790    0.01298818
     atom   25 type  6   force =     0.02206642   -0.07436348   -0.09118262
     atom   26 type  6   force =     0.02181717    0.07442435   -0.09128338
     atom   27 type  3   force =     0.02232176   -0.00302350   -0.01418346
     atom   28 type  3   force =     0.02236433    0.00306410   -0.01425396
     atom   29 type  6   force =     0.10051916    0.07741343    0.01352953
     atom   30 type  6   force =     0.10023139   -0.07781905    0.01411691
     atom   31 type  3   force =     0.02280228    0.01108686   -0.00195786
     atom   32 type  3   force =     0.02283094   -0.01104307   -0.00198321
     atom   33 type  6   force =    -0.10745984   -0.07635248    0.01826779
     atom   34 type  6   force =    -0.10776687    0.07654828    0.01856214
     atom   35 type  3   force =    -0.02772718   -0.00897625   -0.00031892
     atom   36 type  3   force =    -0.02766998    0.00893006   -0.00026840
     atom   37 type  6   force =     0.02271198   -0.07436416    0.09948797
     atom   38 type  6   force =     0.02268695    0.07410808    0.09922663
     atom   39 type  3   force =     0.01472561   -0.01022110    0.02434679
     atom   40 type  3   force =     0.01477354    0.01016113    0.02436055
     atom   41 type  6   force =    -0.02253948    0.08382107    0.09564636
     atom   42 type  6   force =    -0.02183861   -0.08418950    0.09574844
     atom   43 type  3   force =    -0.01466685    0.01286123    0.02161025
     atom   44 type  3   force =    -0.01471553   -0.01258189    0.02161548
     atom   45 type  6   force =    -0.09571084   -0.07867060   -0.01934469
     atom   46 type  6   force =    -0.09566823    0.07889906   -0.01945519
     atom   47 type  3   force =    -0.01917293    0.00050791    0.01102449
     atom   48 type  3   force =    -0.01922832   -0.00047105    0.01103106
     atom   49 type  6   force =    -0.01787893   -0.03757951   -0.02621246
     atom   50 type  6   force =    -0.01791447    0.03747059   -0.02605706
     atom   51 type  6   force =    -0.00605230   -0.02773833    0.01178785
     atom   52 type  6   force =    -0.00441362    0.02756417    0.01228247
     atom   53 type  6   force =     0.00538498    0.02907194    0.01679238
     atom   54 type  6   force =     0.00528813   -0.02771607    0.01545331

     Total force =     0.546751     Total SCF correction =     0.000602

     number of scf cycles    =   3
     number of bfgs steps    =   1

     energy   old            =    -810.6855151064 Ry
     energy   new            =    -811.0701501353 Ry

     CASE: energy  _new < energy  _old

     new trust radius        =       0.0866611781 bohr
     new conv_thr            =       0.0000010000 Ry


ATOMIC_POSITIONS (crystal)
Ni1           0.4935629802        0.7534332637        0.8367984347
Ni2           0.9978387577        0.2465358066        0.3393804926
O             0.2383331646        0.3478945473        0.3919655677
O             0.7382667516        0.6520940442        0.8919228892
O             0.7578891587        0.1349273621        0.3696425903
O             0.2579531989        0.8650640455        0.8695550256
O             0.9360064707        0.3503823909        0.4957186664
O             0.4359089702        0.6496375729        0.9956476562
O             0.0671482009        0.1220326292        0.4728427234
O             0.5671241123        0.8780036989        0.9727329836
N             0.6254415555        0.8415748495        0.6979438956
N             0.1254492659        0.1583692652        0.1979648983
N             0.3617165595        0.6469349726        0.7166745307
N             0.8617517459        0.3530634245        0.2167159267
C             0.5942985185        0.9601313418        0.5140253903
C             0.0943084772        0.0398612676        0.0140243549
H             0.4902421893        0.9886871875        0.4372575005
H            -0.0097554792        0.0113135848        0.9372594212
C             0.7949690235        0.9996929377        0.5331415425
C             0.2949683909        0.0003103448        0.0331487424
C             0.9131488316        0.9560825660        0.6318359989
C             0.4131495253        0.0439192283        0.1318329768
H             0.0747410468        0.9798915535        0.6527655532
H             0.5747451699        0.0201089132        0.1527662278
C             0.4017963356        0.5184233523        0.5451108302
C             0.9017821201        0.4815785075        0.0451024818
H             0.5049890382        0.4884813563        0.4713076518
H             1.0049927828        0.5115209549        0.9713035572
C             0.4766279663        0.6037995717        0.6232483252
C             0.9766080681        0.3961895935        0.1232743941
H             0.6333455898        0.6344970025        0.6067977518
H             0.1333494984        0.3655056688        0.1067961372
C             0.5145108110        0.8801174840        0.5972343030
C             0.0144860633        0.1198881314        0.0972499126
H             0.3572247870        0.8499797406        0.5779935474
H             0.8572306334        0.1500184853        0.0779961629
C             0.8237083915        0.8770413534        0.7130084278
C             0.3237107901        0.1229526829        0.2130004182
H             0.9217238852        0.8451288963        0.7901491546
H             0.4217199012        0.1548644984        0.2901438277
C             0.1704934370        0.6056960904        0.7339631272
C             0.6705399746        0.3942962122        0.2339734611
H             0.0709786550        0.6380154124        0.8077747606
H             0.5709791611        0.3620036829        0.3077706802
C             0.0875042235        0.5190172201        0.6593139759
C             0.5875008928        0.4809930805        0.1593089928
H             0.9305475353        0.4901274130        0.6813348031
H             0.4305432424        0.5098751568        0.1813354375
C             0.2047589091        0.4751059104        0.5634628909
C             0.7047604880        0.5248883386        0.0634712662
C             0.8750958026        0.0863194607        0.4564925130
C             0.3752279561        0.9136761406        0.9565165470
C             0.1254361126        0.3893251250        0.4834618892
C             0.6254203616        0.6107266785        0.9833987822



     Writing output data file ./NiPyC2_P1_relax.save/
     NEW-OLD atomic charge density approx. for the potential

     Check: negative core charge=   -0.000145

     total cpu time spent up to now is     2366.9 secs

     Self-consistent Calculation

     iteration #  1     ecut=   100.00 Ry     beta= 0.70
     Davidson diagonalization with overlap
     ethr =  1.00E-06,  avg # of iterations =  8.0

     total cpu time spent up to now is     2500.3 secs

[...]
     Davidson diagonalization with overlap
     ethr =  2.38E-09,  avg # of iterations =  1.0

     total cpu time spent up to now is    26678.4 secs

     total energy              =    -811.25581306 Ry
     Harris-Foulkes estimate   =    -811.25581299 Ry
     estimated scf accuracy    <       0.00000035 Ry

     total magnetization       =     4.00 Bohr mag/cell
     absolute magnetization    =     4.12 Bohr mag/cell

     iteration #  6     ecut=   100.00 Ry     beta= 0.70
     Davidson diagonalization with overlap
     ethr =  1.74E-10,  avg # of iterations =  1.5

     total cpu time spent up to now is    26720.0 secs

     total energy              =    -811.25581314 Ry
     Harris-Foulkes estimate   =    -811.25581312 Ry
     estimated scf accuracy    <       0.00000069 Ry

     total magnetization       =     4.00 Bohr mag/cell
     absolute magnetization    =     4.12 Bohr mag/cell

     iteration #  7     ecut=   100.00 Ry     beta= 0.70
     Davidson diagonalization with overlap
     ethr =  1.74E-10,  avg # of iterations =  1.5

     total cpu time spent up to now is    26762.5 secs

     total energy              =    -811.25581317 Ry
     Harris-Foulkes estimate   =    -811.25581317 Ry
     estimated scf accuracy    <       0.00000007 Ry

     total magnetization       =     4.00 Bohr mag/cell
     absolute magnetization    =     4.12 Bohr mag/cell

     iteration #  8     ecut=   100.00 Ry     beta= 0.70
     Davidson diagonalization with overlap
     ethr =  3.30E-11,  avg # of iterations =  3.0

     total cpu time spent up to now is    26799.0 secs

     total energy              =    -811.25581316 Ry
     Harris-Foulkes estimate   =    -811.25581317 Ry
     estimated scf accuracy    <       0.00000002 Ry

     total magnetization       =     4.00 Bohr mag/cell
     absolute magnetization    =     4.12 Bohr mag/cell

     iteration #  9     ecut=   100.00 Ry     beta= 0.70
     Davidson diagonalization with overlap
     ethr =  1.11E-11,  avg # of iterations =  2.5
 
     Magnetic moment per site:
     atom:    1    charge:    7.5222    magn:    1.1537    constr:    0.0000
     atom:    2    charge:    7.5243    magn:    1.1519    constr:    0.0000
     atom:    3    charge:    3.0716    magn:    0.0594    constr:    0.0000
     atom:    4    charge:    3.0482    magn:    0.0610    constr:    0.0000
     atom:    5    charge:    2.8637    magn:    0.0561    constr:    0.0000
     atom:    6    charge:    2.8705    magn:    0.0565    constr:    0.0000
     atom:    7    charge:    2.9017    magn:    0.0582    constr:    0.0000
     atom:    8    charge:    2.8217    magn:    0.0583    constr:    0.0000
     atom:    9    charge:    2.8110    magn:    0.0576    constr:    0.0000
     atom:   10    charge:    2.7241    magn:    0.0556    constr:    0.0000
     atom:   11    charge:    2.2920    magn:    0.0154    constr:    0.0000
     atom:   12    charge:    2.2980    magn:    0.0156    constr:    0.0000
     atom:   13    charge:    2.3437    magn:    0.0149    constr:    0.0000
     atom:   14    charge:    2.3497    magn:    0.0153    constr:    0.0000
     atom:   15    charge:    0.5329    magn:    0.0050    constr:    0.0000
     atom:   16    charge:    0.5354    magn:    0.0050    constr:    0.0000
     atom:   17    charge:    0.4040    magn:   -0.0008    constr:    0.0000
     atom:   18    charge:    0.4045    magn:   -0.0008    constr:    0.0000
     atom:   19    charge:    0.5120    magn:    0.0037    constr:    0.0000
     atom:   20    charge:    0.5109    magn:    0.0038    constr:    0.0000
     atom:   21    charge:    0.4914    magn:    0.0053    constr:    0.0000
     atom:   22    charge:    0.4876    magn:    0.0054    constr:    0.0000
     atom:   23    charge:    0.3249    magn:   -0.0006    constr:    0.0000
     atom:   24    charge:    0.3209    magn:   -0.0005    constr:    0.0000
     atom:   25    charge:    0.5294    magn:    0.0044    constr:    0.0000
     atom:   26    charge:    0.5360    magn:    0.0044    constr:    0.0000
     atom:   27    charge:    0.4035    magn:   -0.0005    constr:    0.0000
     atom:   28    charge:    0.4134    magn:   -0.0005    constr:    0.0000
     atom:   29    charge:    0.5279    magn:    0.0037    constr:    0.0000
     atom:   30    charge:    0.5380    magn:    0.0036    constr:    0.0000
     atom:   31    charge:    0.4327    magn:   -0.0005    constr:    0.0000
     atom:   32    charge:    0.4552    magn:   -0.0006    constr:    0.0000
     atom:   33    charge:    0.5367    magn:    0.0042    constr:    0.0000
     atom:   34    charge:    0.5406    magn:    0.0042    constr:    0.0000
     atom:   35    charge:    0.4116    magn:   -0.0006    constr:    0.0000
     atom:   36    charge:    0.4112    magn:   -0.0007    constr:    0.0000
     atom:   37    charge:    0.5088    magn:    0.0045    constr:    0.0000
     atom:   38    charge:    0.5066    magn:    0.0045    constr:    0.0000
     atom:   39    charge:    0.3664    magn:   -0.0001    constr:    0.0000
     atom:   40    charge:    0.3702    magn:   -0.0001    constr:    0.0000
     atom:   41    charge:    0.5584    magn:    0.0038    constr:    0.0000
     atom:   42    charge:    0.5587    magn:    0.0037    constr:    0.0000
     atom:   43    charge:    0.3814    magn:   -0.0005    constr:    0.0000
     atom:   44    charge:    0.3737    magn:   -0.0005    constr:    0.0000
     atom:   45    charge:    0.5528    magn:    0.0044    constr:    0.0000
     atom:   46    charge:    0.5545    magn:    0.0044    constr:    0.0000
     atom:   47    charge:    0.3762    magn:   -0.0010    constr:    0.0000
     atom:   48    charge:    0.3751    magn:   -0.0010    constr:    0.0000
     atom:   49    charge:    0.5446    magn:    0.0033    constr:    0.0000
     atom:   50    charge:    0.5456    magn:    0.0033    constr:    0.0000
     atom:   51    charge:    0.5107    magn:   -0.0014    constr:    0.0000
     atom:   52    charge:    0.5060    magn:   -0.0014    constr:    0.0000
     atom:   53    charge:    0.5372    magn:   -0.0015    constr:    0.0000
     atom:   54    charge:    0.5282    magn:   -0.0016    constr:    0.0000

     total cpu time spent up to now is    26829.3 secs

     End of self-consistent calculation

 ------ SPIN UP ------------


          k = 0.0000 0.0000 0.0000 ( 45819 PWs)   bands (ev):

   -22.6016 -22.5917 -22.4711 -22.4646 -19.5740 -19.5582 -19.5511 -19.5409
   -19.2619 -19.2401 -19.1525 -19.1396 -15.5146 -15.4409 -15.4269 -15.4045
   -14.1860 -14.1439 -14.1315 -14.0820 -11.7858 -11.6491 -11.6259 -11.6027
   -11.0519 -11.0245 -11.0056 -10.9345  -9.3954  -9.1633  -9.1464  -9.0796
    -8.3166  -7.8528  -7.7372  -7.7028  -7.5548  -7.5099  -7.4951  -7.4097
    -6.9263  -6.7390  -6.7240  -6.6868  -6.6294  -6.6020  -6.4459  -6.3858
    -6.3493  -6.3427  -6.2576  -6.2349  -6.2226  -6.1729  -6.1482  -5.9419
    -5.6699  -5.5951  -5.5412  -5.4820  -5.2720  -5.2345  -5.2138  -5.0114
    -4.7379  -4.5827  -4.2469  -4.0803  -4.0092  -3.9343  -3.9239  -3.8081
    -3.6522  -3.5738  -3.5697  -3.5478  -3.2549  -3.2451  -3.2181  -3.2080
    -2.9824  -2.7167  -2.6070  -2.5391  -2.5164  -2.5126  -2.5005  -2.3729
    -2.2329  -2.2137  -2.2003  -2.1307  -2.1161  -2.0904  -2.0294  -1.9574
    -1.9073  -1.7995  -0.3241  -0.2750  -0.0354  -0.0110   1.8963   1.9128
     1.9377   2.0216   2.9638   3.1102   3.2457   3.4270   3.5276   4.2386
     4.3950   4.4629   4.6161   4.6358   4.9842   5.3481   5.6426   5.7334
     5.8990   6.0640

 ------ SPIN DOWN ----------


          k = 0.0000 0.0000 0.0000 ( 45819 PWs)   bands (ev):

   -22.4815 -22.4699 -22.3516 -22.3435 -19.4200 -19.4012 -19.3959 -19.3841
   -19.2225 -19.2005 -19.1136 -19.1004 -15.4712 -15.3983 -15.3838 -15.3606
   -14.1427 -14.1004 -14.0879 -14.0381 -11.7350 -11.6025 -11.5762 -11.5567
   -11.0170 -10.9900 -10.9719 -10.9014  -9.3600  -9.1287  -9.1158  -9.0476
    -8.2419  -7.7668  -7.6770  -7.6222  -7.4913  -7.4485  -7.4100  -7.3613
    -6.7942  -6.6344  -6.5776  -6.5453  -6.5133  -6.4930  -6.3537  -6.3320
    -6.2877  -6.2739  -6.1625  -6.1519  -6.1376  -6.0735  -6.0476  -5.8468
    -5.5843  -5.5696  -5.5208  -5.4053  -5.2417  -5.2069  -5.1234  -4.9188
    -4.5850  -4.0460  -4.0270  -3.9922  -3.9130  -3.8801  -3.7270  -3.5510
    -3.4128  -3.3094  -3.1434  -3.1186  -2.8575  -2.8088  -2.7324  -2.7237
    -2.6419  -2.4146  -2.3689  -2.3407  -2.3323  -2.2798  -2.0163  -2.0005
    -1.9089  -1.8821  -1.8534  -1.7115  -1.6761  -1.3550  -1.3454  -1.3296
    -1.3222  -1.1985   0.4628   0.4958   0.6806   0.7257   2.0010   2.0338
     2.0762   2.1291   3.0586   3.2075   3.3436   3.5289   3.5661   4.2956
     4.4668   4.5244   4.7006   4.7106   5.0353   5.3968   5.6803   5.7696
     5.9361   6.1235

     the spin up/dw Fermi energies are     0.1651   -0.1987 ev

!    total energy              =    -811.25581317 Ry
     Harris-Foulkes estimate   =    -811.25581316 Ry
     estimated scf accuracy    <          8.9E-09 Ry

     The total energy is the sum of the following terms:

     one-electron contribution =   -1218.66428110 Ry
     hartree contribution      =     679.64099211 Ry
     xc contribution           =    -246.43119098 Ry
     ewald contribution        =     -26.97347764 Ry
     Dispersion Correction     =      -0.20858797 Ry
     smearing contrib. (-TS)   =       1.38073241 Ry

     total magnetization       =     4.00 Bohr mag/cell
     absolute magnetization    =     4.12 Bohr mag/cell

     convergence has been achieved in   9 iterations

     Forces acting on atoms (cartesian axes, Ry/au):

     atom    1 type  1   force =    -0.00009405   -0.00075599   -0.00018745
     atom    2 type  2   force =    -0.00016306   -0.00088878    0.00005693
     atom    3 type  4   force =     0.00032089   -0.00003807   -0.00022003
     atom    4 type  4   force =    -0.00095787    0.00055430   -0.00003588
     atom    5 type  4   force =     0.00015290    0.00024580   -0.00008209
     atom    6 type  4   force =    -0.00003910    0.00041496   -0.00049490
     atom    7 type  4   force =    -0.00006324   -0.00050345    0.00023649
     atom    8 type  4   force =    -0.00000295    0.00032287    0.00086565
     atom    9 type  4   force =     0.00006868    0.00010958   -0.00017298
     atom   10 type  4   force =     0.00007891    0.00003179    0.00007580
     atom   11 type  5   force =    -0.00047795    0.00002541    0.00078759
     atom   12 type  5   force =    -0.00060860    0.00029032    0.00020842
     atom   13 type  5   force =    -0.00047482    0.00046144   -0.00038369
     atom   14 type  5   force =    -0.00013405   -0.00024064   -0.00008383
     atom   15 type  6   force =     0.00019090   -0.00036878   -0.00011462
     atom   16 type  6   force =     0.00028328    0.00029637    0.00005548
     atom   17 type  3   force =    -0.00015282    0.00025356    0.00008917
     atom   18 type  3   force =     0.00026615   -0.00032573    0.00013450
     atom   19 type  6   force =    -0.00020490    0.00012077    0.00021400
     atom   20 type  6   force =     0.00042633    0.00002795    0.00053218
     atom   21 type  6   force =     0.00071019   -0.00042763    0.00042795
     atom   22 type  6   force =    -0.00039689    0.00070956    0.00008803
     atom   23 type  3   force =    -0.00005788   -0.00018665    0.00044337
     atom   24 type  3   force =     0.00010878    0.00006568    0.00014795
     atom   25 type  6   force =    -0.00046358    0.00026432    0.00069924
     atom   26 type  6   force =     0.00017232   -0.00028670   -0.00039778
     atom   27 type  3   force =     0.00000945   -0.00021018    0.00006280
     atom   28 type  3   force =     0.00077628    0.00042783   -0.00023604
     atom   29 type  6   force =    -0.00007138   -0.00032909   -0.00033208
     atom   30 type  6   force =     0.00027715   -0.00045947   -0.00010978
     atom   31 type  3   force =    -0.00027398   -0.00016646    0.00037903
     atom   32 type  3   force =     0.00006030   -0.00018331    0.00008709
     atom   33 type  6   force =    -0.00022854   -0.00029133   -0.00012123
     atom   34 type  6   force =     0.00002570    0.00010295   -0.00021053
     atom   35 type  3   force =    -0.00034001    0.00032422   -0.00029149
     atom   36 type  3   force =     0.00005303   -0.00082936   -0.00008416
     atom   37 type  6   force =    -0.00033187   -0.00050359    0.00028982
     atom   38 type  6   force =    -0.00043817    0.00032431    0.00022458
     atom   39 type  3   force =     0.00037958   -0.00032761    0.00003819
     atom   40 type  3   force =    -0.00008600   -0.00001154   -0.00053385
     atom   41 type  6   force =     0.00038026   -0.00044196   -0.00000867
     atom   42 type  6   force =     0.00009369    0.00001373    0.00022798
     atom   43 type  3   force =     0.00077155    0.00024533   -0.00023955
     atom   44 type  3   force =    -0.00023915    0.00004104   -0.00029795
     atom   45 type  6   force =     0.00087802   -0.00015595    0.00004843
     atom   46 type  6   force =     0.00012050   -0.00002303   -0.00011342
     atom   47 type  3   force =     0.00012693    0.00020258   -0.00027429
     atom   48 type  3   force =    -0.00033342    0.00058169   -0.00055014
     atom   49 type  6   force =    -0.00011448    0.00045693   -0.00043409
     atom   50 type  6   force =     0.00007147   -0.00059486   -0.00027560
     atom   51 type  6   force =    -0.00005029    0.00052412   -0.00008618
     atom   52 type  6   force =    -0.00019828    0.00020570    0.00015664
     atom   53 type  6   force =     0.00087972    0.00074932   -0.00047787
     atom   54 type  6   force =    -0.00068564    0.00015573    0.00027286

     Total force =     0.004608     Total SCF correction =     0.000222

     bfgs converged in  47 scf cycles and  45 bfgs steps
     (criteria: energy <  1.0E-04 Ry, force <  1.0E-03 Ry/Bohr)

     End of BFGS Geometry Optimization

     Final energy   =    -811.2558131672 Ry
Begin final coordinates

ATOMIC_POSITIONS (crystal)
Ni1           0.4940052163        0.7514864733        0.8363255280
Ni2           0.9999467261        0.2479991548        0.3391785876
O             0.2455532619        0.3476912614        0.3828718550
O             0.7424204305        0.6509772303        0.8812909697
O             0.7552605036        0.1475049887        0.3771743338
O             0.2501994594        0.8523537638        0.8762586693
O             0.9461421838        0.3561548721        0.4829967485
O             0.4422763732        0.6414212966        0.9798800104
O             0.0576745371        0.1351561030        0.4810748584
O             0.5533759302        0.8627609763        0.9793974280
N             0.6168798474        0.8512508066        0.7048265130
N             0.1214591269        0.1488593813        0.2060491405
N             0.3730785822        0.6503085817        0.7058423252
N             0.8776133490        0.3509285293        0.2080436068
C             0.5764259612        0.9700446249        0.5219784297
C             0.0767613424        0.0311101475        0.0223025876
H             0.4742514936        0.9995684605        0.4431079539
H            -0.0269185503        0.0026981827        0.9434916053
C             0.7812710954        1.0117671630        0.5464892511
C             0.2804908354       -0.0122524146        0.0461428240
C             0.9038289992        0.9702017093        0.6503683986
C             0.4050409696        0.0283539286        0.1498920451
H             0.0641242062        0.9988075108        0.6735183035
H             0.5646779061       -0.0013352824        0.1726026161
C             0.4163581074        0.5297045225        0.5263875366
C             0.9170905290        0.4714091144        0.0279075013
H             0.5173967920        0.5008958875        0.4492825700
H             1.0172814614        0.5003956528        0.9505500139
C             0.4902689560        0.6133300701        0.6064370141
C             0.9936341105        0.3886767769        0.1086188567
H             0.6452734233        0.6505085067        0.5926377355
H             0.1499283087        0.3528468701        0.0950286767
C             0.4989580174        0.8892008606        0.6031997147
C             0.0021428159        0.1122356849        0.1042429302
H             0.3403146268        0.8551154857        0.5885556834
H             0.8446503788        0.1477377675        0.0898786739
C             0.8159563637        0.8893835862        0.7275520645
C             0.3198659053        0.1095468507        0.2278115281
H             0.9067410065        0.8551763713        0.8087627360
H             0.4124733810        0.1431005507        0.3087985329
C             0.1777182309        0.6089776607        0.7273571175
C             0.6817786717        0.3916366673        0.2293978511
H             0.0874537072        0.6429381809        0.8066138851
H             0.5927518518        0.3575310393        0.3090535210
C             0.0938502399        0.5250749161        0.6513163227
C             0.5953155315        0.4747163707        0.1527577797
H             0.9373423046        0.4932244539        0.6735075998
H             0.4379096978        0.5052078295        0.1752673062
C             0.2163278184        0.4842679032        0.5501195852
C             0.7156671935        0.5156598144        0.0506404224
C             0.8666226193        0.0993171414        0.4666178864
C             0.3630364975        0.8997232849        0.9656690258
C             0.1347568207        0.3944697570        0.4706753406
C             0.6320948448        0.6041729728        0.9691099992
End final coordinates



     Writing output data file ./NiPyC2_P1_relax.save/
 
     init_run     :     40.75s CPU     41.55s WALL (       1 calls)
     electrons    :  20158.03s CPU  24330.23s WALL (      47 calls)
     update_pot   :   1180.52s CPU   1227.45s WALL (      46 calls)
     forces       :   1113.35s CPU   1217.25s WALL (      47 calls)

     Called by init_run:
     wfcinit      :     15.07s CPU     15.42s WALL (       1 calls)
     potinit      :     11.31s CPU     11.64s WALL (       1 calls)
     hinit0       :     12.27s CPU     12.34s WALL (       1 calls)

     Called by electrons:
     c_bands      :  17078.54s CPU  19979.85s WALL (     497 calls)
     sum_band     :   1190.08s CPU   1565.81s WALL (     497 calls)
     v_of_rho     :    896.54s CPU   1148.98s WALL (     535 calls)
     mix_rho      :    783.57s CPU   1106.85s WALL (     497 calls)

     Called by c_bands:
     init_us_2    :     25.43s CPU     26.22s WALL (     995 calls)
     regterg      :  15350.40s CPU  15921.38s WALL (     497 calls)

     Called by sum_band:

     Called by *egterg:
     h_psi        :   6489.67s CPU   6812.64s WALL (    1722 calls)
     g_psi        :      9.37s CPU      9.53s WALL (    1224 calls)
     rdiaghg      :    144.78s CPU    148.49s WALL (    1666 calls)

     Called by h_psi:
     h_psi:calbec :   1482.56s CPU   1512.85s WALL (    1722 calls)
     vloc_psi     :   3472.91s CPU   3738.85s WALL (    1722 calls)
     add_vuspsi   :   1515.21s CPU   1541.60s WALL (    1722 calls)

     General routines
     calbec       :   1720.89s CPU   1753.24s WALL (    1910 calls)
     fft          :    598.16s CPU    896.06s WALL (    8559 calls)
     ffts         :    580.73s CPU    857.80s WALL (    8493 calls)
     fftw         :   3727.12s CPU   4041.91s WALL (  172869 calls)
 
     Parallel routines
     fft_scatt_xy :    946.95s CPU    970.94s WALL (  189921 calls)
     fft_scatt_yz :   1177.23s CPU   1952.88s WALL (  189921 calls)
 
     PWSCF        :      6h15m CPU      7h27m WALL

 
   This run was terminated on:   4:59:59  12May2020            

=------------------------------------------------------------------------------=
   JOB DONE.
=------------------------------------------------------------------------------=
QE finished Tue May 12 04:59:59 PDT 2020
