/apps/openmpi/3.1_intel-19/bin/mpiexec
starting QE Mon Jun 8 20:09:10 PDT 2020

     Program PWSCF v.6.5 starts on  8Jun2020 at 20: 9:11 

     This program is part of the open-source Quantum ESPRESSO suite
     for quantum simulation of materials; please cite
         "P. Giannozzi et al., J. Phys.:Condens. Matter 21 395502 (2009);
         "P. Giannozzi et al., J. Phys.:Condens. Matter 29 465901 (2017);
          URL http://www.quantum-espresso.org", 
     in publications or presentations arising from this work. More details at
     http://www.quantum-espresso.org/quote

     Parallel version (MPI), running on    16 processors

     MPI processes distributed on     1 nodes
     K-points division:     npool     =       2
     R & G space division:  proc/nbgrp/npool/nimage =       8
     Reading input from QE_input_scripts/pw.NiPyC2_relax_meta_functionalized_F_pbesol-relax.in
Warning: card &CELL ignored
Warning: card CELL_DYNAMICS = 'BFGS' ignored
Warning: card CELL_DOFREE = 'XYZ' ignored
Warning: card / ignored

     Current dimensions of program PWSCF are:
     Max number of different atomic species (ntypx) = 10
     Max number of k-points (npk) =  40000
     Max angular momentum in pseudopotentials (lmaxx) =  3

     -------------------------------------------------
     Parameters for Dispersion (Grimme-D2) Correction:
     -------------------------------------------------
       atom      VdW radius       C_6     

        C          2.744         60.710
        F          2.432         26.018
        H          1.892          4.857
        N          2.640         42.670
        Ni         2.952        374.666
        O          2.536         24.284

     gamma-point specific algorithms are used

     Subspace diagonalization in iterative solution of the eigenvalue problem:
     a serial algorithm will be used

 
     Parallelization info
     --------------------
     sticks:   dense  smooth     PW     G-vecs:    dense   smooth      PW
     Min        1113    1113    276                91690    91690   11450
     Max        1116    1116    278                91692    91692   11458
     Sum        8917    8917   2219               733525   733525   91637
 


     bravais-lattice index     =            0
     lattice parameter (alat)  =      11.8161  a.u.
     unit-cell volume          =    5429.3114 (a.u.)^3
     number of atoms/cell      =           54
     number of atomic types    =            6
     number of electrons       =       224.00 (up: 114.00, down: 110.00)
     number of Kohn-Sham states=          137
     kinetic-energy cutoff     =     100.0000  Ry
     charge density cutoff     =     400.0000  Ry
     convergence threshold     =      1.0E-06
     mixing beta               =       0.7000
     number of iterations used =            8  local-TF  mixing
     Exchange-correlation= PBESOL
                           (   1   4  10   8   0   0   0)
     nstep                     =          200


     celldm(1)=  11.816080  celldm(2)=   0.000000  celldm(3)=   0.000000
     celldm(4)=   0.000000  celldm(5)=   0.000000  celldm(6)=   0.000000

     crystal axes: (cart. coord. in units of alat)
               a(1) = (   1.000000   0.000000   0.000000 )  
               a(2) = (   0.000000   2.002847   0.000000 )  
               a(3) = (  -0.036399   0.000000   1.643149 )  

     reciprocal axes: (cart. coord. in units 2 pi/alat)
               b(1) = (  1.000000  0.000000  0.022152 )  
               b(2) = (  0.000000  0.499289  0.000000 )  
               b(3) = (  0.000000  0.000000  0.608588 )  


     PseudoPot. # 1 for C  read from file:
     ./pseudo/C.pbesol-nc.UPF
     MD5 check sum: ce26087537ded160c8d400e183a8bf42
     Pseudo is Norm-conserving, Zval =  4.0
     Generated using "atomic" code by A. Dal Corso v.6.5
     Using radial grid of 1073 points,  1 beta functions with: 
                l(1) =   1

     PseudoPot. # 2 for F  read from file:
     ./pseudo/F.pbesol-n-nc.UPF
     MD5 check sum: 7bfb8b5cfca7590fa41d3808836ab4b2
     Pseudo is Norm-conserving, Zval =  7.0
     Generated using "atomic" code by A. Dal Corso v.6.5
     Using radial grid of 1105 points,  1 beta functions with: 
                l(1) =   1

     PseudoPot. # 3 for H  read from file:
     ./pseudo/H.pbesol-n-nc.UPF
     MD5 check sum: 7995ef24074557c85b430109caaacc09
     Pseudo is Norm-conserving, Zval =  1.0
     Generated using "atomic" code by A. Dal Corso v.6.5
     Using radial grid of  929 points,  0 beta functions with: 

     PseudoPot. # 4 for N  read from file:
     ./pseudo/N.pbesol-nc.UPF
     MD5 check sum: e18cc5e4b8a5600c1a19b30c2cab1ca0
     Pseudo is Norm-conserving, Zval =  5.0
     Generated using "atomic" code by A. Dal Corso v.6.5
     Using radial grid of 1085 points,  1 beta functions with: 
                l(1) =   1

     PseudoPot. # 5 for Ni read from file:
     ./pseudo/Ni.pbesol-n-nc.UPF
     MD5 check sum: 623411631e0c2eb7c0b2b9815547d2d9
     Pseudo is Norm-conserving + core correction, Zval = 10.0
     Generated using "atomic" code by A. Dal Corso v.6.5
     Using radial grid of 1195 points,  2 beta functions with: 
                l(1) =   1
                l(2) =   2

     PseudoPot. # 6 for O  read from file:
     ./pseudo/O.pbesol-nc.UPF
     MD5 check sum: 73d10e7e91dbfcbe8a7e362101007f84
     Pseudo is Norm-conserving, Zval =  6.0
     Generated using "atomic" code by A. Dal Corso v.6.5
     Using radial grid of 1095 points,  1 beta functions with: 
                l(1) =   1

     atomic species   valence    mass     pseudopotential
        C              4.00    12.01070     C ( 1.00)
        F              7.00    18.99840     F ( 1.00)
        H              1.00     1.00794     H ( 1.00)
        N              5.00    14.00670     N ( 1.00)
        Ni            10.00    58.69340     Ni( 1.00)
        O              6.00    15.99940     O ( 1.00)

     Starting magnetic structure 
     atomic species   magnetization
        C            0.000
        F            0.000
        H            0.000
        N            0.000
        Ni           0.250
        O            0.000

     No symmetry found



   Cartesian axes

     site n.     atom                  positions (alat units)
         1           C   tau(   1) = (   0.5574254   1.9428615   0.8576972  )
         2           C   tau(   2) = (   0.0759460   0.0623006   0.0366554  )
         3           C   tau(   3) = (   0.7613774   0.0235735   0.8979675  )
         4           C   tau(   4) = (   0.2788093   1.9782998   0.0758247  )
         5           C   tau(   5) = (   0.8801573   1.9431659   1.0686561  )
         6           C   tau(   6) = (   0.3995851   0.0567867   0.2462965  )
         7           C   tau(   7) = (   0.3972033   1.0609159   0.8649271  )
         8           C   tau(   8) = (   0.9160753   0.9441600   0.0458504  )
         9           C   tau(   9) = (   0.4682005   1.2284080   0.9964628  )
        10           C   tau(  10) = (   0.9896845   0.7784605   0.1784739  )
        11           C   tau(  11) = (   0.4769962   1.7809433   0.9911521  )
        12           C   tau(  12) = (  -0.0016555   0.2247835   0.1712933  )
        13           C   tau(  13) = (   0.7894720   1.7812978   1.1954760  )
        14           C   tau(  14) = (   0.3115769   0.2194059   0.3743289  )
        15           C   tau(  15) = (   0.1512493   1.2196996   1.1951474  )
        16           C   tau(  16) = (   0.6734303   0.7843809   0.3769284  )
        17           C   tau(  17) = (   0.0701431   1.0516528   1.0702023  )
        18           C   tau(  18) = (   0.5897559   0.9507734   0.2509975  )
        19           C   tau(  19) = (   0.1963045   0.9699186   0.9039223  )
        20           C   tau(  20) = (   0.7138218   1.0327799   0.0832058  )
        21           C   tau(  21) = (   0.8496346   0.1989207   0.7667276  )
        22           C   tau(  22) = (   0.3278858   1.8020013   1.5867425  )
        23           C   tau(  23) = (   0.1176230   0.7900710   0.7733906  )
        24           C   tau(  24) = (   0.5968117   1.2100639   1.5923867  )
        25           F   tau(  25) = (   0.4352903   0.0110117   0.6934267  )
        26           F   tau(  26) = (   0.9158298   1.9968883   1.5155975  )
        27           F   tau(  27) = (   0.8732043   0.9734997   1.1135305  )
        28           F   tau(  28) = (   0.0069066   1.0139652   1.5279276  )
        29           H   tau(  29) = (   0.0396097   2.0004533   1.1066934  )
        30           H   tau(  30) = (   0.5583985   2.0001729   0.2836107  )
        31           H   tau(  31) = (   0.5010477   1.0032159   0.7382370  )
        32           H   tau(  32) = (   0.6237108   1.3028638   0.9737873  )
        33           H   tau(  33) = (   0.1464781   0.7067065   0.1561451  )
        34           H   tau(  34) = (   0.3188852   1.7126803   0.9670915  )
        35           H   tau(  35) = (   0.8413733   0.2958846   0.1476960  )
        36           H   tau(  36) = (   0.8773021   1.7127804   1.3289144  )
        37           H   tau(  37) = (   0.4012392   0.2866134   0.5073993  )
        38           H   tau(  38) = (   0.0580985   1.2877183   1.3253767  )
        39           H   tau(  39) = (   0.5815079   0.7160698   0.5078167  )
        40           H   tau(  40) = (   0.4315256   1.0118402   0.2879848  )
        41           N   tau(  41) = (   0.5912202   1.7049293   1.1581371  )
        42           N   tau(  42) = (   0.1139590   0.2981378   0.3385740  )
        43           N   tau(  43) = (   0.3473934   1.3024713   1.1597967  )
        44           N   tau(  44) = (   0.8700476   0.7028550   0.3418423  )
        45           Ni  tau(  45) = (   0.4635628   1.5051113   1.3742078  )
        46           Ni  tau(  46) = (   0.9875994   0.4967040   0.5573198  )
        47           O   tau(  47) = (   0.2316209   0.6963678   0.6291172  )
        48           O   tau(  48) = (   0.7103381   1.3038072   1.4480936  )
        49           O   tau(  49) = (   0.7415322   0.2954339   0.6197595  )
        50           O   tau(  50) = (   0.2183012   1.7071304   1.4398270  )
        51           O   tau(  51) = (   0.9285576   0.7133339   0.7936309  )
        52           O   tau(  52) = (   0.4066087   1.2846559   1.6100834  )
        53           O   tau(  53) = (   0.0401684   0.2707008   0.7904826  )
        54           O   tau(  54) = (   0.5177231   1.7279720   1.6092980  )

     number of k points=     1  Marzari-Vanderbilt smearing, width (Ry)=  0.2000
                       cart. coord. in units 2pi/alat
        k(    1) = (   0.0000000   0.0000000   0.0000000), wk =   1.0000000

     Dense  grid:   366763 G-vectors     FFT dimensions: (  75, 160, 125)

     Estimated max dynamical RAM per process >     189.85 MB

     Estimated total dynamical RAM >       2.97 GB
     Generating pointlists ...
     new r_m :   0.0716 (alat units)  0.8461 (a.u.) for type    1
     new r_m :   0.0892 (alat units)  1.0541 (a.u.) for type    2
     new r_m :   0.0716 (alat units)  0.8461 (a.u.) for type    3
     new r_m :   0.0890 (alat units)  1.0514 (a.u.) for type    4
     new r_m :   0.1308 (alat units)  1.5454 (a.u.) for type    5
     new r_m :   0.0846 (alat units)  0.9991 (a.u.) for type    6

     Check: negative core charge=   -0.000145

     Initial potential from superposition of free atoms

     starting charge  223.99839, renormalised to  224.00000
     Starting wfcs are  190 randomized atomic wfcs

     total cpu time spent up to now is       18.2 secs

     Self-consistent Calculation

     iteration #  1     ecut=   100.00 Ry     beta= 0.70
     Davidson diagonalization with overlap
     ethr =  1.00E-02,  avg # of iterations =  4.0

     total cpu time spent up to now is       51.6 secs

     total energy              =    -997.40245324 Ry
     Harris-Foulkes estimate   =   -1001.03720343 Ry
     estimated scf accuracy    <       9.10616104 Ry

     total magnetization       =     4.00 Bohr mag/cell
     absolute magnetization    =     4.33 Bohr mag/cell

     iteration #  2     ecut=   100.00 Ry     beta= 0.70
     Davidson diagonalization with overlap
     ethr =  4.07E-03,  avg # of iterations =  2.0

     total cpu time spent up to now is       72.5 secs

     total energy              =    -998.88562777 Ry
     Harris-Foulkes estimate   =   -1000.73517818 Ry
     estimated scf accuracy    <       9.33255120 Ry

     total magnetization       =     4.00 Bohr mag/cell
     absolute magnetization    =     4.15 Bohr mag/cell

     iteration #  3     ecut=   100.00 Ry     beta= 0.70
     Davidson diagonalization with overlap
     ethr =  4.07E-03,  avg # of iterations =  1.0

     total cpu time spent up to now is       94.5 secs

     total energy              =    -998.85204353 Ry
     Harris-Foulkes estimate   =    -999.28491244 Ry
     estimated scf accuracy    <       1.34334946 Ry

     total magnetization       =     4.00 Bohr mag/cell
     absolute magnetization    =     4.10 Bohr mag/cell

     iteration #  4     ecut=   100.00 Ry     beta= 0.70
     Davidson diagonalization with overlap
     ethr =  6.00E-04,  avg # of iterations =  6.0

     total cpu time spent up to now is      118.3 secs

     total energy              =    -998.83392332 Ry
     Harris-Foulkes estimate   =    -999.26688989 Ry
     estimated scf accuracy    <       3.59788859 Ry

     total magnetization       =     4.00 Bohr mag/cell
     absolute magnetization    =     4.14 Bohr mag/cell

     iteration #  5     ecut=   100.00 Ry     beta= 0.70
     Davidson diagonalization with overlap
     ethr =  6.00E-04,  avg # of iterations =  2.0

     total cpu time spent up to now is      139.1 secs

     total energy              =    -999.01752829 Ry
     Harris-Foulkes estimate   =    -999.04745905 Ry
     estimated scf accuracy    <       0.15157065 Ry

     total magnetization       =     4.00 Bohr mag/cell
     absolute magnetization    =     4.13 Bohr mag/cell

     iteration #  6     ecut=   100.00 Ry     beta= 0.70
     Davidson diagonalization with overlap
     ethr =  6.77E-05,  avg # of iterations =  7.0

     total cpu time spent up to now is      160.1 secs

     total energy              =    -999.01818129 Ry
     Harris-Foulkes estimate   =    -999.04612818 Ry
     estimated scf accuracy    <       0.53632168 Ry

     total magnetization       =     4.00 Bohr mag/cell
     absolute magnetization    =     4.13 Bohr mag/cell

     iteration #  7     ecut=   100.00 Ry     beta= 0.70
     Davidson diagonalization with overlap
     ethr =  6.77E-05,  avg # of iterations =  1.0

     total cpu time spent up to now is      179.1 secs

     total energy              =    -998.97977258 Ry
     Harris-Foulkes estimate   =    -999.03025806 Ry
     estimated scf accuracy    <       0.29176843 Ry

     total magnetization       =     4.00 Bohr mag/cell
     absolute magnetization    =     4.13 Bohr mag/cell

     iteration #  8     ecut=   100.00 Ry     beta= 0.70
     Davidson diagonalization with overlap
     ethr =  6.77E-05,  avg # of iterations =  2.5

     total cpu time spent up to now is      200.4 secs

     total energy              =    -999.00070151 Ry
     Harris-Foulkes estimate   =    -999.01090919 Ry
     estimated scf accuracy    <       0.08105948 Ry

     total magnetization       =     4.00 Bohr mag/cell
     absolute magnetization    =     4.14 Bohr mag/cell

     iteration #  9     ecut=   100.00 Ry     beta= 0.70
     Davidson diagonalization with overlap
     ethr =  3.62E-05,  avg # of iterations =  7.0

     total cpu time spent up to now is      221.2 secs

     total energy              =    -999.00915755 Ry
     Harris-Foulkes estimate   =    -999.00795817 Ry
     estimated scf accuracy    <       0.01531715 Ry

     total magnetization       =     4.00 Bohr mag/cell
     absolute magnetization    =     4.14 Bohr mag/cell

     iteration # 10     ecut=   100.00 Ry     beta= 0.70
     Davidson diagonalization with overlap
     ethr =  6.84E-06,  avg # of iterations =  5.5

     total cpu time spent up to now is      244.9 secs

     total energy              =    -999.00969242 Ry
     Harris-Foulkes estimate   =    -999.00954708 Ry
     estimated scf accuracy    <       0.00720459 Ry

     total magnetization       =     4.00 Bohr mag/cell
     absolute magnetization    =     4.13 Bohr mag/cell

     iteration # 11     ecut=   100.00 Ry     beta= 0.70
     Davidson diagonalization with overlap
     ethr =  3.22E-06,  avg # of iterations =  2.5

     total cpu time spent up to now is      264.8 secs

     total energy              =    -999.01076821 Ry
     Harris-Foulkes estimate   =    -999.01043724 Ry
     estimated scf accuracy    <       0.00232975 Ry

     total magnetization       =     4.00 Bohr mag/cell
     absolute magnetization    =     4.13 Bohr mag/cell

     iteration # 12     ecut=   100.00 Ry     beta= 0.70
     Davidson diagonalization with overlap
     ethr =  1.04E-06,  avg # of iterations =  3.0

     total cpu time spent up to now is      283.8 secs

     total energy              =    -999.01113974 Ry
     Harris-Foulkes estimate   =    -999.01090198 Ry
     estimated scf accuracy    <       0.00025167 Ry

     total magnetization       =     4.00 Bohr mag/cell
     absolute magnetization    =     4.13 Bohr mag/cell

     iteration # 13     ecut=   100.00 Ry     beta= 0.70
     Davidson diagonalization with overlap
     ethr =  1.12E-07,  avg # of iterations =  4.5

     total cpu time spent up to now is      307.5 secs

     total energy              =    -999.01120025 Ry
     Harris-Foulkes estimate   =    -999.01115893 Ry
     estimated scf accuracy    <       0.00007417 Ry

     total magnetization       =     4.00 Bohr mag/cell
     absolute magnetization    =     4.13 Bohr mag/cell

     iteration # 14     ecut=   100.00 Ry     beta= 0.70
     Davidson diagonalization with overlap
     ethr =  3.31E-08,  avg # of iterations =  3.0

     total cpu time spent up to now is      327.8 secs

     total energy              =    -999.01121558 Ry
     Harris-Foulkes estimate   =    -999.01120484 Ry
     estimated scf accuracy    <       0.00003402 Ry

     total magnetization       =     4.00 Bohr mag/cell
     absolute magnetization    =     4.13 Bohr mag/cell

     iteration # 15     ecut=   100.00 Ry     beta= 0.70
     Davidson diagonalization with overlap
     ethr =  1.52E-08,  avg # of iterations =  3.0

     total cpu time spent up to now is      349.5 secs

     total energy              =    -999.01121870 Ry
     Harris-Foulkes estimate   =    -999.01121753 Ry
     estimated scf accuracy    <       0.00001101 Ry

     total magnetization       =     4.00 Bohr mag/cell
     absolute magnetization    =     4.13 Bohr mag/cell

     iteration # 16     ecut=   100.00 Ry     beta= 0.70
     Davidson diagonalization with overlap
     ethr =  4.91E-09,  avg # of iterations =  3.0

     total cpu time spent up to now is      369.4 secs

     total energy              =    -999.01122021 Ry
     Harris-Foulkes estimate   =    -999.01121943 Ry
     estimated scf accuracy    <       0.00000801 Ry

     total magnetization       =     4.00 Bohr mag/cell
     absolute magnetization    =     4.13 Bohr mag/cell

     iteration # 17     ecut=   100.00 Ry     beta= 0.70
     Davidson diagonalization with overlap
     ethr =  3.58E-09,  avg # of iterations =  2.0

     total cpu time spent up to now is      389.0 secs

     total energy              =    -999.01122065 Ry
     Harris-Foulkes estimate   =    -999.01122054 Ry
     estimated scf accuracy    <       0.00000363 Ry

     total magnetization       =     4.00 Bohr mag/cell
     absolute magnetization    =     4.13 Bohr mag/cell

     iteration # 18     ecut=   100.00 Ry     beta= 0.70
     Davidson diagonalization with overlap
     ethr =  1.62E-09,  avg # of iterations =  2.5

     total cpu time spent up to now is      410.3 secs

     total energy              =    -999.01122092 Ry
     Harris-Foulkes estimate   =    -999.01122079 Ry
     estimated scf accuracy    <       0.00000119 Ry

     total magnetization       =     4.00 Bohr mag/cell
     absolute magnetization    =     4.13 Bohr mag/cell

     iteration # 19     ecut=   100.00 Ry     beta= 0.70
     Davidson diagonalization with overlap
     ethr =  5.29E-10,  avg # of iterations =  2.5

     total cpu time spent up to now is      430.1 secs

     total energy              =    -999.01122093 Ry
     Harris-Foulkes estimate   =    -999.01122098 Ry
     estimated scf accuracy    <       0.00000100 Ry

     total magnetization       =     4.00 Bohr mag/cell
     absolute magnetization    =     4.13 Bohr mag/cell

     iteration # 20     ecut=   100.00 Ry     beta= 0.70
     Davidson diagonalization with overlap
     ethr =  4.46E-10,  avg # of iterations =  2.0
 
     Magnetic moment per site:
     atom:    1    charge:    0.8143    magn:    0.0058    constr:    0.0000
     atom:    2    charge:    0.8135    magn:    0.0058    constr:    0.0000
     atom:    3    charge:    0.8510    magn:    0.0057    constr:    0.0000
     atom:    4    charge:    0.8499    magn:    0.0057    constr:    0.0000
     atom:    5    charge:    0.8442    magn:    0.0057    constr:    0.0000
     atom:    6    charge:    0.8439    magn:    0.0057    constr:    0.0000
     atom:    7    charge:    0.8452    magn:    0.0053    constr:    0.0000
     atom:    8    charge:    0.8133    magn:    0.0054    constr:    0.0000
     atom:    9    charge:    0.8376    magn:    0.0066    constr:    0.0000
     atom:   10    charge:    0.8411    magn:    0.0070    constr:    0.0000
     atom:   11    charge:    0.8411    magn:    0.0072    constr:    0.0000
     atom:   12    charge:    0.8410    magn:    0.0072    constr:    0.0000
     atom:   13    charge:    0.8400    magn:    0.0063    constr:    0.0000
     atom:   14    charge:    0.8397    magn:    0.0064    constr:    0.0000
     atom:   15    charge:    0.8441    magn:    0.0079    constr:    0.0000
     atom:   16    charge:    0.8398    magn:    0.0057    constr:    0.0000
     atom:   17    charge:    0.8143    magn:    0.0059    constr:    0.0000
     atom:   18    charge:    0.8450    magn:    0.0049    constr:    0.0000
     atom:   19    charge:    0.8521    magn:    0.0058    constr:    0.0000
     atom:   20    charge:    0.8499    magn:    0.0058    constr:    0.0000
     atom:   21    charge:    0.8222    magn:   -0.0023    constr:    0.0000
     atom:   22    charge:    0.8214    magn:   -0.0022    constr:    0.0000
     atom:   23    charge:    0.8221    magn:   -0.0021    constr:    0.0000
     atom:   24    charge:    0.8222    magn:   -0.0025    constr:    0.0000
     atom:   25    charge:    4.6969    magn:    0.0089    constr:    0.0000
     atom:   26    charge:    4.6965    magn:    0.0088    constr:    0.0000
     atom:   27    charge:    4.6931    magn:    0.0137    constr:    0.0000
     atom:   28    charge:    4.6954    magn:    0.0097    constr:    0.0000
     atom:   29    charge:    0.4849    magn:   -0.0015    constr:    0.0000
     atom:   30    charge:    0.4845    magn:   -0.0015    constr:    0.0000
     atom:   31    charge:    0.4848    magn:   -0.0014    constr:    0.0000
     atom:   32    charge:    0.4924    magn:   -0.0012    constr:    0.0000
     atom:   33    charge:    0.4852    magn:   -0.0012    constr:    0.0000
     atom:   34    charge:    0.4846    magn:   -0.0012    constr:    0.0000
     atom:   35    charge:    0.4849    magn:   -0.0012    constr:    0.0000
     atom:   36    charge:    0.4879    magn:   -0.0007    constr:    0.0000
     atom:   37    charge:    0.4877    magn:   -0.0006    constr:    0.0000
     atom:   38    charge:    0.4812    magn:   -0.0009    constr:    0.0000
     atom:   39    charge:    0.4872    magn:   -0.0011    constr:    0.0000
     atom:   40    charge:    0.4846    magn:   -0.0015    constr:    0.0000
     atom:   41    charge:    2.4459    magn:    0.0132    constr:    0.0000
     atom:   42    charge:    2.4458    magn:    0.0133    constr:    0.0000
     atom:   43    charge:    2.4482    magn:    0.0129    constr:    0.0000
     atom:   44    charge:    2.4450    magn:    0.0132    constr:    0.0000
     atom:   45    charge:    7.4313    magn:    1.1394    constr:    0.0000
     atom:   46    charge:    7.4310    magn:    1.1381    constr:    0.0000
     atom:   47    charge:    3.2566    magn:    0.0613    constr:    0.0000
     atom:   48    charge:    3.2533    magn:    0.0671    constr:    0.0000
     atom:   49    charge:    3.2561    magn:    0.0639    constr:    0.0000
     atom:   50    charge:    3.2552    magn:    0.0642    constr:    0.0000
     atom:   51    charge:    3.2541    magn:    0.0648    constr:    0.0000
     atom:   52    charge:    3.2561    magn:    0.0674    constr:    0.0000
     atom:   53    charge:    3.2558    magn:    0.0674    constr:    0.0000
     atom:   54    charge:    3.2530    magn:    0.0668    constr:    0.0000

     total cpu time spent up to now is      449.8 secs

     End of self-consistent calculation

 ------ SPIN UP ------------


          k = 0.0000 0.0000 0.0000 ( 45819 PWs)   bands (ev):

   -25.1155 -25.0993 -25.0518 -24.9352 -22.2674 -22.2516 -22.1366 -22.1243
   -19.2377 -19.2153 -19.2093 -19.1947 -19.0743 -19.0489 -18.9639 -18.9385
   -15.3858 -15.3213 -15.2999 -15.2891 -14.0279 -13.9865 -13.9437 -13.7995
   -11.7729 -11.6150 -11.5785 -11.5168 -10.8834 -10.8507 -10.7985 -10.7777
    -9.5368  -9.3000  -8.9529  -8.8375  -8.2295  -8.1184  -8.0443  -7.9409
    -7.8460  -7.7095  -7.6645  -7.6103  -7.5549  -7.3304  -6.9265  -6.7883
    -6.6281  -6.5527  -6.4978  -6.4407  -6.3929  -6.3264  -6.2426  -6.1435
    -6.1280  -6.0695  -6.0116  -5.9763  -5.9553  -5.6917  -5.6123  -5.5811
    -5.5595  -5.5062  -5.4669  -5.3922  -4.8674  -4.8169  -4.7502  -4.7425
    -4.6030  -4.5451  -4.4401  -4.4263  -4.3988  -4.2187  -4.0433  -3.9163
    -3.7782  -3.7440  -3.6071  -3.4673  -3.2174  -3.1538  -3.0789  -2.9738
    -2.8559  -2.8543  -2.8039  -2.7656  -2.5664  -2.3874  -2.2753  -2.2255
    -2.2116  -2.0839  -2.0334  -1.9491  -1.8787  -1.8288  -1.8220  -1.7967
    -1.7133  -1.5793  -1.4445  -1.3893  -1.2819  -1.2172   0.0351   0.1104
     0.2868   0.3059   2.1297   2.1754   2.1903   2.3283   3.3610   3.4288
     3.6767   3.7724   3.8923   4.5616   4.7345   4.8281   4.9021   4.9886
     5.3300   5.5690   5.8776   5.9663   6.0155   6.3285   6.6735   6.8520
     6.9272

 ------ SPIN DOWN ----------


          k = 0.0000 0.0000 0.0000 ( 45819 PWs)   bands (ev):

   -25.0974 -25.0813 -25.0302 -24.9100 -22.1482 -22.1286 -22.0174 -22.0017
   -19.0869 -19.0643 -19.0538 -19.0368 -19.0284 -19.0108 -18.9272 -18.9011
   -15.3446 -15.2804 -15.2587 -15.2476 -13.9835 -13.9417 -13.9003 -13.7541
   -11.7253 -11.5719 -11.5327 -11.4702 -10.8540 -10.8203 -10.7687 -10.7467
    -9.5055  -9.2693  -8.9172  -8.8007  -8.1885  -8.0845  -8.0170  -7.9014
    -7.8091  -7.6692  -7.6214  -7.5651  -7.4909  -7.2538  -6.8500  -6.7134
    -6.5329  -6.4336  -6.3994  -6.3473  -6.2566  -6.2169  -6.1578  -6.0578
    -6.0078  -5.9465  -5.9124  -5.8420  -5.8298  -5.6384  -5.5615  -5.5320
    -5.5020  -5.4399  -5.4277  -5.3137  -4.7913  -4.7312  -4.7122  -4.6910
    -4.5481  -4.4837  -4.3787  -4.3240  -4.2844  -3.8847  -3.8657  -3.8148
    -3.6157  -3.4998  -3.4056  -3.2505  -2.9399  -2.7953  -2.6954  -2.6876
    -2.4903  -2.3858  -2.3250  -2.3135  -2.2559  -2.1337  -2.0474  -1.9929
    -1.8770  -1.8064  -1.5921  -1.4874  -1.4091  -1.3441  -1.3162  -1.2249
    -1.1398  -0.9896  -0.9772  -0.9578  -0.9272  -0.8359   0.8267   0.8684
     1.0099   1.0482   2.2528   2.2904   2.3198   2.4347   3.4537   3.5206
     3.7745   3.8697   3.9326   4.6220   4.8090   4.9064   4.9948   5.0582
     5.3686   5.6125   5.9134   6.0016   6.0544   6.3761   6.7037   6.8886
     6.9596

     the spin up/dw Fermi energies are     0.5341    0.1755 ev

!    total energy              =    -999.01122082 Ry
     Harris-Foulkes estimate   =    -999.01122096 Ry
     estimated scf accuracy    <       0.00000038 Ry

     The total energy is the sum of the following terms:

     one-electron contribution =   -1389.39206289 Ry
     hartree contribution      =     778.05580593 Ry
     xc contribution           =    -280.14263827 Ry
     ewald contribution        =    -108.77458493 Ry
     Dispersion Correction     =      -0.22380100 Ry
     smearing contrib. (-TS)   =       1.46606035 Ry

     total magnetization       =     4.00 Bohr mag/cell
     absolute magnetization    =     4.13 Bohr mag/cell

     convergence has been achieved in  20 iterations

     Forces acting on atoms (cartesian axes, Ry/au):

     atom    1 type  1   force =    -0.03308726    0.01245504   -0.03800595
     atom    2 type  1   force =    -0.03354349   -0.01211762   -0.03877363
     atom    3 type  1   force =     0.02661750    0.02314974   -0.00845340
     atom    4 type  1   force =     0.02729888   -0.02352170   -0.00828864
     atom    5 type  1   force =    -0.01751622   -0.00621786   -0.01009765
     atom    6 type  1   force =    -0.01892079    0.00666962   -0.01044538
     atom    7 type  1   force =    -0.00911904    0.00491148    0.01717755
     atom    8 type  1   force =     0.03970674    0.01490170   -0.04493131
     atom    9 type  1   force =     0.00600822    0.00254001   -0.00518313
     atom   10 type  1   force =     0.01260116   -0.01793560    0.01174176
     atom   11 type  1   force =    -0.01505128   -0.01683081    0.01175577
     atom   12 type  1   force =    -0.01496914    0.01683888    0.01191193
     atom   13 type  1   force =     0.00684267   -0.01492417    0.00175348
     atom   14 type  1   force =     0.00689585    0.01629790    0.00098522
     atom   15 type  1   force =     0.00578314    0.03353723    0.01951886
     atom   16 type  1   force =    -0.01081097    0.00324777    0.00318866
     atom   17 type  1   force =    -0.05855433   -0.01868037    0.00889178
     atom   18 type  1   force =     0.02091669   -0.00986481   -0.00383109
     atom   19 type  1   force =     0.00308544   -0.02921858   -0.02881686
     atom   20 type  1   force =    -0.02648473    0.02546789   -0.01059621
     atom   21 type  1   force =    -0.00444858    0.00251022   -0.00459211
     atom   22 type  1   force =    -0.00476597   -0.00150882   -0.00461901
     atom   23 type  1   force =    -0.00587493   -0.00047645    0.00229120
     atom   24 type  1   force =     0.00701856    0.00144925   -0.00676015
     atom   25 type  2   force =     0.04559499   -0.04616951    0.07834036
     atom   26 type  2   force =     0.04598831    0.04370552    0.07681326
     atom   27 type  2   force =     0.07913149    0.03018211   -0.01621433
     atom   28 type  2   force =    -0.04769726   -0.04288934    0.08052897
     atom   29 type  3   force =    -0.00203949    0.00247575   -0.00247932
     atom   30 type  3   force =    -0.00168089   -0.00251414   -0.00291794
     atom   31 type  3   force =    -0.00227447   -0.00319015   -0.00143639
     atom   32 type  3   force =    -0.00507102   -0.00109310    0.00111481
     atom   33 type  3   force =     0.00230147    0.00226897   -0.00528172
     atom   34 type  3   force =    -0.00270388    0.00295261   -0.00578888
     atom   35 type  3   force =    -0.00238181   -0.00345246   -0.00570501
     atom   36 type  3   force =    -0.00466168   -0.00079811   -0.00948099
     atom   37 type  3   force =    -0.00560721    0.00108019   -0.01146574
     atom   38 type  3   force =    -0.00138918   -0.00330458   -0.00640735
     atom   39 type  3   force =     0.00109330    0.00003164   -0.00134186
     atom   40 type  3   force =    -0.00136062    0.00412408   -0.00443872
     atom   41 type  4   force =    -0.00223348    0.00863419   -0.01228239
     atom   42 type  4   force =    -0.00235635   -0.00827976   -0.01346994
     atom   43 type  4   force =    -0.01523178   -0.00628197   -0.00321059
     atom   44 type  4   force =     0.00495189    0.00522677   -0.01044315
     atom   45 type  5   force =     0.00115509   -0.00121793    0.00384046
     atom   46 type  5   force =     0.00095103   -0.00206997    0.00325649
     atom   47 type  6   force =     0.00403925    0.00216744   -0.00088691
     atom   48 type  6   force =    -0.00867471    0.00682560    0.00329465
     atom   49 type  6   force =     0.00588362    0.00490153   -0.00019563
     atom   50 type  6   force =     0.00524663   -0.00406921   -0.00047220
     atom   51 type  6   force =     0.00339792   -0.00375763   -0.00627111
     atom   52 type  6   force =     0.00075099    0.00163636    0.00310938
     atom   53 type  6   force =    -0.00269585    0.00125875    0.00174458
     atom   54 type  6   force =    -0.00205445   -0.00106357    0.00232550

     Total force =     0.256107     Total SCF correction =     0.001650

     BFGS Geometry Optimization

     number of scf cycles    =   1
     number of bfgs steps    =   0

     energy   new            =    -999.0112208230 Ry

     new trust radius        =       0.1029535768 bohr
     new conv_thr            =       0.0000010000 Ry


ATOMIC_POSITIONS (crystal)
C             0.5735535603        0.9705762887        0.5200265021
C             0.0738465103        0.0305939691        0.0203109627
C             0.7835058028        0.0127481940        0.5460566071
C             0.2827837772        0.9867500886        0.0457190930
C             0.9023286642        0.9699392640        0.6498509201
C             0.4034201434        0.0286348255        0.1493550103
C             0.4156234551        0.5299115350        0.5272687307
C             0.9203671654        0.4720386723        0.0255898108
C             0.4907727617        0.6134383283        0.6061680426
C             0.9947264541        0.3879191297        0.1092217598
C             0.4977002425        0.8884948129        0.6038084816
C             0.0008944866        0.1129435282        0.1048605244
C             0.8165363859        0.8887523780        0.7276423129
C             0.3204544455        0.1102356691        0.2278627437
C             0.1782500222        0.6104001183        0.7283573198
C             0.6808710404        0.3917702348        0.2295582321
C             0.0889111906        0.5242896594        0.6517699716
C             0.5970790065        0.4742941617        0.1525566794
C             0.2165350983        0.4830353669        0.5486317863
C             0.7134037212        0.5167321476        0.0500922419
C             0.8662339056        0.0994250694        0.4663844832
C             0.3626229947        0.8996562449        0.9654340979
C             0.1342620973        0.3944538678        0.4707940082
C             0.6326673104        0.6042332382        0.9687588184
F             0.4546565901        0.0035471039        0.4260459241
F             0.9534390145        0.9988717798        0.9263302705
F             0.9045375354        0.4873333473        0.6768458803
F             0.0368673291        0.5044497077        0.9340256483
H             0.0639477492        0.9989096130        0.6733923026
H             0.5645332753        0.9985587648        0.1724517115
H             0.5172058177        0.5007601998        0.4492080185
H             0.6448549277        0.6504598109        0.5926924181
H             0.1501218729        0.3529468754        0.0947559649
H             0.3400683173        0.8552477628        0.5882618436
H             0.8444327311        0.1475861159        0.0895921633
H             0.9063277061        0.8551392758        0.8082726809
H             0.4119829644        0.1431486435        0.3082064565
H             0.0873284214        0.6428043647        0.8062779890
H             0.5928470111        0.3575273371        0.3089818873
H             0.4377815288        0.5053752632        0.1750353837
N             0.6166629538        0.8516178384        0.7041953950
N             0.1212343289        0.1485071383        0.2053582301
N             0.3717899092        0.6500445549        0.7056726386
N             0.8780195028        0.3511488574        0.2075031249
Ni            0.4941089552        0.7514345362        0.8365238030
Ni            1.0000315911        0.2479115334        0.3393457255
O             0.2458971805        0.3477805854        0.3828273195
O             0.7416880316        0.6512654163        0.8814616913
O             0.7557585667        0.1477141144        0.3771679241
O             0.2506391389        0.8521800550        0.8762366795
O             0.9464138106        0.3560012209        0.4826710064
O             0.4423443862        0.6414841444        0.9800371488
O             0.0574541197        0.1352111885        0.4811678546
O             0.5532024905        0.8627130587        0.9795187749



     Writing output data file ./QE_relaxation_results/PBESOL_relax/NiPyC2_relax/NiPyC2_relax_meta_functionalized_F_pbesol_relax.save/
     NEW-OLD atomic charge density approx. for the potential

     Check: negative core charge=   -0.000145

     total cpu time spent up to now is      466.1 secs

     Self-consistent Calculation

     iteration #  1     ecut=   100.00 Ry     beta= 0.70
     Davidson diagonalization with overlap
     ethr =  1.00E-06,  avg # of iterations = 17.0

     total cpu time spent up to now is      543.8 secs

     total energy              =    -999.01426080 Ry
     Harris-Foulkes estimate   =    -999.02930077 Ry
     estimated scf accuracy    <       0.05710828 Ry

     total magnetization       =     4.00 Bohr mag/cell
     absolute magnetization    =     4.13 Bohr mag/cell

     iteration #  2     ecut=   100.00 Ry     beta= 0.70
     Davidson diagonalization with overlap
     ethr =  2.55E-05,  avg # of iterations =  1.5

     total cpu time spent up to now is      562.9 secs

     total energy              =    -999.00972779 Ry
     Harris-Foulkes estimate   =    -999.02337284 Ry
     estimated scf accuracy    <       0.07401607 Ry

     total magnetization       =     4.00 Bohr mag/cell
     absolute magnetization    =     4.13 Bohr mag/cell

     iteration #  3     ecut=   100.00 Ry     beta= 0.70
     Davidson diagonalization with overlap
     ethr =  2.55E-05,  avg # of iterations =  1.5

     total cpu time spent up to now is      581.4 secs

     total energy              =    -999.01412280 Ry
     Harris-Foulkes estimate   =    -999.02066859 Ry
     estimated scf accuracy    <       0.04785260 Ry

     total magnetization       =     4.00 Bohr mag/cell
     absolute magnetization    =     4.13 Bohr mag/cell

     iteration #  4     ecut=   100.00 Ry     beta= 0.70
     Davidson diagonalization with overlap
     ethr =  2.14E-05,  avg # of iterations =  1.0

     total cpu time spent up to now is      601.2 secs

     total energy              =    -999.01533260 Ry
     Harris-Foulkes estimate   =    -999.01655744 Ry
     estimated scf accuracy    <       0.00538415 Ry

     total magnetization       =     4.00 Bohr mag/cell
     absolute magnetization    =     4.13 Bohr mag/cell

     iteration #  5     ecut=   100.00 Ry     beta= 0.70
     Davidson diagonalization with overlap
     ethr =  2.40E-06,  avg # of iterations =  4.0

     total cpu time spent up to now is      623.8 secs

     total energy              =    -999.01493084 Ry
     Harris-Foulkes estimate   =    -999.01625601 Ry
     estimated scf accuracy    <       0.01444039 Ry

     total magnetization       =     4.00 Bohr mag/cell
     absolute magnetization    =     4.13 Bohr mag/cell

     iteration #  6     ecut=   100.00 Ry     beta= 0.70
     Davidson diagonalization with overlap
     ethr =  2.40E-06,  avg # of iterations =  1.5

     total cpu time spent up to now is      643.2 secs

     total energy              =    -999.01521160 Ry
     Harris-Foulkes estimate   =    -999.01558385 Ry
     estimated scf accuracy    <       0.00172469 Ry

     total magnetization       =     4.00 Bohr mag/cell
     absolute magnetization    =     4.13 Bohr mag/cell

     iteration #  7     ecut=   100.00 Ry     beta= 0.70
     Davidson diagonalization with overlap
     ethr =  7.70E-07,  avg # of iterations =  4.0

     total cpu time spent up to now is      665.0 secs

     total energy              =    -999.01529381 Ry
     Harris-Foulkes estimate   =    -999.01531358 Ry
     estimated scf accuracy    <       0.00027145 Ry

     total magnetization       =     4.00 Bohr mag/cell
     absolute magnetization    =     4.13 Bohr mag/cell

     iteration #  8     ecut=   100.00 Ry     beta= 0.70
     Davidson diagonalization with overlap
     ethr =  1.21E-07,  avg # of iterations =  4.0

     total cpu time spent up to now is      685.7 secs

     total energy              =    -999.01531764 Ry
     Harris-Foulkes estimate   =    -999.01531632 Ry
     estimated scf accuracy    <       0.00010544 Ry

     total magnetization       =     4.00 Bohr mag/cell
     absolute magnetization    =     4.13 Bohr mag/cell

     iteration #  9     ecut=   100.00 Ry     beta= 0.70
     Davidson diagonalization with overlap
     ethr =  4.71E-08,  avg # of iterations =  3.0

     total cpu time spent up to now is      707.2 secs

     total energy              =    -999.01532179 Ry
     Harris-Foulkes estimate   =    -999.01532301 Ry
     estimated scf accuracy    <       0.00005675 Ry

     total magnetization       =     4.00 Bohr mag/cell
     absolute magnetization    =     4.13 Bohr mag/cell

     iteration # 10     ecut=   100.00 Ry     beta= 0.70
     Davidson diagonalization with overlap
     ethr =  2.53E-08,  avg # of iterations =  2.5

     total cpu time spent up to now is      727.2 secs

     total energy              =    -999.01532156 Ry
     Harris-Foulkes estimate   =    -999.01532412 Ry
     estimated scf accuracy    <       0.00002998 Ry

     total magnetization       =     4.00 Bohr mag/cell
     absolute magnetization    =     4.13 Bohr mag/cell

     iteration # 11     ecut=   100.00 Ry     beta= 0.70
     Davidson diagonalization with overlap
     ethr =  1.34E-08,  avg # of iterations =  2.5

     total cpu time spent up to now is      748.1 secs

     total energy              =    -999.01532216 Ry
     Harris-Foulkes estimate   =    -999.01532298 Ry
     estimated scf accuracy    <       0.00001761 Ry

     total magnetization       =     4.00 Bohr mag/cell
     absolute magnetization    =     4.13 Bohr mag/cell

     iteration # 12     ecut=   100.00 Ry     beta= 0.70
     Davidson diagonalization with overlap
     ethr =  7.86E-09,  avg # of iterations =  1.5

     total cpu time spent up to now is      767.8 secs

     total energy              =    -999.01532253 Ry
     Harris-Foulkes estimate   =    -999.01532266 Ry
     estimated scf accuracy    <       0.00001496 Ry

     total magnetization       =     4.00 Bohr mag/cell
     absolute magnetization    =     4.13 Bohr mag/cell

     iteration # 13     ecut=   100.00 Ry     beta= 0.70
     Davidson diagonalization with overlap
     ethr =  6.68E-09,  avg # of iterations =  2.5

     total cpu time spent up to now is      786.6 secs

     total energy              =    -999.01532221 Ry
     Harris-Foulkes estimate   =    -999.01532306 Ry
     estimated scf accuracy    <       0.00001008 Ry

     total magnetization       =     4.00 Bohr mag/cell
     absolute magnetization    =     4.13 Bohr mag/cell

     iteration # 14     ecut=   100.00 Ry     beta= 0.70
     Davidson diagonalization with overlap
     ethr =  4.50E-09,  avg # of iterations =  1.5

     total cpu time spent up to now is      806.3 secs

     total energy              =    -999.01532172 Ry
     Harris-Foulkes estimate   =    -999.01532273 Ry
     estimated scf accuracy    <       0.00000767 Ry

     total magnetization       =     4.00 Bohr mag/cell
     absolute magnetization    =     4.13 Bohr mag/cell

     iteration # 15     ecut=   100.00 Ry     beta= 0.70
     Davidson diagonalization with overlap
     ethr =  3.42E-09,  avg # of iterations =  2.5

     total cpu time spent up to now is      827.2 secs

     total energy              =    -999.01532225 Ry
     Harris-Foulkes estimate   =    -999.01532221 Ry
     estimated scf accuracy    <       0.00000195 Ry

     total magnetization       =     4.00 Bohr mag/cell
     absolute magnetization    =     4.13 Bohr mag/cell

     iteration # 16     ecut=   100.00 Ry     beta= 0.70
     Davidson diagonalization with overlap
     ethr =  8.71E-10,  avg # of iterations =  3.0

     total cpu time spent up to now is      847.1 secs

     total energy              =    -999.01532232 Ry
     Harris-Foulkes estimate   =    -999.01532247 Ry
     estimated scf accuracy    <       0.00000270 Ry

     total magnetization       =     4.00 Bohr mag/cell
     absolute magnetization    =     4.13 Bohr mag/cell

     iteration # 17     ecut=   100.00 Ry     beta= 0.70
     Davidson diagonalization with overlap
     ethr =  8.71E-10,  avg # of iterations =  2.5
 
     Magnetic moment per site:
     atom:    1    charge:    0.8227    magn:    0.0069    constr:    0.0000
     atom:    2    charge:    0.8218    magn:    0.0069    constr:    0.0000
     atom:    3    charge:    0.8490    magn:    0.0055    constr:    0.0000
     atom:    4    charge:    0.8481    magn:    0.0054    constr:    0.0000
     atom:    5    charge:    0.8434    magn:    0.0049    constr:    0.0000
     atom:    6    charge:    0.8431    magn:    0.0050    constr:    0.0000
     atom:    7    charge:    0.8444    magn:    0.0046    constr:    0.0000
     atom:    8    charge:    0.8225    magn:    0.0068    constr:    0.0000
     atom:    9    charge:    0.8386    magn:    0.0070    constr:    0.0000
     atom:   10    charge:    0.8407    magn:    0.0066    constr:    0.0000
     atom:   11    charge:    0.8414    magn:    0.0070    constr:    0.0000
     atom:   12    charge:    0.8414    magn:    0.0070    constr:    0.0000
     atom:   13    charge:    0.8410    magn:    0.0065    constr:    0.0000
     atom:   14    charge:    0.8408    magn:    0.0065    constr:    0.0000
     atom:   15    charge:    0.8435    magn:    0.0075    constr:    0.0000
     atom:   16    charge:    0.8400    magn:    0.0060    constr:    0.0000
     atom:   17    charge:    0.8198    magn:    0.0073    constr:    0.0000
     atom:   18    charge:    0.8449    magn:    0.0043    constr:    0.0000
     atom:   19    charge:    0.8493    magn:    0.0056    constr:    0.0000
     atom:   20    charge:    0.8469    magn:    0.0057    constr:    0.0000
     atom:   21    charge:    0.8257    magn:   -0.0019    constr:    0.0000
     atom:   22    charge:    0.8249    magn:   -0.0019    constr:    0.0000
     atom:   23    charge:    0.8258    magn:   -0.0019    constr:    0.0000
     atom:   24    charge:    0.8261    magn:   -0.0021    constr:    0.0000
     atom:   25    charge:    4.6816    magn:    0.0068    constr:    0.0000
     atom:   26    charge:    4.6819    magn:    0.0067    constr:    0.0000
     atom:   27    charge:    4.6879    magn:    0.0089    constr:    0.0000
     atom:   28    charge:    4.6820    magn:    0.0066    constr:    0.0000
     atom:   29    charge:    0.4787    magn:   -0.0014    constr:    0.0000
     atom:   30    charge:    0.4778    magn:   -0.0014    constr:    0.0000
     atom:   31    charge:    0.4787    magn:   -0.0012    constr:    0.0000
     atom:   32    charge:    0.4941    magn:   -0.0015    constr:    0.0000
     atom:   33    charge:    0.4912    magn:   -0.0009    constr:    0.0000
     atom:   34    charge:    0.4908    magn:   -0.0009    constr:    0.0000
     atom:   35    charge:    0.4911    magn:   -0.0009    constr:    0.0000
     atom:   36    charge:    0.4914    magn:   -0.0011    constr:    0.0000
     atom:   37    charge:    0.4912    magn:   -0.0011    constr:    0.0000
     atom:   38    charge:    0.4901    magn:   -0.0006    constr:    0.0000
     atom:   39    charge:    0.4888    magn:   -0.0013    constr:    0.0000
     atom:   40    charge:    0.4773    magn:   -0.0014    constr:    0.0000
     atom:   41    charge:    2.4478    magn:    0.0135    constr:    0.0000
     atom:   42    charge:    2.4479    magn:    0.0135    constr:    0.0000
     atom:   43    charge:    2.4506    magn:    0.0132    constr:    0.0000
     atom:   44    charge:    2.4442    magn:    0.0139    constr:    0.0000
     atom:   45    charge:    7.4341    magn:    1.1471    constr:    0.0000
     atom:   46    charge:    7.4326    magn:    1.1453    constr:    0.0000
     atom:   47    charge:    3.2561    magn:    0.0623    constr:    0.0000
     atom:   48    charge:    3.2597    magn:    0.0618    constr:    0.0000
     atom:   49    charge:    3.2603    magn:    0.0609    constr:    0.0000
     atom:   50    charge:    3.2594    magn:    0.0611    constr:    0.0000
     atom:   51    charge:    3.2587    magn:    0.0616    constr:    0.0000
     atom:   52    charge:    3.2564    magn:    0.0674    constr:    0.0000
     atom:   53    charge:    3.2571    magn:    0.0665    constr:    0.0000
     atom:   54    charge:    3.2538    magn:    0.0664    constr:    0.0000

     total cpu time spent up to now is      866.8 secs

     End of self-consistent calculation

 ------ SPIN UP ------------


          k = 0.0000 0.0000 0.0000 ( 45819 PWs)   bands (ev):

   -26.7425 -26.6114 -26.6024 -26.5274 -22.1420 -22.1386 -22.0140 -22.0122
   -19.0923 -19.0829 -19.0735 -19.0646 -18.9871 -18.9426 -18.8755 -18.8393
   -15.2035 -15.1386 -15.1256 -15.1076 -13.9468 -13.9008 -13.8292 -13.7045
   -11.7756 -11.6317 -11.5565 -11.4778 -10.9715 -10.9255 -10.9025 -10.8608
    -9.6035  -9.3867  -9.0341  -8.9575  -8.6500  -8.5678  -8.4996  -8.4567
    -7.9722  -7.8737  -7.8352  -7.7054  -7.6690  -7.3037  -7.1228  -7.0329
    -6.9590  -6.9160  -6.8302  -6.7594  -6.4306  -6.4179  -6.3469  -6.2252
    -6.1548  -6.1230  -6.0494  -5.9869  -5.8819  -5.8688  -5.6231  -5.5861
    -5.5205  -5.4551  -5.4394  -5.4117  -5.0283  -5.0066  -4.9793  -4.9184
    -4.8687  -4.7497  -4.7291  -4.5627  -4.3958  -4.2194  -4.0616  -3.9662
    -3.8399  -3.7395  -3.6312  -3.3807  -3.1123  -3.0374  -2.9717  -2.9006
    -2.7445  -2.7180  -2.6942  -2.6449  -2.4304  -2.2663  -2.1645  -2.0882
    -2.0644  -1.9633  -1.9094  -1.8240  -1.7324  -1.7012  -1.6923  -1.6609
    -1.5959  -1.4711  -1.2994  -1.2570  -1.1499  -1.1009   0.1814   0.2565
     0.4334   0.4516   2.2116   2.2539   2.2672   2.4100   3.3903   3.4824
     3.7171   3.8110   3.8919   4.5737   4.8349   4.9349   5.0314   5.0638
     5.3489   5.6515   5.9838   6.0831   6.1051   6.4702   6.8745   7.0074
     7.1910

 ------ SPIN DOWN ----------


          k = 0.0000 0.0000 0.0000 ( 45819 PWs)   bands (ev):

   -26.7281 -26.5968 -26.5879 -26.5088 -22.0252 -22.0195 -21.8967 -21.8954
   -18.9584 -18.9476 -18.9264 -18.9202 -18.9103 -18.8995 -18.8381 -18.8016
   -15.1626 -15.0981 -15.0850 -15.0668 -13.9030 -13.8558 -13.7861 -13.6596
   -11.7300 -11.5903 -11.5111 -11.4324 -10.9438 -10.8978 -10.8745 -10.8319
    -9.5739  -9.3586  -9.0055  -8.9283  -8.6155  -8.5393  -8.4702  -8.4245
    -7.9431  -7.8416  -7.8037  -7.6477  -7.6218  -7.2305  -7.0628  -6.9745
    -6.8850  -6.8598  -6.7609  -6.6941  -6.3297  -6.2968  -6.2263  -6.0723
    -6.0691  -5.9810  -5.9286  -5.8569  -5.7517  -5.7346  -5.5553  -5.5254
    -5.4319  -5.4205  -5.4090  -5.3794  -4.9976  -4.9564  -4.9327  -4.8858
    -4.7987  -4.6942  -4.6707  -4.4792  -4.2757  -3.9690  -3.9152  -3.9077
    -3.7281  -3.4642  -3.2848  -3.0809  -2.8372  -2.7205  -2.5993  -2.5506
    -2.3923  -2.2769  -2.2162  -2.1856  -2.1540  -2.0191  -1.9093  -1.8714
    -1.7548  -1.6810  -1.4798  -1.3723  -1.2787  -1.2091  -1.1606  -1.0909
    -1.0293  -0.8308  -0.8125  -0.7921  -0.7785  -0.6800   0.9800   1.0227
     1.1640   1.1999   2.3373   2.3678   2.4004   2.5165   3.4867   3.5775
     3.8173   3.9033   3.9451   4.6370   4.9110   5.0098   5.1243   5.1383
     5.3956   5.7036   6.0209   6.1232   6.1434   6.5278   6.9146   7.0419
     7.2270

     the spin up/dw Fermi energies are     0.7056    0.3449 ev

!    total energy              =    -999.01532237 Ry
     Harris-Foulkes estimate   =    -999.01532242 Ry
     estimated scf accuracy    <       0.00000031 Ry

     The total energy is the sum of the following terms:

     one-electron contribution =   -1395.70604005 Ry
     hartree contribution      =     780.87661169 Ry
     xc contribution           =    -280.39177986 Ry
     ewald contribution        =    -104.88059759 Ry
     Dispersion Correction     =      -0.22449280 Ry
     smearing contrib. (-TS)   =       1.31097624 Ry

     total magnetization       =     4.00 Bohr mag/cell
     absolute magnetization    =     4.13 Bohr mag/cell

     convergence has been achieved in  17 iterations

     Forces acting on atoms (cartesian axes, Ry/au):

     atom    1 type  1   force =     0.07802122   -0.04151442    0.09910239
     atom    2 type  1   force =     0.07937760    0.03955552    0.09896183
     atom    3 type  1   force =    -0.03083914   -0.00717782   -0.01240809
     atom    4 type  1   force =    -0.03156895    0.00771565   -0.01309734
     atom    5 type  1   force =     0.00784912   -0.00222542    0.00180647
     atom    6 type  1   force =     0.00885411    0.00235312    0.00250328
     atom    7 type  1   force =     0.00531372   -0.00850555   -0.00800231
     atom    8 type  1   force =    -0.09239575   -0.04476817    0.10923850
     atom    9 type  1   force =    -0.01698251   -0.00558135    0.00182053
     atom   10 type  1   force =    -0.00830198    0.01873841   -0.01567540
     atom   11 type  1   force =     0.00947647    0.01886892   -0.01471538
     atom   12 type  1   force =     0.00912651   -0.01973536   -0.01570879
     atom   13 type  1   force =    -0.00498701    0.00596678   -0.02359021
     atom   14 type  1   force =    -0.00571950   -0.00558201   -0.02495090
     atom   15 type  1   force =    -0.01440344   -0.02590528   -0.02813607
     atom   16 type  1   force =     0.01044486   -0.00097341   -0.00611626
     atom   17 type  1   force =     0.12209604    0.05069632   -0.03216582
     atom   18 type  1   force =    -0.01386983    0.01063491   -0.00350927
     atom   19 type  1   force =    -0.02340199    0.00872727    0.02570821
     atom   20 type  1   force =     0.03551871   -0.00990505   -0.01341145
     atom   21 type  1   force =     0.01029013    0.00920166   -0.00188283
     atom   22 type  1   force =     0.01134827   -0.00956768   -0.00202804
     atom   23 type  1   force =     0.00696728   -0.01136657   -0.01534692
     atom   24 type  1   force =    -0.01651692    0.00848957    0.00188408
     atom   25 type  2   force =    -0.04080347    0.00585655   -0.03911427
     atom   26 type  2   force =    -0.04150814   -0.00629769   -0.04017297
     atom   27 type  2   force =    -0.05890913   -0.02326745    0.01919492
     atom   28 type  2   force =     0.05297169    0.01257624   -0.04924169
     atom   29 type  3   force =    -0.01174080   -0.00210151   -0.00430987
     atom   30 type  3   force =    -0.01250806    0.00259310   -0.00483018
     atom   31 type  3   force =    -0.00866367    0.00225072    0.00834961
     atom   32 type  3   force =     0.00303269    0.00359699    0.00044551
     atom   33 type  3   force =     0.01461906   -0.00629309   -0.00281954
     atom   34 type  3   force =    -0.01541220   -0.00542907   -0.00354691
     atom   35 type  3   force =    -0.01547981    0.00537364   -0.00329374
     atom   36 type  3   force =     0.00261468   -0.00791919    0.00247557
     atom   37 type  3   force =     0.00240307    0.00868753    0.00149985
     atom   38 type  3   force =    -0.01069488    0.01160526    0.01476555
     atom   39 type  3   force =    -0.00231551   -0.00148251    0.00254059
     atom   40 type  3   force =     0.01323502   -0.00277309   -0.00601439
     atom   41 type  4   force =    -0.00403540   -0.00800743    0.00449500
     atom   42 type  4   force =    -0.00388766    0.00828706    0.00418458
     atom   43 type  4   force =     0.00455697    0.01117459    0.00204973
     atom   44 type  4   force =    -0.00083654   -0.00275756    0.00298111
     atom   45 type  5   force =    -0.00144450   -0.00021828    0.00111752
     atom   46 type  5   force =     0.00133644   -0.00028615    0.00048020
     atom   47 type  6   force =     0.00196799   -0.00082821   -0.00188913
     atom   48 type  6   force =     0.00618343    0.00945305   -0.00868818
     atom   49 type  6   force =    -0.00357918    0.00577733   -0.00624529
     atom   50 type  6   force =    -0.00352668   -0.00495604   -0.00616352
     atom   51 type  6   force =    -0.00755587   -0.00555086   -0.00189341
     atom   52 type  6   force =    -0.00228250    0.00237604    0.00140249
     atom   53 type  6   force =     0.00369163    0.00312644    0.00100720
     atom   54 type  6   force =     0.00287431   -0.00270646    0.00095348

     Total force =     0.329036     Total SCF correction =     0.001348

     number of scf cycles    =   2
     number of bfgs steps    =   1

     energy   old            =    -999.0112208230 Ry
     energy   new            =    -999.0153223670 Ry

     CASE: energy  _new < energy  _old

     new trust radius        =       0.0648555475 bohr
     new conv_thr            =       0.0000004102 Ry


ATOMIC_POSITIONS (crystal)
C             0.5764763161        0.9697828274        0.5222597464
C             0.0768200609        0.0313481155        0.0225335389
C             0.7825711991        0.0127682623        0.5456563780
C             0.2818275748        0.9867387222        0.0453024229
C             0.9024000531        0.9698451588        0.6498057681
C             0.4035140016        0.0287350421        0.1493248259
C             0.4157121111        0.5297666426        0.5272172037
C             0.9170986339        0.4711940358        0.0280237330
C             0.4901363686        0.6133381350        0.6061681230
C             0.9945493643        0.3881850479        0.1089208322
C             0.4978698314        0.8887717934        0.6035326768
C             0.0010494469        0.1126481008        0.1045602810
C             0.8164039107        0.8887680494        0.7270441301
C             0.3202898870        0.1102385052        0.2272221204
C             0.1777004067        0.6100979688        0.7278029681
C             0.6811509685        0.3917737678        0.2294281005
C             0.0932286562        0.5252326196        0.6510136837
C             0.5967948149        0.4744474378        0.1524303373
C             0.2155950152        0.4830029404        0.5490380420
C             0.7145097133        0.5167113250        0.0496463270
C             0.8666040822        0.0996404176        0.4662935391
C             0.3630335318        0.8994405788        0.9653391276
C             0.1344582510        0.3942075097        0.4704153554
C             0.6320655279        0.6044254297        0.9687461563
F             0.4535839169        0.0033264001        0.4257427479
F             0.9523405845        0.9990646061        0.9259855886
F             0.9032172032        0.4870624126        0.6771976098
F             0.0383980915        0.5043971042        0.9334787767
H             0.0634099668        0.9988832676        0.6732574568
H             0.5639674093        0.9985953230        0.1722993148
H             0.5168084955        0.5007843815        0.4494122943
H             0.6449093913        0.6505284555        0.5927141948
H             0.1507773842        0.3528294493        0.0946343371
H             0.3393631264        0.8551539124        0.5881166481
H             0.8437297469        0.1476750386        0.0894543251
H             0.9063688305        0.8549641444        0.8082505790
H             0.4119992680        0.1433422992        0.3081408317
H             0.0868619111        0.6430275023        0.8066039273
H             0.5927663140        0.3574959077        0.3090357835
H             0.4383201476        0.5053469185        0.1748382714
N             0.6164569904        0.8515114681        0.7042002959
N             0.1210321544        0.1486221362        0.2053442074
N             0.3717572451        0.6502361933        0.7056966944
N             0.8780573527        0.3511291033        0.2074854013
Ni            0.4940668208        0.7514207517        0.8365879594
Ni            1.0001045686        0.2478899177        0.3393879575
O             0.2460398797        0.3477791285        0.3827700376
O             0.7418152964        0.6515184555        0.8812655652
O             0.7556877229        0.1478742294        0.3770035368
O             0.2505609712        0.8520437167        0.8760718962
O             0.9461376582        0.3558545109        0.4825644586
O             0.4422603670        0.6415471526        0.9801020506
O             0.0575731444        0.1352873969        0.4812100047
O             0.5532963133        0.8626472828        0.9795648298



     Writing output data file ./QE_relaxation_results/PBESOL_relax/NiPyC2_relax/NiPyC2_relax_meta_functionalized_F_pbesol_relax.save/
     NEW-OLD atomic charge density approx. for the potential

     Check: negative core charge=   -0.000145

     total cpu time spent up to now is      883.0 secs

     Self-consistent Calculation

     iteration #  1     ecut=   100.00 Ry     beta= 0.70
     Davidson diagonalization with overlap
     ethr =  1.00E-06,  avg # of iterations = 15.0

     total cpu time spent up to now is      950.0 secs

     total energy              =    -999.03753511 Ry
     Harris-Foulkes estimate   =    -999.04259235 Ry
     estimated scf accuracy    <       0.01813031 Ry

     total magnetization       =     4.00 Bohr mag/cell
     absolute magnetization    =     4.14 Bohr mag/cell

     iteration #  2     ecut=   100.00 Ry     beta= 0.70
     Davidson diagonalization with overlap
     ethr =  8.09E-06,  avg # of iterations =  1.5

     total cpu time spent up to now is      969.4 secs

     total energy              =    -999.03606382 Ry
     Harris-Foulkes estimate   =    -999.04110766 Ry
     estimated scf accuracy    <       0.02967139 Ry

     total magnetization       =     4.00 Bohr mag/cell
     absolute magnetization    =     4.13 Bohr mag/cell

     iteration #  3     ecut=   100.00 Ry     beta= 0.70
     Davidson diagonalization with overlap
     ethr =  8.09E-06,  avg # of iterations =  1.5

     total cpu time spent up to now is      988.4 secs

     total energy              =    -999.03784543 Ry
     Harris-Foulkes estimate   =    -999.03971035 Ry
     estimated scf accuracy    <       0.01284980 Ry

     total magnetization       =     4.00 Bohr mag/cell
     absolute magnetization    =     4.14 Bohr mag/cell

     iteration #  4     ecut=   100.00 Ry     beta= 0.70
     Davidson diagonalization with overlap
     ethr =  5.74E-06,  avg # of iterations =  1.0

     total cpu time spent up to now is     1010.3 secs

     total energy              =    -999.03805909 Ry
     Harris-Foulkes estimate   =    -999.03853694 Ry
     estimated scf accuracy    <       0.00312416 Ry

     total magnetization       =     4.00 Bohr mag/cell
     absolute magnetization    =     4.14 Bohr mag/cell

     iteration #  5     ecut=   100.00 Ry     beta= 0.70
     Davidson diagonalization with overlap
     ethr =  1.39E-06,  avg # of iterations =  3.0

     total cpu time spent up to now is     1029.6 secs

     total energy              =    -999.03791393 Ry
     Harris-Foulkes estimate   =    -999.03842794 Ry
     estimated scf accuracy    <       0.00427597 Ry

     total magnetization       =     4.00 Bohr mag/cell
     absolute magnetization    =     4.13 Bohr mag/cell

     iteration #  6     ecut=   100.00 Ry     beta= 0.70
     Davidson diagonalization with overlap
     ethr =  1.39E-06,  avg # of iterations =  4.0

     total cpu time spent up to now is     1050.6 secs

     total energy              =    -999.03800965 Ry
     Harris-Foulkes estimate   =    -999.03810835 Ry
     estimated scf accuracy    <       0.00041839 Ry

     total magnetization       =     4.00 Bohr mag/cell
     absolute magnetization    =     4.13 Bohr mag/cell

     iteration #  7     ecut=   100.00 Ry     beta= 0.70
     Davidson diagonalization with overlap
     ethr =  1.87E-07,  avg # of iterations =  3.5

     total cpu time spent up to now is     1072.4 secs

     total energy              =    -999.03803898 Ry
     Harris-Foulkes estimate   =    -999.03804324 Ry
     estimated scf accuracy    <       0.00008991 Ry

     total magnetization       =     4.00 Bohr mag/cell
     absolute magnetization    =     4.13 Bohr mag/cell

     iteration #  8     ecut=   100.00 Ry     beta= 0.70
     Davidson diagonalization with overlap
     ethr =  4.01E-08,  avg # of iterations =  1.5

     total cpu time spent up to now is     1090.6 secs

     total energy              =    -999.03804396 Ry
     Harris-Foulkes estimate   =    -999.03804423 Ry
     estimated scf accuracy    <       0.00003512 Ry

     total magnetization       =     4.00 Bohr mag/cell
     absolute magnetization    =     4.13 Bohr mag/cell

     iteration #  9     ecut=   100.00 Ry     beta= 0.70
     Davidson diagonalization with overlap
     ethr =  1.57E-08,  avg # of iterations =  3.0

     total cpu time spent up to now is     1113.2 secs

     total energy              =    -999.03804541 Ry
     Harris-Foulkes estimate   =    -999.03804583 Ry
     estimated scf accuracy    <       0.00001807 Ry

     total magnetization       =     4.00 Bohr mag/cell
     absolute magnetization    =     4.13 Bohr mag/cell

     iteration # 10     ecut=   100.00 Ry     beta= 0.70
     Davidson diagonalization with overlap
     ethr =  8.07E-09,  avg # of iterations =  3.0

     total cpu time spent up to now is     1133.1 secs

     total energy              =    -999.03804572 Ry
     Harris-Foulkes estimate   =    -999.03804632 Ry
     estimated scf accuracy    <       0.00000869 Ry

     total magnetization       =     4.00 Bohr mag/cell
     absolute magnetization    =     4.13 Bohr mag/cell

     iteration # 11     ecut=   100.00 Ry     beta= 0.70
     Davidson diagonalization with overlap
     ethr =  3.88E-09,  avg # of iterations =  2.5

     total cpu time spent up to now is     1154.1 secs

     total energy              =    -999.03804575 Ry
     Harris-Foulkes estimate   =    -999.03804604 Ry
     estimated scf accuracy    <       0.00000535 Ry

     total magnetization       =     4.00 Bohr mag/cell
     absolute magnetization    =     4.13 Bohr mag/cell

     iteration # 12     ecut=   100.00 Ry     beta= 0.70
     Davidson diagonalization with overlap
     ethr =  2.39E-09,  avg # of iterations =  2.5

     total cpu time spent up to now is     1173.8 secs

     total energy              =    -999.03804588 Ry
     Harris-Foulkes estimate   =    -999.03804593 Ry
     estimated scf accuracy    <       0.00000376 Ry

     total magnetization       =     4.00 Bohr mag/cell
     absolute magnetization    =     4.13 Bohr mag/cell

     iteration # 13     ecut=   100.00 Ry     beta= 0.70
     Davidson diagonalization with overlap
     ethr =  1.68E-09,  avg # of iterations =  2.5

     total cpu time spent up to now is     1192.7 secs

     total energy              =    -999.03804575 Ry
     Harris-Foulkes estimate   =    -999.03804604 Ry
     estimated scf accuracy    <       0.00000302 Ry

     total magnetization       =     4.00 Bohr mag/cell
     absolute magnetization    =     4.13 Bohr mag/cell

     iteration # 14     ecut=   100.00 Ry     beta= 0.70
     Davidson diagonalization with overlap
     ethr =  1.35E-09,  avg # of iterations =  1.5

     total cpu time spent up to now is     1213.7 secs

     total energy              =    -999.03804559 Ry
     Harris-Foulkes estimate   =    -999.03804592 Ry
     estimated scf accuracy    <       0.00000231 Ry

     total magnetization       =     4.00 Bohr mag/cell
     absolute magnetization    =     4.13 Bohr mag/cell

     iteration # 15     ecut=   100.00 Ry     beta= 0.70
     Davidson diagonalization with overlap
     ethr =  1.03E-09,  avg # of iterations =  2.5

     total cpu time spent up to now is     1234.0 secs

     total energy              =    -999.03804575 Ry
     Harris-Foulkes estimate   =    -999.03804577 Ry
     estimated scf accuracy    <       0.00000109 Ry

     total magnetization       =     4.00 Bohr mag/cell
     absolute magnetization    =     4.13 Bohr mag/cell

     iteration # 16     ecut=   100.00 Ry     beta= 0.70
     Davidson diagonalization with overlap
     ethr =  4.87E-10,  avg # of iterations =  2.0

     total cpu time spent up to now is     1254.5 secs

     total energy              =    -999.03804582 Ry
     Harris-Foulkes estimate   =    -999.03804585 Ry
     estimated scf accuracy    <       0.00000074 Ry

     total magnetization       =     4.00 Bohr mag/cell
     absolute magnetization    =     4.13 Bohr mag/cell

     iteration # 17     ecut=   100.00 Ry     beta= 0.70
     Davidson diagonalization with overlap
     ethr =  3.31E-10,  avg # of iterations =  2.0
 
     Magnetic moment per site:
     atom:    1    charge:    0.8199    magn:    0.0062    constr:    0.0000
     atom:    2    charge:    0.8189    magn:    0.0062    constr:    0.0000
     atom:    3    charge:    0.8522    magn:    0.0056    constr:    0.0000
     atom:    4    charge:    0.8513    magn:    0.0056    constr:    0.0000
     atom:    5    charge:    0.8434    magn:    0.0053    constr:    0.0000
     atom:    6    charge:    0.8431    magn:    0.0054    constr:    0.0000
     atom:    7    charge:    0.8442    magn:    0.0050    constr:    0.0000
     atom:    8    charge:    0.8185    magn:    0.0060    constr:    0.0000
     atom:    9    charge:    0.8379    magn:    0.0069    constr:    0.0000
     atom:   10    charge:    0.8432    magn:    0.0068    constr:    0.0000
     atom:   11    charge:    0.8437    magn:    0.0071    constr:    0.0000
     atom:   12    charge:    0.8436    magn:    0.0071    constr:    0.0000
     atom:   13    charge:    0.8407    magn:    0.0064    constr:    0.0000
     atom:   14    charge:    0.8406    magn:    0.0065    constr:    0.0000
     atom:   15    charge:    0.8454    magn:    0.0077    constr:    0.0000
     atom:   16    charge:    0.8394    magn:    0.0060    constr:    0.0000
     atom:   17    charge:    0.8169    magn:    0.0065    constr:    0.0000
     atom:   18    charge:    0.8442    magn:    0.0047    constr:    0.0000
     atom:   19    charge:    0.8526    magn:    0.0058    constr:    0.0000
     atom:   20    charge:    0.8509    magn:    0.0058    constr:    0.0000
     atom:   21    charge:    0.8247    magn:   -0.0021    constr:    0.0000
     atom:   22    charge:    0.8239    magn:   -0.0021    constr:    0.0000
     atom:   23    charge:    0.8249    magn:   -0.0020    constr:    0.0000
     atom:   24    charge:    0.8248    magn:   -0.0023    constr:    0.0000
     atom:   25    charge:    4.6758    magn:    0.0073    constr:    0.0000
     atom:   26    charge:    4.6766    magn:    0.0073    constr:    0.0000
     atom:   27    charge:    4.6841    magn:    0.0106    constr:    0.0000
     atom:   28    charge:    4.6782    magn:    0.0073    constr:    0.0000
     atom:   29    charge:    0.4790    magn:   -0.0015    constr:    0.0000
     atom:   30    charge:    0.4782    magn:   -0.0015    constr:    0.0000
     atom:   31    charge:    0.4799    magn:   -0.0013    constr:    0.0000
     atom:   32    charge:    0.4916    magn:   -0.0014    constr:    0.0000
     atom:   33    charge:    0.4889    magn:   -0.0011    constr:    0.0000
     atom:   34    charge:    0.4887    magn:   -0.0011    constr:    0.0000
     atom:   35    charge:    0.4890    magn:   -0.0011    constr:    0.0000
     atom:   36    charge:    0.4877    magn:   -0.0009    constr:    0.0000
     atom:   37    charge:    0.4873    magn:   -0.0009    constr:    0.0000
     atom:   38    charge:    0.4865    magn:   -0.0009    constr:    0.0000
     atom:   39    charge:    0.4875    magn:   -0.0012    constr:    0.0000
     atom:   40    charge:    0.4790    magn:   -0.0015    constr:    0.0000
     atom:   41    charge:    2.4474    magn:    0.0137    constr:    0.0000
     atom:   42    charge:    2.4476    magn:    0.0136    constr:    0.0000
     atom:   43    charge:    2.4499    magn:    0.0133    constr:    0.0000
     atom:   44    charge:    2.4440    magn:    0.0139    constr:    0.0000
     atom:   45    charge:    7.4325    magn:    1.1429    constr:    0.0000
     atom:   46    charge:    7.4316    magn:    1.1426    constr:    0.0000
     atom:   47    charge:    3.2580    magn:    0.0617    constr:    0.0000
     atom:   48    charge:    3.2568    magn:    0.0647    constr:    0.0000
     atom:   49    charge:    3.2592    magn:    0.0625    constr:    0.0000
     atom:   50    charge:    3.2582    magn:    0.0628    constr:    0.0000
     atom:   51    charge:    3.2567    magn:    0.0637    constr:    0.0000
     atom:   52    charge:    3.2575    magn:    0.0673    constr:    0.0000
     atom:   53    charge:    3.2576    magn:    0.0669    constr:    0.0000
     atom:   54    charge:    3.2545    magn:    0.0666    constr:    0.0000

     total cpu time spent up to now is     1273.0 secs

     End of self-consistent calculation

 ------ SPIN UP ------------


          k = 0.0000 0.0000 0.0000 ( 45819 PWs)   bands (ev):

   -25.8498 -25.8229 -25.7703 -25.6313 -22.2284 -22.2185 -22.0979 -22.0913
   -19.1920 -19.1740 -19.1685 -19.1538 -19.0535 -19.0217 -18.9473 -18.9208
   -15.3087 -15.2436 -15.2281 -15.2156 -13.9929 -13.9472 -13.8967 -13.7721
   -11.8070 -11.6518 -11.6009 -11.5382 -10.8832 -10.8572 -10.8140 -10.7911
    -9.5877  -9.3570  -9.0129  -8.9347  -8.4013  -8.3107  -8.2583  -8.1581
    -7.8954  -7.7645  -7.7269  -7.6880  -7.6153  -7.3218  -6.9411  -6.8464
    -6.7703  -6.6650  -6.5876  -6.4988  -6.4709  -6.4081  -6.3795  -6.2316
    -6.1991  -6.1144  -6.0759  -5.9922  -5.9335  -5.8433  -5.6031  -5.5773
    -5.5525  -5.4949  -5.4489  -5.4308  -4.9617  -4.8629  -4.8513  -4.8159
    -4.6911  -4.5987  -4.5696  -4.5153  -4.4329  -4.2473  -4.0544  -3.9283
    -3.8148  -3.7394  -3.6489  -3.4365  -3.1888  -3.1210  -3.0363  -2.9673
    -2.8146  -2.8049  -2.7725  -2.7313  -2.5086  -2.3428  -2.2253  -2.1687
    -2.1583  -2.0446  -1.9837  -1.8983  -1.8177  -1.7789  -1.7684  -1.7415
    -1.6722  -1.5431  -1.3794  -1.3289  -1.2253  -1.1658   0.1054   0.1795
     0.3549   0.3706   2.1506   2.1939   2.2076   2.3481   3.4009   3.4770
     3.7236   3.8160   3.8921   4.5667   4.7813   4.8795   4.9663   5.0192
     5.3432   5.6168   5.9424   6.0500   6.0755   6.4088   6.8344   6.9089
     7.1319

 ------ SPIN DOWN ----------


          k = 0.0000 0.0000 0.0000 ( 45819 PWs)   bands (ev):

   -25.8347 -25.8079 -25.7547 -25.6107 -22.1101 -22.0972 -21.9803 -21.9707
   -19.0432 -19.0332 -19.0147 -19.0014 -18.9982 -18.9816 -18.9100 -18.8829
   -15.2674 -15.2026 -15.1870 -15.1742 -13.9487 -13.9022 -13.8533 -13.7269
   -11.7600 -11.6092 -11.5550 -11.4919 -10.8542 -10.8279 -10.7855 -10.7611
    -9.5573  -9.3274  -8.9792  -8.9007  -8.3672  -8.2809  -8.2309  -8.1243
    -7.8618  -7.7279  -7.6906  -7.6344  -7.5596  -7.2443  -6.8638  -6.7691
    -6.6977  -6.5981  -6.5119  -6.4072  -6.3652  -6.2985  -6.2730  -6.1405
    -6.0786  -5.9850  -5.9355  -5.8659  -5.8064  -5.7230  -5.5584  -5.5084
    -5.4679  -5.4486  -5.4116  -5.4055  -4.8886  -4.8127  -4.7957  -4.7511
    -4.6587  -4.5450  -4.5076  -4.4653  -4.3092  -3.9093  -3.8985  -3.8623
    -3.6817  -3.4977  -3.3591  -3.1647  -2.9149  -2.7921  -2.6574  -2.6443
    -2.4547  -2.3455  -2.2977  -2.2634  -2.2180  -2.0845  -1.9986  -1.9473
    -1.8343  -1.7574  -1.5544  -1.4461  -1.3521  -1.2843  -1.2523  -1.1674
    -1.0917  -0.9189  -0.9045  -0.8828  -0.8684  -0.7696   0.9004   0.9408
     1.0802   1.1155   2.2757   2.3093   2.3398   2.4553   3.4955   3.5699
     3.8224   3.9075   3.9414   4.6278   4.8571   4.9573   5.0597   5.0913
     5.3849   5.6653   5.9774   6.0894   6.1125   6.4620   6.8720   6.9405
     7.1659

     the spin up/dw Fermi energies are     0.6083    0.2466 ev

!    total energy              =    -999.03804582 Ry
     Harris-Foulkes estimate   =    -999.03804584 Ry
     estimated scf accuracy    <       0.00000007 Ry

     The total energy is the sum of the following terms:

     one-electron contribution =   -1393.79376140 Ry
     hartree contribution      =     780.09536307 Ry
     xc contribution           =    -280.33622915 Ry
     ewald contribution        =    -106.17636019 Ry
     Dispersion Correction     =      -0.22411006 Ry
     smearing contrib. (-TS)   =       1.39705191 Ry

     total magnetization       =     4.00 Bohr mag/cell
     absolute magnetization    =     4.13 Bohr mag/cell

     convergence has been achieved in  17 iterations

     Forces acting on atoms (cartesian axes, Ry/au):

     atom    1 type  1   force =     0.01052415   -0.00357442    0.01013793
     atom    2 type  1   force =     0.00989291    0.00278297    0.00881779
     atom    3 type  1   force =     0.00136572   -0.00511929    0.00617208
     atom    4 type  1   force =     0.00120241    0.00531828    0.00591672
     atom    5 type  1   force =     0.00482411    0.00457898   -0.00794904
     atom    6 type  1   force =     0.00487510   -0.00443402   -0.00797652
     atom    7 type  1   force =    -0.00453193   -0.01069800   -0.00426728
     atom    8 type  1   force =    -0.00473322   -0.00094757    0.00343845
     atom    9 type  1   force =    -0.00518017    0.00160058    0.00281702
     atom   10 type  1   force =    -0.00157888   -0.00531041    0.00638656
     atom   11 type  1   force =    -0.00006041   -0.00475731    0.00637423
     atom   12 type  1   force =    -0.00007414    0.00400118    0.00551558
     atom   13 type  1   force =    -0.00277634   -0.00414642   -0.00836794
     atom   14 type  1   force =    -0.00270490    0.00418159   -0.00944676
     atom   15 type  1   force =    -0.00140536    0.00331473   -0.00506238
     atom   16 type  1   force =     0.00614909   -0.00059495   -0.00373638
     atom   17 type  1   force =     0.00502119    0.00307852   -0.00557653
     atom   18 type  1   force =    -0.00364728    0.00810229   -0.00710368
     atom   19 type  1   force =     0.00758753    0.00532498    0.00207771
     atom   20 type  1   force =    -0.00310650   -0.00540704    0.00664542
     atom   21 type  1   force =     0.00027790    0.00546302   -0.00381928
     atom   22 type  1   force =     0.00046337   -0.00522228   -0.00404418
     atom   23 type  1   force =    -0.00276497   -0.00579248   -0.00369829
     atom   24 type  1   force =    -0.00039887    0.00588381   -0.00453075
     atom   25 type  2   force =     0.00056827   -0.01626044    0.01433429
     atom   26 type  2   force =     0.00127337    0.01549734    0.01430018
     atom   27 type  2   force =     0.01615716    0.00719180    0.00032407
     atom   28 type  2   force =    -0.00248139   -0.01562887    0.01922219
     atom   29 type  3   force =    -0.00861454   -0.00143199   -0.00301729
     atom   30 type  3   force =    -0.00896289    0.00180831   -0.00342524
     atom   31 type  3   force =    -0.00527448    0.00054591    0.00502304
     atom   32 type  3   force =    -0.00302993    0.00001678    0.00074662
     atom   33 type  3   force =     0.00518011    0.00032490   -0.00422890
     atom   34 type  3   force =    -0.00578699    0.00099547   -0.00460860
     atom   35 type  3   force =    -0.00596454   -0.00124587   -0.00452827
     atom   36 type  3   force =    -0.00085537   -0.00362484   -0.00423134
     atom   37 type  3   force =    -0.00103968    0.00440278   -0.00502859
     atom   38 type  3   force =    -0.00577187    0.00241302    0.00270117
[...]
     absolute magnetization    =     4.14 Bohr mag/cell

     iteration #  6     ecut=   100.00 Ry     beta= 0.70
     Davidson diagonalization with overlap
     ethr =  5.36E-10,  avg # of iterations =  1.0

     total cpu time spent up to now is     6305.9 secs

     total energy              =    -999.05417806 Ry
     Harris-Foulkes estimate   =    -999.05417808 Ry
     estimated scf accuracy    <       0.00000016 Ry

     total magnetization       =     4.00 Bohr mag/cell
     absolute magnetization    =     4.14 Bohr mag/cell

     iteration #  7     ecut=   100.00 Ry     beta= 0.70
     Davidson diagonalization with overlap
     ethr =  7.10E-11,  avg # of iterations =  3.0

     total cpu time spent up to now is     6319.4 secs

     total energy              =    -999.05417806 Ry
     Harris-Foulkes estimate   =    -999.05417808 Ry
     estimated scf accuracy    <       0.00000008 Ry

     total magnetization       =     4.00 Bohr mag/cell
     absolute magnetization    =     4.14 Bohr mag/cell

     iteration #  8     ecut=   100.00 Ry     beta= 0.70
     Davidson diagonalization with overlap
     ethr =  3.70E-11,  avg # of iterations =  1.5

     total cpu time spent up to now is     6332.4 secs

     total energy              =    -999.05417806 Ry
     Harris-Foulkes estimate   =    -999.05417807 Ry
     estimated scf accuracy    <       0.00000002 Ry

     total magnetization       =     4.00 Bohr mag/cell
     absolute magnetization    =     4.14 Bohr mag/cell

     iteration #  9     ecut=   100.00 Ry     beta= 0.70
     Davidson diagonalization with overlap
     ethr =  9.89E-12,  avg # of iterations =  4.0
 
     Magnetic moment per site:
     atom:    1    charge:    0.8058    magn:    0.0061    constr:    0.0000
     atom:    2    charge:    0.8077    magn:    0.0061    constr:    0.0000
     atom:    3    charge:    0.8455    magn:    0.0058    constr:    0.0000
     atom:    4    charge:    0.8436    magn:    0.0058    constr:    0.0000
     atom:    5    charge:    0.8308    magn:    0.0052    constr:    0.0000
     atom:    6    charge:    0.8236    magn:    0.0052    constr:    0.0000
     atom:    7    charge:    0.8436    magn:    0.0048    constr:    0.0000
     atom:    8    charge:    0.8085    magn:    0.0059    constr:    0.0000
     atom:    9    charge:    0.8368    magn:    0.0074    constr:    0.0000
     atom:   10    charge:    0.8392    magn:    0.0071    constr:    0.0000
     atom:   11    charge:    0.8399    magn:    0.0075    constr:    0.0000
     atom:   12    charge:    0.8414    magn:    0.0075    constr:    0.0000
     atom:   13    charge:    0.8214    magn:    0.0069    constr:    0.0000
     atom:   14    charge:    0.8146    magn:    0.0070    constr:    0.0000
     atom:   15    charge:    0.8362    magn:    0.0081    constr:    0.0000
     atom:   16    charge:    0.8359    magn:    0.0065    constr:    0.0000
     atom:   17    charge:    0.8136    magn:    0.0066    constr:    0.0000
     atom:   18    charge:    0.8459    magn:    0.0047    constr:    0.0000
     atom:   19    charge:    0.8527    magn:    0.0058    constr:    0.0000
     atom:   20    charge:    0.8500    magn:    0.0058    constr:    0.0000
     atom:   21    charge:    0.8229    magn:   -0.0023    constr:    0.0000
     atom:   22    charge:    0.8217    magn:   -0.0024    constr:    0.0000
     atom:   23    charge:    0.8204    magn:   -0.0020    constr:    0.0000
     atom:   24    charge:    0.8210    magn:   -0.0023    constr:    0.0000
     atom:   25    charge:    4.4255    magn:    0.0075    constr:    0.0000
     atom:   26    charge:    4.4654    magn:    0.0074    constr:    0.0000
     atom:   27    charge:    4.6443    magn:    0.0109    constr:    0.0000
     atom:   28    charge:    4.4182    magn:    0.0072    constr:    0.0000
     atom:   29    charge:    0.4586    magn:   -0.0015    constr:    0.0000
     atom:   30    charge:    0.4482    magn:   -0.0014    constr:    0.0000
     atom:   31    charge:    0.4706    magn:   -0.0013    constr:    0.0000
     atom:   32    charge:    0.4856    magn:   -0.0014    constr:    0.0000
     atom:   33    charge:    0.4744    magn:   -0.0012    constr:    0.0000
     atom:   34    charge:    0.4940    magn:   -0.0013    constr:    0.0000
     atom:   35    charge:    0.4984    magn:   -0.0013    constr:    0.0000
     atom:   36    charge:    0.4843    magn:   -0.0009    constr:    0.0000
     atom:   37    charge:    0.4708    magn:   -0.0009    constr:    0.0000
     atom:   38    charge:    0.4854    magn:   -0.0009    constr:    0.0000
     atom:   39    charge:    0.5013    magn:   -0.0012    constr:    0.0000
     atom:   40    charge:    0.4797    magn:   -0.0015    constr:    0.0000
     atom:   41    charge:    2.4461    magn:    0.0127    constr:    0.0000
     atom:   42    charge:    2.4455    magn:    0.0124    constr:    0.0000
     atom:   43    charge:    2.4400    magn:    0.0132    constr:    0.0000
     atom:   44    charge:    2.4441    magn:    0.0133    constr:    0.0000
     atom:   45    charge:    7.4367    magn:    1.1295    constr:    0.0000
     atom:   46    charge:    7.4370    magn:    1.1156    constr:    0.0000
     atom:   47    charge:    3.2599    magn:    0.0630    constr:    0.0000
     atom:   48    charge:    3.2539    magn:    0.0647    constr:    0.0000
     atom:   49    charge:    3.2564    magn:    0.0641    constr:    0.0000
     atom:   50    charge:    3.2587    magn:    0.0650    constr:    0.0000
     atom:   51    charge:    3.2476    magn:    0.0645    constr:    0.0000
     atom:   52    charge:    3.2473    magn:    0.0687    constr:    0.0000
     atom:   53    charge:    3.2363    magn:    0.0697    constr:    0.0000
     atom:   54    charge:    3.2342    magn:    0.0699    constr:    0.0000

     total cpu time spent up to now is     6346.3 secs

     End of self-consistent calculation

 ------ SPIN UP ------------


          k = 0.0000 0.0000 0.0000 ( 45819 PWs)   bands (ev):

   -25.8156 -25.8089 -25.8074 -25.7252 -22.2296 -22.2148 -22.0953 -22.0889
   -19.2034 -19.1786 -19.1629 -19.1515 -19.1157 -19.0991 -18.9978 -18.9799
   -15.3509 -15.2839 -15.2592 -15.2476 -13.9488 -13.9016 -13.8720 -13.7704
   -11.7975 -11.6295 -11.6094 -11.5498 -10.8796 -10.8699 -10.8028 -10.7909
    -9.5765  -9.3520  -9.1031  -9.0361  -8.4392  -8.2918  -8.2297  -8.1958
    -7.8111  -7.7614  -7.7498  -7.7116  -7.6964  -7.3442  -6.9494  -6.8806
    -6.7968  -6.6853  -6.6023  -6.5488  -6.4867  -6.4689  -6.4131  -6.2774
    -6.2559  -6.1444  -6.1001  -6.0018  -5.9641  -5.8650  -5.6098  -5.5859
    -5.5615  -5.4727  -5.4288  -5.4271  -4.9985  -4.8855  -4.8573  -4.7629
    -4.6762  -4.6232  -4.5983  -4.5617  -4.4793  -4.2900  -4.0814  -3.9472
    -3.8194  -3.7875  -3.6552  -3.4631  -3.2307  -3.1462  -3.0808  -2.9890
    -2.8753  -2.8479  -2.8117  -2.7724  -2.5821  -2.3435  -2.2695  -2.2073
    -2.1681  -2.0560  -1.9791  -1.8985  -1.8143  -1.7801  -1.7601  -1.7400
    -1.7052  -1.5893  -1.3595  -1.3132  -1.1984  -1.1402   0.0854   0.1586
     0.3788   0.4046   2.1355   2.1791   2.2007   2.3325   3.3809   3.4520
     3.7274   3.8032   3.9030   4.5540   4.7347   4.8385   4.9132   4.9772
     5.3402   5.6687   5.9944   6.0658   6.1151   6.4304   6.8388   6.9254
     7.1466

 ------ SPIN DOWN ----------


          k = 0.0000 0.0000 0.0000 ( 45819 PWs)   bands (ev):

   -25.7996 -25.7933 -25.7916 -25.7043 -22.1085 -22.0900 -21.9739 -21.9650
   -19.0943 -19.0713 -19.0407 -19.0093 -18.9993 -18.9897 -18.9585 -18.9378
   -15.3094 -15.2427 -15.2179 -15.2059 -13.9019 -13.8543 -13.8273 -13.7234
   -11.7492 -11.5857 -11.5630 -11.5025 -10.8504 -10.8391 -10.7727 -10.7617
    -9.5440  -9.3204  -9.0677  -9.0013  -8.4005  -8.2603  -8.2019  -8.1622
    -7.7744  -7.7223  -7.7123  -7.6647  -7.6443  -7.2662  -6.8791  -6.8060
    -6.7131  -6.6093  -6.5188  -6.4566  -6.3866  -6.3539  -6.3179  -6.1873
    -6.1180  -6.0126  -5.9543  -5.8741  -5.8340  -5.7397  -5.5721  -5.4978
    -5.4704  -5.4321  -5.4031  -5.3913  -4.9245  -4.7987  -4.7937  -4.7272
    -4.6427  -4.5733  -4.5299  -4.4914  -4.3593  -3.9541  -3.9109  -3.8768
    -3.7128  -3.5321  -3.4142  -3.2275  -2.9457  -2.8407  -2.7143  -2.6770
    -2.4958  -2.4033  -2.3662  -2.3119  -2.2579  -2.1197  -2.0341  -1.9720
    -1.8236  -1.7521  -1.5706  -1.4504  -1.3279  -1.2805  -1.2554  -1.1340
    -1.0708  -0.9338  -0.9287  -0.9084  -0.8894  -0.7919   0.8767   0.9139
     1.0970   1.1363   2.2642   2.3000   2.3356   2.4458   3.4792   3.5487
     3.8309   3.9030   3.9491   4.6199   4.8139   4.9205   5.0104   5.0488
     5.3826   5.7182   6.0297   6.1058   6.1502   6.4821   6.8763   6.9591
     7.1824

     the spin up/dw Fermi energies are     0.6071    0.2331 ev

!    total energy              =    -999.05417806 Ry
     Harris-Foulkes estimate   =    -999.05417806 Ry
     estimated scf accuracy    <          7.5E-09 Ry

     The total energy is the sum of the following terms:

     one-electron contribution =   -1388.58583164 Ry
     hartree contribution      =     777.36370443 Ry
     xc contribution           =    -280.35919711 Ry
     ewald contribution        =    -108.64582185 Ry
     Dispersion Correction     =      -0.22598332 Ry
     smearing contrib. (-TS)   =       1.39895144 Ry

     total magnetization       =     4.00 Bohr mag/cell
     absolute magnetization    =     4.14 Bohr mag/cell

     convergence has been achieved in   9 iterations

     Forces acting on atoms (cartesian axes, Ry/au):

     atom    1 type  1   force =    -0.00010034   -0.00030808   -0.00013799
     atom    2 type  1   force =     0.00005120    0.00047920    0.00018004
     atom    3 type  1   force =     0.00019893   -0.00019810   -0.00011471
     atom    4 type  1   force =     0.00018842    0.00016989   -0.00021460
     atom    5 type  1   force =     0.00028364    0.00016669   -0.00041714
     atom    6 type  1   force =     0.00045551   -0.00010802   -0.00031443
     atom    7 type  1   force =    -0.00005408   -0.00068185    0.00010340
     atom    8 type  1   force =    -0.00003734   -0.00024885    0.00017389
     atom    9 type  1   force =    -0.00078710   -0.00069463    0.00009465
     atom   10 type  1   force =    -0.00004469    0.00039272   -0.00004599
     atom   11 type  1   force =    -0.00015916    0.00057244   -0.00035572
     atom   12 type  1   force =    -0.00020957   -0.00041113   -0.00012216
     atom   13 type  1   force =     0.00022583   -0.00013181   -0.00071216
     atom   14 type  1   force =     0.00019776    0.00026881   -0.00075516
     atom   15 type  1   force =    -0.00029521    0.00010278    0.00003630
     atom   16 type  1   force =     0.00025145    0.00007765   -0.00018801
     atom   17 type  1   force =    -0.00008329    0.00036247   -0.00010179
     atom   18 type  1   force =    -0.00075227    0.00030917    0.00016418
     atom   19 type  1   force =    -0.00023611    0.00029649    0.00018456
     atom   20 type  1   force =     0.00024236   -0.00001663    0.00002421
     atom   21 type  1   force =     0.00036199   -0.00025793    0.00039281
     atom   22 type  1   force =     0.00030194    0.00047143    0.00053079
     atom   23 type  1   force =    -0.00001834    0.00006985    0.00000621
     atom   24 type  1   force =    -0.00031931   -0.00012496    0.00090464
     atom   25 type  2   force =    -0.00033259   -0.00001188   -0.00056615
     atom   26 type  2   force =    -0.00026208   -0.00018001   -0.00018327
     atom   27 type  2   force =    -0.00000479   -0.00025916    0.00088531
     atom   28 type  2   force =     0.00025415    0.00009792   -0.00035993
     atom   29 type  3   force =     0.00036128    0.00012834    0.00033600
     atom   30 type  3   force =     0.00030671   -0.00022627    0.00024481
     atom   31 type  3   force =     0.00023104   -0.00080244   -0.00026820
     atom   32 type  3   force =    -0.00059243   -0.00037915    0.00041271
     atom   33 type  3   force =    -0.00018270    0.00016369    0.00049616
     atom   34 type  3   force =     0.00056701    0.00007978    0.00042120
     atom   35 type  3   force =     0.00040837   -0.00005608    0.00033655
     atom   36 type  3   force =    -0.00091418   -0.00015590   -0.00049147
     atom   37 type  3   force =    -0.00065571    0.00019871   -0.00061856
     atom   38 type  3   force =     0.00030232    0.00024761    0.00008318
     atom   39 type  3   force =     0.00075470   -0.00001562    0.00007991
     atom   40 type  3   force =    -0.00037164    0.00001930    0.00050604
     atom   41 type  4   force =     0.00004670   -0.00014828   -0.00044571
     atom   42 type  4   force =     0.00011916    0.00024587   -0.00040249
     atom   43 type  4   force =    -0.00007898   -0.00019295   -0.00001140
     atom   44 type  4   force =     0.00010038    0.00027442   -0.00010107
     atom   45 type  5   force =     0.00007394   -0.00012792   -0.00003852
     atom   46 type  5   force =     0.00001811   -0.00006166    0.00013699
     atom   47 type  6   force =     0.00008815    0.00014682    0.00016065
     atom   48 type  6   force =    -0.00029842    0.00026660    0.00027547
     atom   49 type  6   force =    -0.00003264   -0.00009536    0.00019587
     atom   50 type  6   force =     0.00019571   -0.00026958    0.00003112
     atom   51 type  6   force =     0.00022265   -0.00024315   -0.00044019
     atom   52 type  6   force =     0.00018357    0.00052718    0.00053774
     atom   53 type  6   force =    -0.00022936    0.00012408   -0.00042330
     atom   54 type  6   force =     0.00005935    0.00014747   -0.00010526

     Total force =     0.004260     Total SCF correction =     0.000205

     bfgs converged in  29 scf cycles and  28 bfgs steps
     (criteria: energy <  1.0E-04 Ry, force <  1.0E-03 Ry/Bohr)

     End of BFGS Geometry Optimization

     Final energy   =    -999.0541780616 Ry
Begin final coordinates

ATOMIC_POSITIONS (crystal)
C             0.5764631476        0.9633782368        0.5245269213
C             0.0764955891        0.0372354380        0.0241445472
C             0.7814662898        0.0086190650        0.5438538192
C             0.2809546752        0.9910085100        0.0424754287
C             0.9048633688        0.9644821705        0.6451088886
C             0.4064495429        0.0349725004        0.1429693458
C             0.4172086447        0.5289031451        0.5296268165
C             0.9185152962        0.4681570427        0.0335586432
C             0.4872208353        0.6149895772        0.6067001570
C             0.9905417978        0.3843938039        0.1149742928
C             0.4990515516        0.8832361629        0.6074051619
C             0.0013892406        0.1175312913        0.1076870571
C             0.8227013161        0.8827862413        0.7233899261
C             0.3265390145        0.1168532708        0.2218989738
C             0.1730401145        0.6143229721        0.7248115132
C             0.6752047867        0.3922609254        0.2307002210
C             0.0945408390        0.5278868148        0.6488053650
C             0.5961066552        0.4753041894        0.1513395554
C             0.2176105074        0.4824259570        0.5495549005
C             0.7173595727        0.5165916311        0.0503806187
C             0.8629757432        0.0978101637        0.4652243567
C             0.3595435024        0.9009851589        0.9638180576
C             0.1364452998        0.3925324561        0.4710261718
C             0.6364469648        0.6053984458        0.9688410512
F             0.4470993256       -0.0068620149        0.4295109281
F             0.9451716245        1.0081638524        0.9297771250
F             0.9059643850        0.4899814230        0.6764019669
F             0.0492647284        0.4978847810        0.9428031633
H             0.0652972882        0.9936872741        0.6664763940
H             0.5670379078        1.0054683478        0.1632825789
H             0.5215455629        0.4987680515        0.4548746664
H             0.6413575585        0.6525046456        0.5931244233
H             0.1467789959        0.3487989736        0.0996644316
H             0.3380212803        0.8519023591        0.5921713941
H             0.8406126071        0.1494060900        0.0932695858
H             0.9179232645        0.8484823453        0.8021414127
H             0.4234319927        0.1509899345        0.3000471641
H             0.0762798471        0.6461236718        0.8024431863
H             0.5817197846        0.3599937494        0.3093933365
H             0.4386296801        0.5078825016        0.1701747881
N             0.6206236463        0.8461653646        0.7062656639
N             0.1244073351        0.1539084786        0.2063347203
N             0.3676930420        0.6542890385        0.7043664229
N             0.8708871258        0.3488125616        0.2122973989
Ni            0.4939237534        0.7510226388        0.8371560468
Ni            0.9997872678        0.2470115166        0.3400362025
O             0.2481388941        0.3468170701        0.3829004938
O             0.7454119299        0.6537956335        0.8820722727
O             0.7541558376        0.1460977459        0.3749773487
O             0.2487541467        0.8531586961        0.8741591752
O             0.9481934551        0.3535989358        0.4828501938
O             0.4454161782        0.6415632838        0.9802123145
O             0.0526176411        0.1348761397        0.4830743830
O             0.5482476177        0.8625887404        0.9810620274
End final coordinates



     Writing output data file ./QE_relaxation_results/PBESOL_relax/NiPyC2_relax/NiPyC2_relax_meta_functionalized_F_pbesol_relax.save/
 
     init_run     :     15.92s CPU     17.14s WALL (       1 calls)
     electrons    :   5317.20s CPU   5923.93s WALL (      29 calls)
     update_pot   :    191.73s CPU    199.60s WALL (      28 calls)
     forces       :    199.30s CPU    206.22s WALL (      29 calls)

     Called by init_run:
     wfcinit      :      8.48s CPU      9.29s WALL (       1 calls)
     potinit      :      3.69s CPU      3.96s WALL (       1 calls)
     hinit0       :      3.06s CPU      3.18s WALL (       1 calls)

     Called by electrons:
     c_bands      :   4632.65s CPU   5077.61s WALL (     339 calls)
     sum_band     :    304.23s CPU    381.48s WALL (     339 calls)
     v_of_rho     :    185.89s CPU    215.57s WALL (     354 calls)
     mix_rho      :    194.79s CPU    242.14s WALL (     339 calls)

     Called by c_bands:
     init_us_2    :      7.05s CPU      7.20s WALL (     679 calls)
     regterg      :   4613.52s CPU   5028.01s WALL (     339 calls)

     Called by sum_band:

     Called by *egterg:
     h_psi        :   1912.19s CPU   2218.85s WALL (    1218 calls)
     g_psi        :      2.01s CPU      2.03s WALL (     878 calls)
     rdiaghg      :    129.22s CPU    132.09s WALL (    1175 calls)

     Called by h_psi:
     h_psi:calbec :    454.74s CPU    464.03s WALL (    1218 calls)
     vloc_psi     :    996.12s CPU   1292.22s WALL (    1218 calls)
     add_vuspsi   :    455.17s CPU    456.38s WALL (    1218 calls)

     General routines
     calbec       :    522.49s CPU    533.09s WALL (    1334 calls)
     fft          :    117.59s CPU    154.58s WALL (    5656 calls)
     ffts         :    134.48s CPU    167.98s WALL (    6260 calls)
     fftw         :   1085.57s CPU   1446.08s WALL (  128905 calls)
 
     Parallel routines
     fft_scatt_xy :    298.26s CPU    300.97s WALL (  140821 calls)
     fft_scatt_yz :    279.51s CPU    698.70s WALL (  140821 calls)
 
     PWSCF        :      1h35m CPU      1h45m WALL

 
   This run was terminated on:  21:55: 7   8Jun2020            

=------------------------------------------------------------------------------=
   JOB DONE.
=------------------------------------------------------------------------------=
QE finished Mon Jun 8 21:55:07 PDT 2020
