/apps/openmpi/3.1_intel-19/bin/mpiexec
starting QE Tue Jun 9 10:21:31 PDT 2020

     Program PWSCF v.6.5 starts on  9Jun2020 at 10:21:33 

     This program is part of the open-source Quantum ESPRESSO suite
     for quantum simulation of materials; please cite
         "P. Giannozzi et al., J. Phys.:Condens. Matter 21 395502 (2009);
         "P. Giannozzi et al., J. Phys.:Condens. Matter 29 465901 (2017);
          URL http://www.quantum-espresso.org", 
     in publications or presentations arising from this work. More details at
     http://www.quantum-espresso.org/quote

     Parallel version (MPI), running on    32 processors

     MPI processes distributed on     1 nodes
     K-points division:     npool     =       2
     R & G space division:  proc/nbgrp/npool/nimage =      16
     Reading input from QE_input_scripts/pw.NiPyC2_pbesol-relax.in
Warning: card &CELL ignored
Warning: card    CELL_DYNAMICS = 'BFGS' ignored
Warning: card    CELL_DOFREE = 'XYZ' ignored
Warning: card / ignored

     Current dimensions of program PWSCF are:
     Max number of different atomic species (ntypx) = 10
     Max number of k-points (npk) =  40000
     Max angular momentum in pseudopotentials (lmaxx) =  3

     -------------------------------------------------
     Parameters for Dispersion (Grimme-D2) Correction:
     -------------------------------------------------
       atom      VdW radius       C_6     

        C          2.744         60.710
        H          1.892          4.857
        N          2.640         42.670
        Ni         2.952        374.666
        O          2.536         24.284

     gamma-point specific algorithms are used

     Subspace diagonalization in iterative solution of the eigenvalue problem:
     a serial algorithm will be used

     Message from routine setup:
     using ibrav=0 with symmetry is DISCOURAGED, use correct ibrav instead
 
     Parallelization info
     --------------------
     sticks:   dense  smooth     PW     G-vecs:    dense   smooth      PW
     Min         556     556    138                45842    45842    5724
     Max         558     558    140                45850    45850    5730
     Sum        8917    8917   2219               733525   733525   91637
 


     bravais-lattice index     =            0
     lattice parameter (alat)  =      11.8161  a.u.
     unit-cell volume          =    5429.3114 (a.u.)^3
     number of atoms/cell      =           54
     number of atomic types    =            5
     number of electrons       =       200.00 (up: 102.00, down:  98.00)
     number of Kohn-Sham states=          122
     kinetic-energy cutoff     =     100.0000  Ry
     charge density cutoff     =     400.0000  Ry
     convergence threshold     =      1.0E-06
     mixing beta               =       0.7000
     number of iterations used =            8  local-TF  mixing
     Exchange-correlation= PBESOL
                           (   1   4  10   8   0   0   0)
     nstep                     =          200


     celldm(1)=  11.816080  celldm(2)=   0.000000  celldm(3)=   0.000000
     celldm(4)=   0.000000  celldm(5)=   0.000000  celldm(6)=   0.000000

     crystal axes: (cart. coord. in units of alat)
               a(1) = (   1.000000   0.000000   0.000000 )  
               a(2) = (   0.000000   2.002847   0.000000 )  
               a(3) = (  -0.036399   0.000000   1.643149 )  

     reciprocal axes: (cart. coord. in units 2 pi/alat)
               b(1) = (  1.000000  0.000000  0.022152 )  
               b(2) = (  0.000000  0.499289  0.000000 )  
               b(3) = (  0.000000  0.000000  0.608588 )  


     PseudoPot. # 1 for C  read from file:
     ./pseudo/C.pbesol-nc.UPF
     MD5 check sum: ce26087537ded160c8d400e183a8bf42
     Pseudo is Norm-conserving, Zval =  4.0
     Generated using "atomic" code by A. Dal Corso v.6.5
     Using radial grid of 1073 points,  1 beta functions with: 
                l(1) =   1

     PseudoPot. # 2 for H  read from file:
     ./pseudo/H.pbesol-n-nc.UPF
     MD5 check sum: 7995ef24074557c85b430109caaacc09
     Pseudo is Norm-conserving, Zval =  1.0
     Generated using "atomic" code by A. Dal Corso v.6.5
     Using radial grid of  929 points,  0 beta functions with: 

     PseudoPot. # 3 for N  read from file:
     ./pseudo/N.pbesol-nc.UPF
     MD5 check sum: e18cc5e4b8a5600c1a19b30c2cab1ca0
     Pseudo is Norm-conserving, Zval =  5.0
     Generated using "atomic" code by A. Dal Corso v.6.5
     Using radial grid of 1085 points,  1 beta functions with: 
                l(1) =   1

     PseudoPot. # 4 for Ni read from file:
     ./pseudo/Ni.pbesol-n-nc.UPF
     MD5 check sum: 623411631e0c2eb7c0b2b9815547d2d9
     Pseudo is Norm-conserving + core correction, Zval = 10.0
     Generated using "atomic" code by A. Dal Corso v.6.5
     Using radial grid of 1195 points,  2 beta functions with: 
                l(1) =   1
                l(2) =   2

     PseudoPot. # 5 for O  read from file:
     ./pseudo/O.pbesol-nc.UPF
     MD5 check sum: 73d10e7e91dbfcbe8a7e362101007f84
     Pseudo is Norm-conserving, Zval =  6.0
     Generated using "atomic" code by A. Dal Corso v.6.5
     Using radial grid of 1095 points,  1 beta functions with: 
                l(1) =   1

     atomic species   valence    mass     pseudopotential
        C              4.00    12.01070     C ( 1.00)
        H              1.00     1.00794     H ( 1.00)
        N              5.00    14.00670     N ( 1.00)
        Ni            10.00    58.69340     Ni( 1.00)
        O              6.00    15.99940     O ( 1.00)

     Starting magnetic structure 
     atomic species   magnetization
        C            0.000
        H            0.000
        N            0.000
        Ni           0.250
        O            0.000

      2 Sym. Ops. (no inversion) found ( 1 have fractional translation)



   Cartesian axes

     site n.     atom                  positions (alat units)
         1           C   tau(   1) = (   0.5691129   1.9213309   0.8435924  )
         2           C   tau(   2) = (   0.7737740   1.9988410   0.8769484  )
         3           C   tau(   3) = (   0.8939722   1.9119175   1.0440566  )
         4           C   tau(   4) = (   0.3878954   1.0396777   0.8940371  )
         5           C   tau(   5) = (   0.4576709   1.2081171   1.0215454  )
         6           C   tau(   6) = (   0.4898428   1.7643077   0.9776734  )
         7           C   tau(   7) = (   0.8025222   1.7578986   1.1727151  )
         8           C   tau(   8) = (   0.1377615   1.2107208   1.2070569  )
         9           C   tau(   9) = (   0.0584822   1.0420812   1.0887502  )
        10           C   tau(  10) = (   0.1873493   0.9553579   0.9277216  )
        11           C   tau(  11) = (   0.8614386   0.1788542   0.7476326  )
        12           C   tau(  12) = (   0.1044740   0.7734994   0.7911760  )
        13           C   tau(  13) = (   0.0873123   0.0815159   0.0220182  )
        14           C   tau(  14) = (   0.2919734   0.0040057   0.0553741  )
        15           C   tau(  15) = (   0.4121716   0.0909292   0.2224823  )
        16           C   tau(  16) = (   0.9060948   0.9631690   0.0724628  )
        17           C   tau(  17) = (   0.9758703   0.7947296   0.1999712  )
        18           C   tau(  18) = (   0.0080421   0.2385390   0.1560991  )
        19           C   tau(  19) = (   0.3207216   0.2449482   0.3511408  )
        20           C   tau(  20) = (   0.6559609   0.7921259   0.3854826  )
        21           C   tau(  21) = (   0.5766816   0.9607656   0.2671759  )
        22           C   tau(  22) = (   0.7055486   1.0474888   0.1061474  )
        23           C   tau(  23) = (   0.3432392   1.8239925   1.5692068  )
        24           C   tau(  24) = (   0.5862746   1.2293473   1.6127503  )
        25           H   tau(  25) = (   0.4840353   1.9752074   0.7297223  )
        26           H   tau(  26) = (   0.0365226   1.9583835   1.0688681  )
        27           H   tau(  27) = (   0.4777087   0.9833977   0.7850964  )
        28           H   tau(  28) = (   0.5969732   1.2643971   0.9988700  )
        29           H   tau(  29) = (   0.3510215   1.7084283   0.9515473  )
        30           H   tau(  30) = (   0.8848144   1.6990149   1.2859280  )
        31           H   tau(  31) = (   0.0501555   1.2710065   1.3156690  )
        32           H   tau(  32) = (   0.9198816   0.9864020   1.1158622  )
        33           H   tau(  33) = (  -0.0341640   0.0276393   1.5512965  )
        34           H   tau(  34) = (   0.5547220   0.0444632   0.2472939  )
        35           H   tau(  35) = (   0.9595093   1.0194490   1.6066706  )
        36           H   tau(  36) = (   0.1151726   0.7384496   0.1772957  )
        37           H   tau(  37) = (   0.8692209   0.2944185   0.1299730  )
        38           H   tau(  38) = (   0.4030137   0.3038318   0.4643538  )
        39           H   tau(  39) = (   0.5683549   0.7318402   0.4940948  )
        40           H   tau(  40) = (   0.4380810   1.0164447   0.2942879  )
        41           N   tau(  41) = (   0.6025592   1.6881995   1.1439600  )
        42           N   tau(  42) = (   0.3350713   1.2940393   1.1750155  )
        43           N   tau(  43) = (   0.1207586   0.3146472   0.3223857  )
        44           N   tau(  44) = (   0.8532706   0.7088075   0.3534412  )
        45           Ni  tau(  45) = (   0.4642458   1.5100663   1.3793082  )
        46           Ni  tau(  46) = (   0.9824452   0.4927804   0.5577339  )
        47           O   tau(  47) = (   0.2269989   0.7002353   0.6455930  )
        48           O   tau(  48) = (   0.7414252   0.2665388   0.6082936  )
        49           O   tau(  49) = (   0.9187989   0.7054627   0.8171378  )
        50           O   tau(  50) = (   0.0492397   0.2399410   0.7791810  )
        51           O   tau(  51) = (   0.7087996   1.3026115   1.4671673  )
        52           O   tau(  52) = (   0.2232258   1.7363079   1.4298678  )
        53           O   tau(  53) = (   0.4005995   1.2973840   1.6387120  )
        54           O   tau(  54) = (   0.5310404   1.7629057   1.6007553  )

     number of k points=     1  Marzari-Vanderbilt smearing, width (Ry)=  0.2000
                       cart. coord. in units 2pi/alat
        k(    1) = (   0.0000000   0.0000000   0.0000000), wk =   1.0000000

     Dense  grid:   366763 G-vectors     FFT dimensions: (  80, 160, 128)

     Estimated max dynamical RAM per process >      91.40 MB

     Estimated total dynamical RAM >       2.86 GB
     Generating pointlists ...
     new r_m :   0.0626 (alat units)  0.7399 (a.u.) for type    1
     new r_m :   0.0626 (alat units)  0.7399 (a.u.) for type    2
     new r_m :   0.0882 (alat units)  1.0416 (a.u.) for type    3
     new r_m :   0.1337 (alat units)  1.5801 (a.u.) for type    4
     new r_m :   0.0823 (alat units)  0.9721 (a.u.) for type    5

     Check: negative core charge=   -0.000145

     Initial potential from superposition of free atoms

     starting charge  199.99835, renormalised to  200.00000
     Starting wfcs are  178 randomized atomic wfcs

     total cpu time spent up to now is        8.6 secs

     Self-consistent Calculation

     iteration #  1     ecut=   100.00 Ry     beta= 0.70
     Davidson diagonalization with overlap
     ethr =  1.00E-02,  avg # of iterations =  4.0

     total cpu time spent up to now is       21.9 secs

     total energy              =    -808.50808890 Ry
     Harris-Foulkes estimate   =    -813.53940304 Ry
     estimated scf accuracy    <      13.16513744 Ry

     total magnetization       =     4.00 Bohr mag/cell
     absolute magnetization    =     4.57 Bohr mag/cell

     iteration #  2     ecut=   100.00 Ry     beta= 0.70
     Davidson diagonalization with overlap
     ethr =  6.58E-03,  avg # of iterations =  2.0

     total cpu time spent up to now is       30.3 secs

     total energy              =    -810.77801683 Ry
     Harris-Foulkes estimate   =    -813.09905482 Ry
     estimated scf accuracy    <      10.77165613 Ry

     total magnetization       =     4.00 Bohr mag/cell
     absolute magnetization    =     4.10 Bohr mag/cell

     iteration #  3     ecut=   100.00 Ry     beta= 0.70
     Davidson diagonalization with overlap
     ethr =  5.39E-03,  avg # of iterations =  1.0

     total cpu time spent up to now is       38.2 secs

     total energy              =    -810.33175468 Ry
     Harris-Foulkes estimate   =    -811.13814713 Ry
     estimated scf accuracy    <       2.70736655 Ry

     total magnetization       =     4.00 Bohr mag/cell
     absolute magnetization    =     4.10 Bohr mag/cell

     iteration #  4     ecut=   100.00 Ry     beta= 0.70
     Davidson diagonalization with overlap
     ethr =  1.35E-03,  avg # of iterations =  4.5

     total cpu time spent up to now is       47.1 secs

     total energy              =    -810.36333780 Ry
     Harris-Foulkes estimate   =    -811.20875342 Ry
     estimated scf accuracy    <       7.22406573 Ry

     total magnetization       =     4.00 Bohr mag/cell
     absolute magnetization    =     4.12 Bohr mag/cell

     iteration #  5     ecut=   100.00 Ry     beta= 0.70
     Davidson diagonalization with overlap
     ethr =  1.35E-03,  avg # of iterations =  1.5

     total cpu time spent up to now is       55.0 secs

     total energy              =    -810.68070563 Ry
     Harris-Foulkes estimate   =    -810.72555267 Ry
     estimated scf accuracy    <       0.13174255 Ry

     total magnetization       =     4.00 Bohr mag/cell
     absolute magnetization    =     4.13 Bohr mag/cell

     iteration #  6     ecut=   100.00 Ry     beta= 0.70
     Davidson diagonalization with overlap
     ethr =  6.59E-05,  avg # of iterations =  7.0

     total cpu time spent up to now is       66.3 secs

     total energy              =    -810.65288899 Ry
     Harris-Foulkes estimate   =    -810.73038758 Ry
     estimated scf accuracy    <       0.73703947 Ry

     total magnetization       =     4.00 Bohr mag/cell
     absolute magnetization    =     4.12 Bohr mag/cell

     iteration #  7     ecut=   100.00 Ry     beta= 0.70
     Davidson diagonalization with overlap
     ethr =  6.59E-05,  avg # of iterations =  2.0

     total cpu time spent up to now is       74.4 secs

     total energy              =    -810.67008405 Ry
     Harris-Foulkes estimate   =    -810.68840188 Ry
     estimated scf accuracy    <       0.21089486 Ry

     total magnetization       =     4.00 Bohr mag/cell
     absolute magnetization    =     4.13 Bohr mag/cell

     iteration #  8     ecut=   100.00 Ry     beta= 0.70
     Davidson diagonalization with overlap
     ethr =  6.59E-05,  avg # of iterations =  1.5

     total cpu time spent up to now is       82.4 secs

     total energy              =    -810.67548747 Ry
     Harris-Foulkes estimate   =    -810.68472146 Ry
     estimated scf accuracy    <       0.09743984 Ry

     total magnetization       =     4.00 Bohr mag/cell
     absolute magnetization    =     4.13 Bohr mag/cell

     iteration #  9     ecut=   100.00 Ry     beta= 0.70
     Davidson diagonalization with overlap
     ethr =  4.87E-05,  avg # of iterations =  1.5

     total cpu time spent up to now is       90.4 secs

     total energy              =    -810.68252955 Ry
     Harris-Foulkes estimate   =    -810.68120131 Ry
     estimated scf accuracy    <       0.01032709 Ry

     total magnetization       =     4.00 Bohr mag/cell
     absolute magnetization    =     4.12 Bohr mag/cell

     iteration # 10     ecut=   100.00 Ry     beta= 0.70
     Davidson diagonalization with overlap
     ethr =  5.16E-06,  avg # of iterations =  4.0

     total cpu time spent up to now is       99.7 secs

     total energy              =    -810.68229984 Ry
     Harris-Foulkes estimate   =    -810.68466402 Ry
     estimated scf accuracy    <       0.03853226 Ry

     total magnetization       =     4.00 Bohr mag/cell
     absolute magnetization    =     4.10 Bohr mag/cell

     iteration # 11     ecut=   100.00 Ry     beta= 0.70
     Davidson diagonalization with overlap
     ethr =  5.16E-06,  avg # of iterations =  2.5

     total cpu time spent up to now is      107.9 secs

     total energy              =    -810.68444769 Ry
     Harris-Foulkes estimate   =    -810.68397646 Ry
     estimated scf accuracy    <       0.00179908 Ry

     total magnetization       =     4.00 Bohr mag/cell
     absolute magnetization    =     4.10 Bohr mag/cell

     iteration # 12     ecut=   100.00 Ry     beta= 0.70
     Davidson diagonalization with overlap
     ethr =  9.00E-07,  avg # of iterations =  3.0

     total cpu time spent up to now is      116.7 secs

     total energy              =    -810.68495777 Ry
     Harris-Foulkes estimate   =    -810.68455682 Ry
     estimated scf accuracy    <       0.00037632 Ry

     total magnetization       =     4.00 Bohr mag/cell
     absolute magnetization    =     4.10 Bohr mag/cell

     iteration # 13     ecut=   100.00 Ry     beta= 0.70
     Davidson diagonalization with overlap
     ethr =  1.88E-07,  avg # of iterations =  3.5

     total cpu time spent up to now is      125.5 secs

     total energy              =    -810.68505227 Ry
     Harris-Foulkes estimate   =    -810.68499002 Ry
     estimated scf accuracy    <       0.00009528 Ry

     total magnetization       =     4.00 Bohr mag/cell
     absolute magnetization    =     4.10 Bohr mag/cell

     iteration # 14     ecut=   100.00 Ry     beta= 0.70
     Davidson diagonalization with overlap
     ethr =  4.76E-08,  avg # of iterations =  3.0

     total cpu time spent up to now is      134.0 secs

     total energy              =    -810.68507500 Ry
     Harris-Foulkes estimate   =    -810.68505996 Ry
     estimated scf accuracy    <       0.00003244 Ry

     total magnetization       =     4.00 Bohr mag/cell
     absolute magnetization    =     4.10 Bohr mag/cell

     iteration # 15     ecut=   100.00 Ry     beta= 0.70
     Davidson diagonalization with overlap
     ethr =  1.62E-08,  avg # of iterations =  2.5

     total cpu time spent up to now is      142.1 secs

     total energy              =    -810.68508195 Ry
     Harris-Foulkes estimate   =    -810.68507716 Ry
     estimated scf accuracy    <       0.00000930 Ry

     total magnetization       =     4.00 Bohr mag/cell
     absolute magnetization    =     4.10 Bohr mag/cell

     iteration # 16     ecut=   100.00 Ry     beta= 0.70
     Davidson diagonalization with overlap
     ethr =  4.65E-09,  avg # of iterations =  3.0

     total cpu time spent up to now is      150.8 secs

     total energy              =    -810.68508371 Ry
     Harris-Foulkes estimate   =    -810.68508307 Ry
     estimated scf accuracy    <       0.00000351 Ry

     total magnetization       =     4.00 Bohr mag/cell
     absolute magnetization    =     4.10 Bohr mag/cell

     iteration # 17     ecut=   100.00 Ry     beta= 0.70
     Davidson diagonalization with overlap
     ethr =  1.76E-09,  avg # of iterations =  2.0

     total cpu time spent up to now is      158.8 secs

     total energy              =    -810.68508442 Ry
     Harris-Foulkes estimate   =    -810.68508405 Ry
     estimated scf accuracy    <       0.00000373 Ry

     total magnetization       =     4.00 Bohr mag/cell
     absolute magnetization    =     4.10 Bohr mag/cell

     iteration # 18     ecut=   100.00 Ry     beta= 0.70
     Davidson diagonalization with overlap
     ethr =  1.76E-09,  avg # of iterations =  2.5
 
     Magnetic moment per site:
     atom:    1    charge:    0.5996    magn:    0.0036    constr:    0.0000
     atom:    2    charge:    0.5739    magn:    0.0039    constr:    0.0000
     atom:    3    charge:    0.5986    magn:    0.0038    constr:    0.0000
     atom:    4    charge:    0.5997    magn:    0.0036    constr:    0.0000
     atom:    5    charge:    0.5922    magn:    0.0032    constr:    0.0000
     atom:    6    charge:    0.5928    magn:    0.0033    constr:    0.0000
     atom:    7    charge:    0.5943    magn:    0.0032    constr:    0.0000
     atom:    8    charge:    0.5913    magn:    0.0033    constr:    0.0000
     atom:    9    charge:    0.5983    magn:    0.0036    constr:    0.0000
     atom:   10    charge:    0.5741    magn:    0.0038    constr:    0.0000
     atom:   11    charge:    0.5593    magn:   -0.0013    constr:    0.0000
     atom:   12    charge:    0.5593    magn:   -0.0012    constr:    0.0000
     atom:   13    charge:    0.5996    magn:    0.0036    constr:    0.0000
     atom:   14    charge:    0.5739    magn:    0.0039    constr:    0.0000
     atom:   15    charge:    0.5986    magn:    0.0038    constr:    0.0000
     atom:   16    charge:    0.5997    magn:    0.0036    constr:    0.0000
     atom:   17    charge:    0.5922    magn:    0.0032    constr:    0.0000
     atom:   18    charge:    0.5928    magn:    0.0033    constr:    0.0000
     atom:   19    charge:    0.5943    magn:    0.0032    constr:    0.0000
     atom:   20    charge:    0.5913    magn:    0.0033    constr:    0.0000
     atom:   21    charge:    0.5983    magn:    0.0036    constr:    0.0000
     atom:   22    charge:    0.5741    magn:    0.0038    constr:    0.0000
     atom:   23    charge:    0.5593    magn:   -0.0014    constr:    0.0000
     atom:   24    charge:    0.5593    magn:   -0.0012    constr:    0.0000
     atom:   25    charge:    0.4556    magn:   -0.0007    constr:    0.0000
     atom:   26    charge:    0.4558    magn:   -0.0008    constr:    0.0000
     atom:   27    charge:    0.4560    magn:   -0.0007    constr:    0.0000
     atom:   28    charge:    0.4596    magn:   -0.0005    constr:    0.0000
     atom:   29    charge:    0.4599    magn:   -0.0006    constr:    0.0000
     atom:   30    charge:    0.4581    magn:   -0.0004    constr:    0.0000
     atom:   31    charge:    0.4575    magn:   -0.0004    constr:    0.0000
     atom:   32    charge:    0.4564    magn:   -0.0008    constr:    0.0000
     atom:   33    charge:    0.4556    magn:   -0.0007    constr:    0.0000
     atom:   34    charge:    0.4558    magn:   -0.0008    constr:    0.0000
     atom:   35    charge:    0.4560    magn:   -0.0007    constr:    0.0000
     atom:   36    charge:    0.4596    magn:   -0.0005    constr:    0.0000
     atom:   37    charge:    0.4599    magn:   -0.0006    constr:    0.0000
     atom:   38    charge:    0.4581    magn:   -0.0004    constr:    0.0000
     atom:   39    charge:    0.4575    magn:   -0.0004    constr:    0.0000
     atom:   40    charge:    0.4564    magn:   -0.0008    constr:    0.0000
     atom:   41    charge:    2.4101    magn:    0.0143    constr:    0.0000
     atom:   42    charge:    2.4045    magn:    0.0134    constr:    0.0000
     atom:   43    charge:    2.4101    magn:    0.0143    constr:    0.0000
     atom:   44    charge:    2.4045    magn:    0.0134    constr:    0.0000
     atom:   45    charge:    7.5199    magn:    1.2593    constr:    0.0000
     atom:   46    charge:    7.5195    magn:    1.2592    constr:    0.0000
     atom:   47    charge:    3.1202    magn:    0.0530    constr:    0.0000
     atom:   48    charge:    3.1191    magn:    0.0537    constr:    0.0000
     atom:   49    charge:    3.1289    magn:    0.0507    constr:    0.0000
     atom:   50    charge:    3.1268    magn:    0.0529    constr:    0.0000
     atom:   51    charge:    3.1202    magn:    0.0530    constr:    0.0000
     atom:   52    charge:    3.1192    magn:    0.0537    constr:    0.0000
     atom:   53    charge:    3.1289    magn:    0.0507    constr:    0.0000
     atom:   54    charge:    3.1269    magn:    0.0529    constr:    0.0000

     total cpu time spent up to now is      166.4 secs

     End of self-consistent calculation

 ------ SPIN UP ------------


          k = 0.0000 0.0000 0.0000 ( 45819 PWs)   bands (ev):

   -22.6624 -22.6600 -22.5619 -22.5599 -19.9632 -19.9630 -19.9423 -19.9412
   -19.4056 -19.3917 -19.2805 -19.2730 -15.5798 -15.5125 -15.5075 -15.4801
   -14.6076 -14.5710 -14.5674 -14.5232 -11.7735 -11.7225 -11.7003 -11.6695
   -11.4719 -11.4412 -11.4109 -11.3510  -9.9228  -9.6612  -9.6377  -9.5633
    -8.2609  -7.9884  -7.9536  -7.9426  -7.6994  -7.6731  -7.6187  -7.5381
    -7.2951  -7.1783  -7.0215  -6.9628  -6.9115  -6.7459  -6.7174  -6.6699
    -6.6457  -6.6007  -6.4455  -6.4197  -6.3920  -6.3556  -6.2637  -6.1168
    -6.1109  -6.0394  -5.9787  -5.9311  -5.7185  -5.5559  -5.3637  -5.1752
    -4.5705  -4.5031  -4.3574  -4.2963  -4.2696  -4.2682  -4.0707  -4.0586
    -3.7553  -3.4915  -3.3579  -3.2642  -3.2476  -3.2078  -3.1877  -3.1479
    -3.0602  -2.7330  -2.6331  -2.6134  -2.5105  -2.4868  -2.4701  -2.4116
    -2.3793  -2.3317  -2.3046  -2.2857  -2.2261  -2.1470  -2.1079  -2.0669
    -2.0169  -1.9173  -0.5976  -0.5760  -0.3399  -0.3186   2.0440   2.0601
     2.0986   2.1389   3.0298   3.1421   3.3181   3.4719   3.4789   4.2657
     4.5053   4.5692   4.7429   4.7771   4.9910   5.3651   5.7320   5.7848
     5.8129   6.1255

 ------ SPIN DOWN ----------


          k = 0.0000 0.0000 0.0000 ( 45819 PWs)   bands (ev):

   -22.5613 -22.5588 -22.4605 -22.4584 -19.8353 -19.8351 -19.8113 -19.8102
   -19.3721 -19.3580 -19.2482 -19.2405 -15.5408 -15.4740 -15.4691 -15.4405
   -14.5735 -14.5367 -14.5332 -14.4889 -11.7280 -11.6805 -11.6591 -11.6296
   -11.4451 -11.4138 -11.3838 -11.3242  -9.8929  -9.6334  -9.6090  -9.5308
    -8.1955  -7.9351  -7.8968  -7.8798  -7.6601  -7.6260  -7.5771  -7.5051
    -7.2672  -7.1434  -6.9835  -6.9247  -6.8033  -6.6504  -6.5968  -6.5472
    -6.5300  -6.5205  -6.3400  -6.2955  -6.2669  -6.2418  -6.1974  -6.0810
    -6.0303  -6.0118  -5.9405  -5.9094  -5.6502  -5.4792  -5.2882  -5.0984
    -4.4318  -4.3073  -4.2772  -4.2392  -4.2316  -3.9084  -3.6081  -3.5905
    -3.2462  -3.1436  -3.0651  -3.0201  -2.7983  -2.7453  -2.6785  -2.6591
    -2.6093  -2.4723  -2.4717  -2.3584  -2.3142  -2.2954  -2.2146  -2.1615
    -2.1479  -2.0098  -1.9811  -1.8290  -1.6057  -1.3710  -1.3587  -1.3314
    -1.3123  -1.2014   0.2522   0.2586   0.4494   0.4681   2.1331   2.1630
     2.2153   2.2286   3.1060   3.2193   3.3970   3.5128   3.5531   4.3118
     4.5518   4.6267   4.8012   4.8489   5.0411   5.4110   5.7749   5.8168
     5.8597   6.2011

     the spin up/dw Fermi energies are     0.0860   -0.2220 ev

!    total energy              =    -810.68508453 Ry
     Harris-Foulkes estimate   =    -810.68508461 Ry
     estimated scf accuracy    <       0.00000069 Ry

     The total energy is the sum of the following terms:

     one-electron contribution =   -1216.55114504 Ry
     hartree contribution      =     678.55084099 Ry
     xc contribution           =    -248.39572598 Ry
     ewald contribution        =     -25.36061178 Ry
     Dispersion Correction     =      -0.20316514 Ry
     smearing contrib. (-TS)   =       1.27472242 Ry

     total magnetization       =     4.00 Bohr mag/cell
     absolute magnetization    =     4.10 Bohr mag/cell

     convergence has been achieved in  18 iterations

     Forces acting on atoms (cartesian axes, Ry/au):

     atom    1 type  1   force =     0.15795904   -0.07213103    0.17035522
     atom    2 type  1   force =     0.01391354    0.01125109    0.01196909
     atom    3 type  1   force =    -0.23408319   -0.04747496   -0.07997768
     atom    4 type  1   force =    -0.15337784    0.08563022    0.17213323
     atom    5 type  1   force =    -0.22791977   -0.09350495    0.03091360
     atom    6 type  1   force =     0.22244110    0.08446799    0.04666714
     atom    7 type  1   force =    -0.13055462    0.08629225   -0.17394054
     atom    8 type  1   force =     0.15582769   -0.07922205   -0.16637201
     atom    9 type  1   force =     0.24669035    0.06766761   -0.07943280
     atom   10 type  1   force =    -0.03532591   -0.01946961    0.00227720
     atom   11 type  1   force =    -0.05027514   -0.07834610    0.03176930
     atom   12 type  1   force =     0.05973703    0.08213953    0.03957398
     atom   13 type  1   force =     0.15795904    0.07213103    0.17035522
     atom   14 type  1   force =     0.01391354   -0.01125109    0.01196909
     atom   15 type  1   force =    -0.23408319    0.04747496   -0.07997768
     atom   16 type  1   force =    -0.15337784   -0.08563022    0.17213323
     atom   17 type  1   force =    -0.22791977    0.09350495    0.03091360
     atom   18 type  1   force =     0.22244110   -0.08446799    0.04666714
     atom   19 type  1   force =    -0.13055462   -0.08629225   -0.17394054
     atom   20 type  1   force =     0.15582769    0.07922205   -0.16637201
     atom   21 type  1   force =     0.24669035   -0.06766761   -0.07943280
     atom   22 type  1   force =    -0.03532591    0.01946961    0.00227720
     atom   23 type  1   force =    -0.05027514    0.07834610    0.03176930
     atom   24 type  1   force =     0.05973703   -0.08213953    0.03957398
     atom   25 type  2   force =    -0.16203375    0.09373573   -0.20258476
     atom   26 type  2   force =     0.25824946    0.08084926    0.05553223
     atom   27 type  2   force =     0.17052130   -0.09723571   -0.19363690
     atom   28 type  2   force =     0.25376577    0.11236183   -0.03346403
     atom   29 type  2   force =    -0.25715825   -0.10842181   -0.03605573
     atom   30 type  2   force =     0.14209654   -0.11256972    0.21338022
     atom   31 type  2   force =    -0.15071683    0.11831335    0.20181501
     atom   32 type  2   force =    -0.25602346   -0.09668967    0.05749029
     atom   33 type  2   force =    -0.16203375   -0.09373573   -0.20258476
     atom   34 type  2   force =     0.25824946   -0.08084926    0.05553223
     atom   35 type  2   force =     0.17052130    0.09723571   -0.19363690
     atom   36 type  2   force =     0.25376577   -0.11236183   -0.03346403
     atom   37 type  2   force =    -0.25715825    0.10842181   -0.03605573
     atom   38 type  2   force =     0.14209654    0.11256972    0.21338022
     atom   39 type  2   force =    -0.15071683   -0.11831335    0.20181501
     atom   40 type  2   force =    -0.25602346    0.09668967    0.05749029
     atom   41 type  3   force =    -0.02024666   -0.01655621    0.01629946
     atom   42 type  3   force =    -0.00188558    0.00391087    0.01725513
     atom   43 type  3   force =    -0.02024666    0.01655621    0.01629946
     atom   44 type  3   force =    -0.00188558   -0.00391087    0.01725513
     atom   45 type  4   force =     0.00168688   -0.00834092   -0.02478534
     atom   46 type  4   force =     0.00168688    0.00834092   -0.02478534
     atom   47 type  5   force =    -0.01504024   -0.03655748   -0.02527373
     atom   48 type  5   force =     0.01627195    0.03974728   -0.02007120
     atom   49 type  5   force =    -0.04232172   -0.04443437   -0.01694661
     atom   50 type  5   force =     0.03780230    0.04781680   -0.01488977
     atom   51 type  5   force =    -0.01504024    0.03655748   -0.02527373
     atom   52 type  5   force =     0.01627195   -0.03974728   -0.02007120
     atom   53 type  5   force =    -0.04232172    0.04443437   -0.01694661
     atom   54 type  5   force =     0.03780230   -0.04781680   -0.01488977

     Total force =     1.514007     Total SCF correction =     0.001711

     BFGS Geometry Optimization

     number of scf cycles    =   1
     number of bfgs steps    =   0

     energy   new            =    -810.6850845324 Ry

     new trust radius        =       0.2813994838 bohr
     new conv_thr            =       0.0000010000 Ry


ATOMIC_POSITIONS (crystal)
C             0.6014875112        0.9562520978        0.5221741533
C             0.7943999479        0.9984754156        0.5343164686
C             0.8971395013        0.9525939419        0.6312807458
C             0.3950422673        0.5227183113        0.5529657301
C             0.4610690039        0.5992489413        0.6232922062
C             0.5304127756        0.8844692011        0.5974035933
C             0.8171250154        0.8813462856        0.7047411844
C             0.1773758650        0.6011524662        0.7260310021
C             0.1033285988        0.5231593000        0.6585088099
C             0.2049146215        0.4761773103        0.5647172875
C             0.8738047515        0.0859894796        0.4566362792
C             0.1271297610        0.3896708122        0.4835382595
C             0.1014875112        0.0437479022        0.0221741533
C             0.2943999479        0.0015245844        0.0343164686
C             0.3971395013        0.0474060581        0.1312807458
C             0.8950422673        0.4772816887        0.0529657301
C             0.9610690039        0.4007510587        0.1232922062
C             0.0304127756        0.1155307989        0.0974035933
C             0.3171250154        0.1186537144        0.2047411844
C             0.6773758650        0.3988475338        0.2260310021
C             0.6033285988        0.4768407000        0.1585088099
C             0.7049146215        0.5238226897        0.0647172875
C             0.3738047515        0.9140105204        0.9566362792
C             0.6271297610        0.6103291878        0.9835382595
H             0.4861072232        0.9901608104        0.4336658626
H             0.0821598727        0.9812162914        0.6533601902
H             0.5091682778        0.4868912977        0.4678267227
H             0.6405135730        0.6360478574        0.6061764338
H             0.3502689902        0.8484186282        0.5772429482
H             0.9257257204        0.8435433581        0.7935901582
H             0.0669231148        0.6395993393        0.8110944911
H             0.9230404004        0.4884143708        0.6820610399
H            -0.0138927768        0.0098391896        0.9336658626
H             0.5821598727        0.0187837086        0.1533601902
H             1.0091682778        0.5131087023        0.9678267227
H             0.1405135730        0.3639521426        0.1061764338
H             0.8502689902        0.1515813718        0.0772429482
H             0.4257257204        0.1564566419        0.2935901582
H             0.5669231148        0.3604006607        0.3110944911
H             0.4230404004        0.5115856292        0.1820610399
N             0.6262170729        0.8422004161        0.6970395044
N             0.3609727713        0.6462652541        0.7159887261
N             0.1262170729        0.1577995839        0.1970395044
N             0.8609727713        0.3537347459        0.2159887261
Ni            0.4948962962        0.7536075538        0.8381534300
Ni            0.9948962962        0.2463924462        0.3381534300
O             0.2399797568        0.3480752611        0.3915982752
O             0.7562394741        0.1347595244        0.3691662321
O             0.9332865242        0.3503524223        0.4964271642
O             0.0696713114        0.1218205023        0.4734331015
O             0.7399797568        0.6519247389        0.8915982752
O             0.2562394741        0.8652404756        0.8691662321
O             0.4332865242        0.6496475777        0.9964271642
O             0.5696713114        0.8781794977        0.9734331015



     Writing output data file ./QE_relaxation_results/PBESOL_relax/NiPyC2_relax/NiPyC2_pbesol_relax.save/
     NEW-OLD atomic charge density approx. for the potential

     Check: negative core charge=   -0.000145

     total cpu time spent up to now is      173.7 secs

     Self-consistent Calculation

     iteration #  1     ecut=   100.00 Ry     beta= 0.70
     Davidson diagonalization with overlap
     ethr =  1.00E-06,  avg # of iterations = 16.0

     total cpu time spent up to now is      213.4 secs

     total energy              =    -810.30093465 Ry
     Harris-Foulkes estimate   =    -810.50258238 Ry
     estimated scf accuracy    <       0.59910935 Ry

     total magnetization       =     4.00 Bohr mag/cell
     absolute magnetization    =     4.06 Bohr mag/cell

     iteration #  2     ecut=   100.00 Ry     beta= 0.70
     Davidson diagonalization with overlap
     ethr =  3.00E-04,  avg # of iterations =  2.0

     total cpu time spent up to now is      221.4 secs

     total energy              =    -810.30799149 Ry
     Harris-Foulkes estimate   =    -810.34418349 Ry
     estimated scf accuracy    <       0.08780367 Ry

     total magnetization       =     4.00 Bohr mag/cell
     absolute magnetization    =     4.06 Bohr mag/cell

     iteration #  3     ecut=   100.00 Ry     beta= 0.70
     Davidson diagonalization with overlap
     ethr =  4.39E-05,  avg # of iterations =  2.0

     total cpu time spent up to now is      231.6 secs

     total energy              =    -810.31074264 Ry
     Harris-Foulkes estimate   =    -810.32921756 Ry
     estimated scf accuracy    <       0.13098677 Ry

     total magnetization       =     4.00 Bohr mag/cell
     absolute magnetization    =     4.06 Bohr mag/cell

     iteration #  4     ecut=   100.00 Ry     beta= 0.70
     Davidson diagonalization with overlap
     ethr =  4.39E-05,  avg # of iterations =  1.5

     total cpu time spent up to now is      239.5 secs

     total energy              =    -810.31778366 Ry
     Harris-Foulkes estimate   =    -810.32576558 Ry
     estimated scf accuracy    <       0.10258199 Ry

     total magnetization       =     4.00 Bohr mag/cell
     absolute magnetization    =     4.06 Bohr mag/cell

     iteration #  5     ecut=   100.00 Ry     beta= 0.70
     Davidson diagonalization with overlap
     ethr =  4.39E-05,  avg # of iterations =  1.0

     total cpu time spent up to now is      247.4 secs

     total energy              =    -810.32115834 Ry
     Harris-Foulkes estimate   =    -810.32231562 Ry
     estimated scf accuracy    <       0.01182444 Ry

     total magnetization       =     4.00 Bohr mag/cell
     absolute magnetization    =     4.06 Bohr mag/cell

     iteration #  6     ecut=   100.00 Ry     beta= 0.70
     Davidson diagonalization with overlap
     ethr =  5.91E-06,  avg # of iterations =  1.0

     total cpu time spent up to now is      255.3 secs

     total energy              =    -810.32169573 Ry
     Harris-Foulkes estimate   =    -810.32191991 Ry
     estimated scf accuracy    <       0.00168625 Ry

     total magnetization       =     4.00 Bohr mag/cell
     absolute magnetization    =     4.06 Bohr mag/cell

     iteration #  7     ecut=   100.00 Ry     beta= 0.70
     Davidson diagonalization with overlap
     ethr =  8.43E-07,  avg # of iterations =  1.5

     total cpu time spent up to now is      263.3 secs

     total energy              =    -810.32181209 Ry
     Harris-Foulkes estimate   =    -810.32183833 Ry
     estimated scf accuracy    <       0.00038057 Ry

     total magnetization       =     4.00 Bohr mag/cell
     absolute magnetization    =     4.06 Bohr mag/cell

     iteration #  8     ecut=   100.00 Ry     beta= 0.70
     Davidson diagonalization with overlap
     ethr =  1.90E-07,  avg # of iterations =  2.0

     total cpu time spent up to now is      271.3 secs

     total energy              =    -810.32183781 Ry
     Harris-Foulkes estimate   =    -810.32183730 Ry
     estimated scf accuracy    <       0.00015487 Ry

     total magnetization       =     4.00 Bohr mag/cell
     absolute magnetization    =     4.07 Bohr mag/cell

     iteration #  9     ecut=   100.00 Ry     beta= 0.70
     Davidson diagonalization with overlap
     ethr =  7.74E-08,  avg # of iterations =  2.5

     total cpu time spent up to now is      279.9 secs

     total energy              =    -810.32185410 Ry
     Harris-Foulkes estimate   =    -810.32185301 Ry
     estimated scf accuracy    <       0.00004300 Ry

     total magnetization       =     4.00 Bohr mag/cell
     absolute magnetization    =     4.07 Bohr mag/cell

     iteration # 10     ecut=   100.00 Ry     beta= 0.70
     Davidson diagonalization with overlap
     ethr =  2.15E-08,  avg # of iterations =  2.5

     total cpu time spent up to now is      288.1 secs

     total energy              =    -810.32185978 Ry
     Harris-Foulkes estimate   =    -810.32185739 Ry
     estimated scf accuracy    <       0.00002189 Ry

     total magnetization       =     4.00 Bohr mag/cell
     absolute magnetization    =     4.07 Bohr mag/cell

     iteration # 11     ecut=   100.00 Ry     beta= 0.70
     Davidson diagonalization with overlap
     ethr =  1.09E-08,  avg # of iterations =  2.0

     total cpu time spent up to now is      296.0 secs

     total energy              =    -810.32186241 Ry
     Harris-Foulkes estimate   =    -810.32186072 Ry
     estimated scf accuracy    <       0.00001033 Ry

     total magnetization       =     4.00 Bohr mag/cell
     absolute magnetization    =     4.07 Bohr mag/cell

     iteration # 12     ecut=   100.00 Ry     beta= 0.70
     Davidson diagonalization with overlap
     ethr =  5.16E-09,  avg # of iterations =  3.0

     total cpu time spent up to now is      304.3 secs

     total energy              =    -810.32186312 Ry
     Harris-Foulkes estimate   =    -810.32186304 Ry
     estimated scf accuracy    <       0.00000281 Ry

     total magnetization       =     4.00 Bohr mag/cell
     absolute magnetization    =     4.07 Bohr mag/cell

     iteration # 13     ecut=   100.00 Ry     beta= 0.70
     Davidson diagonalization with overlap
     ethr =  1.41E-09,  avg # of iterations =  2.5
 
     Magnetic moment per site:
     atom:    1    charge:    0.5679    magn:    0.0040    constr:    0.0000
     atom:    2    charge:    0.6083    magn:    0.0036    constr:    0.0000
     atom:    3    charge:    0.5680    magn:    0.0039    constr:    0.0000
     atom:    4    charge:    0.5668    magn:    0.0040    constr:    0.0000
     atom:    5    charge:    0.5622    magn:    0.0032    constr:    0.0000
     atom:    6    charge:    0.5625    magn:    0.0033    constr:    0.0000
     atom:    7    charge:    0.5643    magn:    0.0040    constr:    0.0000
     atom:    8    charge:    0.5641    magn:    0.0038    constr:    0.0000
     atom:    9    charge:    0.5632    magn:    0.0037    constr:    0.0000
     atom:   10    charge:    0.6081    magn:    0.0036    constr:    0.0000
     atom:   11    charge:    0.5470    magn:   -0.0017    constr:    0.0000
     atom:   12    charge:    0.5465    magn:   -0.0016    constr:    0.0000
     atom:   13    charge:    0.5679    magn:    0.0040    constr:    0.0000
     atom:   14    charge:    0.6083    magn:    0.0036    constr:    0.0000
     atom:   15    charge:    0.5680    magn:    0.0039    constr:    0.0000
     atom:   16    charge:    0.5668    magn:    0.0040    constr:    0.0000
     atom:   17    charge:    0.5622    magn:    0.0032    constr:    0.0000
     atom:   18    charge:    0.5625    magn:    0.0033    constr:    0.0000
     atom:   19    charge:    0.5643    magn:    0.0040    constr:    0.0000
     atom:   20    charge:    0.5641    magn:    0.0038    constr:    0.0000
     atom:   21    charge:    0.5632    magn:    0.0037    constr:    0.0000
     atom:   22    charge:    0.6081    magn:    0.0036    constr:    0.0000
     atom:   23    charge:    0.5470    magn:   -0.0017    constr:    0.0000
     atom:   24    charge:    0.5465    magn:   -0.0016    constr:    0.0000
     atom:   25    charge:    0.3538    magn:    0.0015    constr:    0.0000
     atom:   26    charge:    0.3528    magn:    0.0017    constr:    0.0000
     atom:   27    charge:    0.3527    magn:    0.0016    constr:    0.0000
     atom:   28    charge:    0.3589    magn:    0.0018    constr:    0.0000
     atom:   29    charge:    0.3610    magn:    0.0017    constr:    0.0000
     atom:   30    charge:    0.3572    magn:    0.0024    constr:    0.0000
     atom:   31    charge:    0.3553    magn:    0.0023    constr:    0.0000
     atom:   32    charge:    0.3488    magn:    0.0018    constr:    0.0000
     atom:   33    charge:    0.3538    magn:    0.0015    constr:    0.0000
     atom:   34    charge:    0.3528    magn:    0.0017    constr:    0.0000
     atom:   35    charge:    0.3527    magn:    0.0016    constr:    0.0000
     atom:   36    charge:    0.3589    magn:    0.0018    constr:    0.0000
     atom:   37    charge:    0.3610    magn:    0.0017    constr:    0.0000
     atom:   38    charge:    0.3572    magn:    0.0024    constr:    0.0000
     atom:   39    charge:    0.3553    magn:    0.0023    constr:    0.0000
     atom:   40    charge:    0.3488    magn:    0.0018    constr:    0.0000
     atom:   41    charge:    2.4756    magn:    0.0151    constr:    0.0000
     atom:   42    charge:    2.4744    magn:    0.0149    constr:    0.0000
     atom:   43    charge:    2.4757    magn:    0.0151    constr:    0.0000
     atom:   44    charge:    2.4744    magn:    0.0149    constr:    0.0000
     atom:   45    charge:    7.5107    magn:    1.2021    constr:    0.0000
     atom:   46    charge:    7.5106    magn:    1.2023    constr:    0.0000
     atom:   47    charge:    3.1023    magn:    0.0509    constr:    0.0000
     atom:   48    charge:    3.0999    magn:    0.0529    constr:    0.0000
     atom:   49    charge:    3.0889    magn:    0.0607    constr:    0.0000
     atom:   50    charge:    3.0905    magn:    0.0614    constr:    0.0000
     atom:   51    charge:    3.1023    magn:    0.0509    constr:    0.0000
     atom:   52    charge:    3.0999    magn:    0.0529    constr:    0.0000
     atom:   53    charge:    3.0888    magn:    0.0607    constr:    0.0000
     atom:   54    charge:    3.0904    magn:    0.0614    constr:    0.0000

     total cpu time spent up to now is      312.0 secs

     End of self-consistent calculation

 ------ SPIN UP ------------


          k = 0.0000 0.0000 0.0000 ( 45819 PWs)   bands (ev):

   -22.3255 -22.3182 -22.2240 -22.2189 -20.6420 -20.6227 -20.5681 -20.5562
   -19.5623 -19.5613 -19.5428 -19.5420 -16.6076 -16.5461 -16.5448 -16.5191
   -14.3979 -14.3671 -14.3413 -14.3129 -12.5153 -12.3887 -12.3501 -12.3235
   -10.9726 -10.9481 -10.9188 -10.8547  -9.6536  -9.5152  -9.5036  -9.4040
    -8.6096  -8.2726  -8.2303  -8.1869  -8.1220  -8.1035  -7.8434  -7.7323
    -7.2286  -7.1205  -7.1089  -7.0165  -6.8670  -6.7467  -6.6877  -6.5143
    -6.4683  -6.3635  -6.3448  -6.2468  -6.2301  -6.0055  -5.7460  -5.5148
    -5.0686  -5.0331  -4.9520  -4.9161  -4.8638  -4.7124  -4.6364  -4.5798
    -4.5209  -4.4374  -4.3515  -4.2836  -3.9136  -3.8565  -3.8030  -3.7514
    -3.6296  -3.4492  -3.3981  -3.3624  -3.3608  -3.0874  -2.9892  -2.9098
    -2.8795  -2.7756  -2.7205  -2.7110  -2.6953  -2.6471  -2.6105  -2.5455
    -2.4820  -2.4290  -2.3270  -2.3144  -2.2809  -2.2744  -2.2325  -2.1782
    -2.1460  -2.1135  -0.6724  -0.6266  -0.5202  -0.5127   1.6944   1.7563
     1.7724   1.8586   3.3042   3.8600   3.9581   4.0634   4.1175   4.3175
     4.3312   4.5012   4.5807   4.7063   4.8159   5.0732   5.1823   5.3617
     5.4733   5.5099

 ------ SPIN DOWN ----------


          k = 0.0000 0.0000 0.0000 ( 45819 PWs)   bands (ev):

   -22.2178 -22.2098 -22.1173 -22.1117 -20.6074 -20.5874 -20.5332 -20.5206
   -19.4181 -19.4171 -19.4011 -19.4002 -16.5688 -16.5077 -16.5060 -16.4796
   -14.3556 -14.3247 -14.2979 -14.2695 -12.4731 -12.3479 -12.3105 -12.2810
   -10.9339 -10.9094 -10.8810 -10.8172  -9.6108  -9.4731  -9.4611  -9.3631
    -8.5479  -8.2328  -8.1846  -8.1431  -8.0820  -8.0298  -7.7665  -7.6429
    -7.1388  -6.9999  -6.9845  -6.9267  -6.7637  -6.6563  -6.6140  -6.4493
    -6.3296  -6.2376  -6.1962  -6.1416  -6.1122  -5.9046  -5.6482  -5.4248
    -5.0248  -4.9155  -4.8952  -4.8701  -4.7589  -4.5915  -4.5097  -4.4989
    -4.4497  -4.1726  -3.9618  -3.9368  -3.7146  -3.6014  -3.5654  -3.2806
    -3.1924  -3.1911  -3.1218  -2.9067  -2.8548  -2.8314  -2.7975  -2.7520
    -2.6047  -2.5684  -2.5093  -2.4278  -2.4214  -2.3670  -2.3094  -2.2291
    -2.1738  -2.0942  -2.0537  -2.0196  -1.8344  -1.5568  -1.5202  -1.5198
    -1.5083  -1.3973   0.1318   0.1499   0.2476   0.2748   1.8004   1.8444
     1.8909   1.9488   3.3360   3.9246   4.0120   4.1145   4.1829   4.3499
     4.4010   4.5570   4.6485   4.7523   4.8792   5.1210   5.2444   5.3946
     5.5024   5.5595

     the spin up/dw Fermi energies are    -0.1010   -0.3954 ev

!    total energy              =    -810.32186332 Ry
     Harris-Foulkes estimate   =    -810.32186331 Ry
     estimated scf accuracy    <       0.00000084 Ry

     The total energy is the sum of the following terms:

     one-electron contribution =   -1231.72061199 Ry
     hartree contribution      =     685.53555570 Ry
     xc contribution           =    -247.31722214 Ry
     ewald contribution        =     -18.08706464 Ry
     Dispersion Correction     =      -0.20008290 Ry
     smearing contrib. (-TS)   =       1.46756266 Ry

     total magnetization       =     4.00 Bohr mag/cell
     absolute magnetization    =     4.07 Bohr mag/cell

     convergence has been achieved in  13 iterations

     Forces acting on atoms (cartesian axes, Ry/au):

     atom    1 type  1   force =    -0.15238917    0.19374588   -0.32297745
     atom    2 type  1   force =     0.02282669    0.09703541   -0.08570735
     atom    3 type  1   force =     0.38026368    0.15988191    0.03127432
     atom    4 type  1   force =     0.14126696   -0.23097149   -0.31696149
     atom    5 type  1   force =     0.36717285    0.24890760    0.03077477
     atom    6 type  1   force =    -0.37467299   -0.22445451    0.01790516
     atom    7 type  1   force =     0.12831676   -0.21311314    0.32277133
     atom    8 type  1   force =    -0.15907489    0.21871683    0.30827015
     atom    9 type  1   force =    -0.37071985   -0.18780922    0.03891662
     atom   10 type  1   force =     0.00568214   -0.08376713   -0.08498949
     atom   11 type  1   force =     0.04844495    0.04427189   -0.02107610
     atom   12 type  1   force =    -0.05533368   -0.04886178   -0.02556522
     atom   13 type  1   force =    -0.15238917   -0.19374588   -0.32297745
     atom   14 type  1   force =     0.02282669   -0.09703541   -0.08570735
     atom   15 type  1   force =     0.38026368   -0.15988191    0.03127432
     atom   16 type  1   force =     0.14126696    0.23097149   -0.31696149
     atom   17 type  1   force =     0.36717285   -0.24890760    0.03077477
     atom   18 type  1   force =    -0.37467299    0.22445451    0.01790516
     atom   19 type  1   force =     0.12831676    0.21311314    0.32277133
     atom   20 type  1   force =    -0.15907489   -0.21871683    0.30827015
     atom   21 type  1   force =    -0.37071985    0.18780922    0.03891662
     atom   22 type  1   force =     0.00568214    0.08376713   -0.08498949
     atom   23 type  1   force =     0.04844495   -0.04427189   -0.02107610
     atom   24 type  1   force =    -0.05533368    0.04886178   -0.02556522
     atom   25 type  2   force =     0.06452672   -0.04449140    0.09099366
     atom   26 type  2   force =    -0.11349518   -0.03902081   -0.01666115
     atom   27 type  2   force =    -0.06619307    0.04797913    0.08699926
     atom   28 type  2   force =    -0.10899424   -0.04916471    0.01338010
     atom   29 type  2   force =     0.10594327    0.04988194    0.01749196
     atom   30 type  2   force =    -0.05470591    0.05067432   -0.08457109
     atom   31 type  2   force =     0.06023312   -0.04904133   -0.08012004
     atom   32 type  2   force =     0.11349770    0.05018165   -0.01894143
     atom   33 type  2   force =     0.06452672    0.04449140    0.09099366
     atom   34 type  2   force =    -0.11349518    0.03902081   -0.01666115
     atom   35 type  2   force =    -0.06619307   -0.04797913    0.08699926
     atom   36 type  2   force =    -0.10899424    0.04916471    0.01338010
     atom   37 type  2   force =     0.10594327   -0.04988194    0.01749196
     atom   38 type  2   force =    -0.05470591   -0.05067432   -0.08457109
     atom   39 type  2   force =     0.06023312    0.04904133   -0.08012004
     atom   40 type  2   force =     0.11349770   -0.05018165   -0.01894143
     atom   41 type  3   force =    -0.02733395   -0.05189816    0.05848357
     atom   42 type  3   force =     0.03895950    0.06425922    0.04580715
     atom   43 type  3   force =    -0.02733395    0.05189816    0.05848357
     atom   44 type  3   force =     0.03895950   -0.06425922    0.04580715
     atom   45 type  4   force =    -0.00131190   -0.00663991   -0.00279815
     atom   46 type  4   force =    -0.00131190    0.00663991   -0.00279815
     atom   47 type  5   force =    -0.04011992    0.00114540    0.02511924
     atom   48 type  5   force =     0.04232764   -0.00179381    0.02617830
     atom   49 type  5   force =     0.07678132    0.00833093   -0.02793285
     atom   50 type  5   force =    -0.07189855    0.00021911   -0.02606375
     atom   51 type  5   force =    -0.04011992   -0.00114540    0.02511924
     atom   52 type  5   force =     0.04232764    0.00179381    0.02617830
     atom   53 type  5   force =     0.07678132   -0.00833093   -0.02793285
     atom   54 type  5   force =    -0.07189855   -0.00021911   -0.02606375

     Total force =     1.785720     Total SCF correction =     0.001024

     number of scf cycles    =   2
     number of bfgs steps    =   1

     energy   old            =    -810.6850845324 Ry
     energy   new            =    -810.3218633198 Ry

     CASE: energy  _new > energy  _old

     new trust radius        =       0.1214542859 bohr
     new conv_thr            =       0.0000010000 Ry


ATOMIC_POSITIONS (crystal)
C             0.5937076402        0.9579845009        0.5171869953
C             0.7937179072        0.9982051932        0.5339660728
C             0.9084848878        0.9537341692        0.6336220967
C             0.4022368205        0.5206616923        0.5479265206
C             0.4719997470        0.6014946912        0.6223872090
C             0.5196629064        0.8824404960        0.5960374102
C             0.8235904649        0.8792737663        0.7098333029
C             0.1700573272        0.6030551774        0.7309015514
C             0.0915466304        0.5215340969        0.6608342094
C             0.2066114866        0.4766449205        0.5646506222
C             0.8761892969        0.0878711527        0.4557062313
C             0.1242140462        0.3876980305        0.4823797293
C             0.0937076402        0.0420154991        0.0171869953
C             0.2937179072        0.0017948068        0.0339660728
C             0.4084848878        0.0462658308        0.1336220967
C             0.9022368205        0.4793383077        0.0479265206
C             0.9719997470        0.3985053088        0.1223872090
C             0.0196629064        0.1175595040        0.0960374102
C             0.3235904649        0.1207262337        0.2098333029
C             0.6700573272        0.3969448226        0.2309015514
C             0.5915466304        0.4784659031        0.1608342094
C             0.7066114866        0.5233550795        0.0646506222
C             0.3761892969        0.9121288473        0.9557062313
C             0.6242140462        0.6123019695        0.9823797293
H             0.4941174439        0.9879095177        0.4395965422
H             0.0696780581        0.9792744989        0.6517344812
H             0.5011719821        0.4892266510        0.4734954531
H             0.6283422708        0.6333492135        0.6071560949
H             0.3626775602        0.8510226430        0.5782984814
H             0.9186630411        0.8462469950        0.7873434409
H             0.0739580366        0.6367577552        0.8051863462
H             0.9352947030        0.4907366095        0.6803780087
H            -0.0058825561        0.0120904823        0.9395965422
H             0.5696780581        0.0207255011        0.1517344812
H             1.0011719821        0.5107733490        0.9734954531
H             0.1283422708        0.3666507865        0.1071560949
H             0.8626775602        0.1489773570        0.0782984814
H             0.4186630411        0.1537530050        0.2873434409
H             0.5739580366        0.3632422448        0.3051863462
H             0.4352947030        0.5092633905        0.1803780087
N             0.6271736351        0.8425980540        0.6965623368
N             0.3610450871        0.6461713250        0.7154835814
N             0.1271736351        0.1574019460        0.1965623368
N             0.8610450871        0.3538286750        0.2154835814
Ni            0.4948415622        0.7538078814        0.8388790221
Ni            0.9948415622        0.2461921186        0.3388790221
O             0.2407301724        0.3489532782        0.3923381651
O             0.7554781278        0.1338048963        0.3697538174
O             0.9353403947        0.3514196223        0.4969232770
O             0.0678687636        0.1206720651        0.4738690004
O             0.7407301724        0.6510467218        0.8923381651
O             0.2554781278        0.8661951037        0.8697538174
O             0.4353403947        0.6485803777        0.9969232770
O             0.5678687636        0.8793279349        0.9738690004



     Writing output data file ./QE_relaxation_results/PBESOL_relax/NiPyC2_relax/NiPyC2_pbesol_relax.save/
     NEW-OLD atomic charge density approx. for the potential

     Check: negative core charge=   -0.000145

     total cpu time spent up to now is      319.4 secs

     Self-consistent Calculation

     iteration #  1     ecut=   100.00 Ry     beta= 0.70
     Davidson diagonalization with overlap
     ethr =  1.00E-06,  avg # of iterations = 14.0

     total cpu time spent up to now is      355.9 secs

     total energy              =    -811.06464292 Ry
     Harris-Foulkes estimate   =    -811.12618059 Ry
     estimated scf accuracy    <       0.18098925 Ry

     total magnetization       =     4.00 Bohr mag/cell
     absolute magnetization    =     4.08 Bohr mag/cell

     iteration #  2     ecut=   100.00 Ry     beta= 0.70
     Davidson diagonalization with overlap
     ethr =  9.05E-05,  avg # of iterations =  2.0

     total cpu time spent up to now is      364.0 secs

     total energy              =    -811.06558143 Ry
     Harris-Foulkes estimate   =    -811.07779787 Ry
     estimated scf accuracy    <       0.02797442 Ry

     total magnetization       =     4.00 Bohr mag/cell
     absolute magnetization    =     4.08 Bohr mag/cell

     iteration #  3     ecut=   100.00 Ry     beta= 0.70
     Davidson diagonalization with overlap
     ethr =  1.40E-05,  avg # of iterations =  2.0

     total cpu time spent up to now is      374.4 secs

     total energy              =    -811.06678021 Ry
     Harris-Foulkes estimate   =    -811.07113716 Ry
     estimated scf accuracy    <       0.01815752 Ry

     total magnetization       =     4.00 Bohr mag/cell
     absolute magnetization    =     4.09 Bohr mag/cell

     iteration #  4     ecut=   100.00 Ry     beta= 0.70
     Davidson diagonalization with overlap
     ethr =  9.08E-06,  avg # of iterations =  1.5

     total cpu time spent up to now is      382.4 secs

     total energy              =    -811.06802303 Ry
     Harris-Foulkes estimate   =    -811.07078677 Ry
     estimated scf accuracy    <       0.02456456 Ry

     total magnetization       =     4.00 Bohr mag/cell
     absolute magnetization    =     4.08 Bohr mag/cell

     iteration #  5     ecut=   100.00 Ry     beta= 0.70
     Davidson diagonalization with overlap
     ethr =  9.08E-06,  avg # of iterations =  1.0

     total cpu time spent up to now is      390.3 secs

     total energy              =    -811.06925288 Ry
     Harris-Foulkes estimate   =    -811.06937269 Ry
     estimated scf accuracy    <       0.00070089 Ry

     total magnetization       =     4.00 Bohr mag/cell
     absolute magnetization    =     4.09 Bohr mag/cell

     iteration #  6     ecut=   100.00 Ry     beta= 0.70
     Davidson diagonalization with overlap
     ethr =  3.50E-07,  avg # of iterations =  2.0

     total cpu time spent up to now is      398.6 secs

     total energy              =    -811.06924277 Ry
     Harris-Foulkes estimate   =    -811.06948326 Ry
     estimated scf accuracy    <       0.00384390 Ry

     total magnetization       =     4.00 Bohr mag/cell
     absolute magnetization    =     4.09 Bohr mag/cell

     iteration #  7     ecut=   100.00 Ry     beta= 0.70
     Davidson diagonalization with overlap
     ethr =  3.50E-07,  avg # of iterations =  1.0

     total cpu time spent up to now is      406.5 secs

     total energy              =    -811.06937590 Ry
     Harris-Foulkes estimate   =    -811.06937212 Ry
     estimated scf accuracy    <       0.00007396 Ry

     total magnetization       =     4.00 Bohr mag/cell
     absolute magnetization    =     4.08 Bohr mag/cell

     iteration #  8     ecut=   100.00 Ry     beta= 0.70
     Davidson diagonalization with overlap
     ethr =  3.70E-08,  avg # of iterations =  2.5

     total cpu time spent up to now is      414.6 secs

     total energy              =    -811.06938406 Ry
     Harris-Foulkes estimate   =    -811.06938008 Ry
     estimated scf accuracy    <       0.00004011 Ry

     total magnetization       =     4.00 Bohr mag/cell
     absolute magnetization    =     4.08 Bohr mag/cell

     iteration #  9     ecut=   100.00 Ry     beta= 0.70
     Davidson diagonalization with overlap
     ethr =  2.01E-08,  avg # of iterations =  2.5

     total cpu time spent up to now is      423.2 secs

     total energy              =    -811.06938722 Ry
     Harris-Foulkes estimate   =    -811.06938765 Ry
     estimated scf accuracy    <       0.00001982 Ry

     total magnetization       =     4.00 Bohr mag/cell
     absolute magnetization    =     4.08 Bohr mag/cell

     iteration # 10     ecut=   100.00 Ry     beta= 0.70
     Davidson diagonalization with overlap
     ethr =  9.91E-09,  avg # of iterations =  2.0

     total cpu time spent up to now is      431.2 secs

     total energy              =    -811.06938854 Ry
     Harris-Foulkes estimate   =    -811.06938828 Ry
     estimated scf accuracy    <       0.00000775 Ry

     total magnetization       =     4.00 Bohr mag/cell
     absolute magnetization    =     4.08 Bohr mag/cell

     iteration # 11     ecut=   100.00 Ry     beta= 0.70
     Davidson diagonalization with overlap
     ethr =  3.88E-09,  avg # of iterations =  2.5

     total cpu time spent up to now is      439.3 secs

     total energy              =    -811.06938902 Ry
     Harris-Foulkes estimate   =    -811.06938909 Ry
     estimated scf accuracy    <       0.00000369 Ry

     total magnetization       =     4.00 Bohr mag/cell
     absolute magnetization    =     4.08 Bohr mag/cell

     iteration # 12     ecut=   100.00 Ry     beta= 0.70
     Davidson diagonalization with overlap
     ethr =  1.85E-09,  avg # of iterations =  1.5

     total cpu time spent up to now is      447.2 secs

     total energy              =    -811.06938924 Ry
     Harris-Foulkes estimate   =    -811.06938921 Ry
     estimated scf accuracy    <       0.00000134 Ry

     total magnetization       =     4.00 Bohr mag/cell
     absolute magnetization    =     4.08 Bohr mag/cell

     iteration # 13     ecut=   100.00 Ry     beta= 0.70
     Davidson diagonalization with overlap
     ethr =  6.72E-10,  avg # of iterations =  2.5
 
     Magnetic moment per site:
     atom:    1    charge:    0.5902    magn:    0.0038    constr:    0.0000
     atom:    2    charge:    0.5887    magn:    0.0038    constr:    0.0000
     atom:    3    charge:    0.5900    magn:    0.0039    constr:    0.0000
     atom:    4    charge:    0.5898    magn:    0.0038    constr:    0.0000
     atom:    5    charge:    0.5837    magn:    0.0031    constr:    0.0000
     atom:    6    charge:    0.5840    magn:    0.0032    constr:    0.0000
     atom:    7    charge:    0.5856    magn:    0.0034    constr:    0.0000
     atom:    8    charge:    0.5842    magn:    0.0034    constr:    0.0000
     atom:    9    charge:    0.5885    magn:    0.0037    constr:    0.0000
     atom:   10    charge:    0.5890    magn:    0.0037    constr:    0.0000
     atom:   11    charge:    0.5547    magn:   -0.0016    constr:    0.0000
     atom:   12    charge:    0.5546    magn:   -0.0015    constr:    0.0000
     atom:   13    charge:    0.5902    magn:    0.0038    constr:    0.0000
     atom:   14    charge:    0.5887    magn:    0.0038    constr:    0.0000
     atom:   15    charge:    0.5900    magn:    0.0039    constr:    0.0000
     atom:   16    charge:    0.5898    magn:    0.0038    constr:    0.0000
     atom:   17    charge:    0.5837    magn:    0.0031    constr:    0.0000
     atom:   18    charge:    0.5840    magn:    0.0032    constr:    0.0000
     atom:   19    charge:    0.5856    magn:    0.0034    constr:    0.0000
     atom:   20    charge:    0.5842    magn:    0.0034    constr:    0.0000
     atom:   21    charge:    0.5885    magn:    0.0037    constr:    0.0000
     atom:   22    charge:    0.5890    magn:    0.0037    constr:    0.0000
     atom:   23    charge:    0.5547    magn:   -0.0016    constr:    0.0000
     atom:   24    charge:    0.5546    magn:   -0.0015    constr:    0.0000
     atom:   25    charge:    0.4119    magn:   -0.0003    constr:    0.0000
     atom:   26    charge:    0.4116    magn:   -0.0003    constr:    0.0000
     atom:   27    charge:    0.4118    magn:   -0.0003    constr:    0.0000
     atom:   28    charge:    0.4162    magn:   -0.0002    constr:    0.0000
     atom:   29    charge:    0.4175    magn:   -0.0003    constr:    0.0000
     atom:   30    charge:    0.4156    magn:    0.0002    constr:    0.0000
     atom:   31    charge:    0.4142    magn:    0.0001    constr:    0.0000
     atom:   32    charge:    0.4097    magn:   -0.0004    constr:    0.0000
     atom:   33    charge:    0.4119    magn:   -0.0003    constr:    0.0000
     atom:   34    charge:    0.4116    magn:   -0.0003    constr:    0.0000
     atom:   35    charge:    0.4118    magn:   -0.0003    constr:    0.0000
     atom:   36    charge:    0.4162    magn:   -0.0002    constr:    0.0000
     atom:   37    charge:    0.4175    magn:   -0.0003    constr:    0.0000
     atom:   38    charge:    0.4156    magn:    0.0002    constr:    0.0000
     atom:   39    charge:    0.4142    magn:    0.0001    constr:    0.0000
     atom:   40    charge:    0.4097    magn:   -0.0004    constr:    0.0000
     atom:   41    charge:    2.4397    magn:    0.0144    constr:    0.0000
     atom:   42    charge:    2.4356    magn:    0.0139    constr:    0.0000
     atom:   43    charge:    2.4397    magn:    0.0144    constr:    0.0000
     atom:   44    charge:    2.4356    magn:    0.0139    constr:    0.0000
     atom:   45    charge:    7.5142    magn:    1.2410    constr:    0.0000
     atom:   46    charge:    7.5143    magn:    1.2410    constr:    0.0000
     atom:   47    charge:    3.1134    magn:    0.0535    constr:    0.0000
     atom:   48    charge:    3.1118    magn:    0.0547    constr:    0.0000
     atom:   49    charge:    3.1128    magn:    0.0563    constr:    0.0000
     atom:   50    charge:    3.1125    magn:    0.0579    constr:    0.0000
     atom:   51    charge:    3.1134    magn:    0.0535    constr:    0.0000
     atom:   52    charge:    3.1118    magn:    0.0547    constr:    0.0000
     atom:   53    charge:    3.1128    magn:    0.0563    constr:    0.0000
     atom:   54    charge:    3.1126    magn:    0.0579    constr:    0.0000

     total cpu time spent up to now is      454.9 secs

     End of self-consistent calculation

 ------ SPIN UP ------------


          k = 0.0000 0.0000 0.0000 ( 45819 PWs)   bands (ev):

   -22.5380 -22.5345 -22.4396 -22.4369 -19.8763 -19.8614 -19.8109 -19.8098
   -19.8045 -19.8044 -19.7835 -19.7743 -15.9458 -15.8811 -15.8763 -15.8523
   -14.4378 -14.4044 -14.4018 -14.3643 -11.9979 -11.8801 -11.8651 -11.8511
   -11.1466 -11.1233 -11.0958 -11.0366  -9.6683  -9.4604  -9.4366  -9.3653
    -8.4318  -8.0030  -7.9605  -7.8982  -7.8037  -7.8016  -7.7253  -7.7161
    -7.0211  -6.9243  -6.8856  -6.8018  -6.7199  -6.6053  -6.4976  -6.4439
    -6.4009  -6.3720  -6.2317  -6.1838  -6.1620  -6.0615  -6.0204  -5.9762
    -5.9386  -5.8327  -5.6407  -5.5007  -5.4287  -5.3433  -5.2871  -5.2684
    -4.7481  -4.6499  -4.2492  -4.2405  -3.8085  -3.6814  -3.6355  -3.6105
    -3.5777  -3.5631  -3.5138  -3.4342  -3.4086  -3.3407  -3.3071  -3.2853
    -3.1754  -2.8641  -2.7842  -2.6685  -2.6382  -2.5986  -2.5951  -2.5223
    -2.4229  -2.4165  -2.3569  -2.3483  -2.2807  -2.2713  -2.2197  -2.1279
    -2.0822  -1.9924  -0.6686  -0.6298  -0.4427  -0.4255   1.9435   1.9579
     1.9888   2.0520   3.3893   3.4756   3.5200   3.6845   3.8528   4.2001
     4.4838   4.5564   4.7050   4.7422   4.9548   5.3105   5.6162   5.6854
     5.7673   5.8886

 ------ SPIN DOWN ----------


          k = 0.0000 0.0000 0.0000 ( 45819 PWs)   bands (ev):

   -22.4308 -22.4271 -22.3329 -22.3301 -19.8411 -19.8255 -19.7508 -19.7427
   -19.6751 -19.6745 -19.6654 -19.6641 -15.9062 -15.8421 -15.8371 -15.8122
   -14.4003 -14.3668 -14.3640 -14.3265 -11.9510 -11.8369 -11.8193 -11.8088
   -11.1153 -11.0922 -11.0653 -11.0067  -9.6356  -9.4293  -9.4068  -9.3334
    -8.3650  -7.9307  -7.9139  -7.8433  -7.7583  -7.7360  -7.6867  -7.6395
    -6.8952  -6.8311  -6.7468  -6.6929  -6.6259  -6.4837  -6.3945  -6.3349
    -6.3063  -6.2244  -6.1497  -6.1058  -6.0834  -6.0311  -5.9828  -5.9497
    -5.8830  -5.7554  -5.5917  -5.4738  -5.3811  -5.2673  -5.2655  -5.2515
    -4.6053  -4.0762  -3.7988  -3.7789  -3.5971  -3.5458  -3.5426  -3.5042
    -3.4652  -3.2799  -3.2374  -3.2103  -2.9105  -2.9005  -2.8087  -2.7976
    -2.7234  -2.6085  -2.5082  -2.4860  -2.4329  -2.4113  -2.2287  -2.1882
    -2.1593  -2.0717  -2.0413  -1.9033  -1.7387  -1.4787  -1.4678  -1.4534
    -1.4332  -1.3199   0.1693   0.1777   0.3389   0.3600   2.0463   2.0465
     2.1072   2.1424   3.4485   3.5197   3.5931   3.7598   3.9308   4.2430
     4.5269   4.6132   4.7741   4.7982   5.0059   5.3549   5.6616   5.7134
     5.8144   5.9489

     the spin up/dw Fermi energies are    -0.0379   -0.3429 ev

!    total energy              =    -811.06938917 Ry
     Harris-Foulkes estimate   =    -811.06938931 Ry
     estimated scf accuracy    <       0.00000049 Ry

     The total energy is the sum of the following terms:

     one-electron contribution =   -1221.44617243 Ry
     hartree contribution      =     680.83751995 Ry
     xc contribution           =    -247.81170099 Ry
     ewald contribution        =     -23.86450067 Ry
     Dispersion Correction     =      -0.20103992 Ry
     smearing contrib. (-TS)   =       1.41650489 Ry

     total magnetization       =     4.00 Bohr mag/cell
     absolute magnetization    =     4.08 Bohr mag/cell

     convergence has been achieved in  13 iterations

     Forces acting on atoms (cartesian axes, Ry/au):

     atom    1 type  1   force =    -0.01750368    0.06955947   -0.09817581
     atom    2 type  1   force =     0.01494134    0.03761139   -0.01983168
     atom    3 type  1   force =     0.10346397    0.07059795   -0.02504844
     atom    4 type  1   force =     0.02239633   -0.07426310   -0.09097179
     atom    5 type  1   force =     0.10057613    0.07746702    0.01377564
     atom    6 type  1   force =    -0.10723246   -0.07627336    0.01855819
     atom    7 type  1   force =     0.02293727   -0.07426938    0.09938628
     atom    8 type  1   force =    -0.02195783    0.08396858    0.09579735
     atom    9 type  1   force =    -0.09513416   -0.07873580   -0.01928748
     atom   10 type  1   force =    -0.01755663   -0.03753011   -0.02600241
     atom   11 type  1   force =    -0.00463095   -0.02768581    0.01228553
     atom   12 type  1   force =     0.00574806    0.02822117    0.01600219
     atom   13 type  1   force =    -0.01750368   -0.06955947   -0.09817581
     atom   14 type  1   force =     0.01494134   -0.03761139   -0.01983168
     atom   15 type  1   force =     0.10346397   -0.07059795   -0.02504844
     atom   16 type  1   force =     0.02239633    0.07426310   -0.09097179
     atom   17 type  1   force =     0.10057613   -0.07746702    0.01377564
     atom   18 type  1   force =    -0.10723246    0.07627336    0.01855819
     atom   19 type  1   force =     0.02293727    0.07426938    0.09938628
     atom   20 type  1   force =    -0.02195783   -0.08396858    0.09579735
     atom   21 type  1   force =    -0.09513416    0.07873580   -0.01928748
     atom   22 type  1   force =    -0.01755663    0.03753011   -0.02600241
     atom   23 type  1   force =    -0.00463095    0.02768581    0.01228553
     atom   24 type  1   force =     0.00574806   -0.02822117    0.01600219
     atom   25 type  2   force =    -0.02194509    0.00449468   -0.01586957
     atom   26 type  2   force =     0.02254610    0.00243658    0.01310151
     atom   27 type  2   force =     0.02271899   -0.00307176   -0.01414620
     atom   28 type  2   force =     0.02322878    0.01108843   -0.00187710
     atom   29 type  2   force =    -0.02740364   -0.00894172   -0.00015714
     atom   30 type  2   force =     0.01509742   -0.01018181    0.02448532
     atom   31 type  2   force =    -0.01433840    0.01270263    0.02171157
     atom   32 type  2   force =    -0.01895006    0.00046613    0.01116370
     atom   33 type  2   force =    -0.02194509   -0.00449468   -0.01586957
     atom   34 type  2   force =     0.02254610   -0.00243658    0.01310151
     atom   35 type  2   force =     0.02271899    0.00307176   -0.01414620
     atom   36 type  2   force =     0.02322878   -0.01108843   -0.00187710
     atom   37 type  2   force =    -0.02740364    0.00894172   -0.00015714
     atom   38 type  2   force =     0.01509742    0.01018181    0.02448532
     atom   39 type  2   force =    -0.01433840   -0.01270263    0.02171157
     atom   40 type  2   force =    -0.01895006   -0.00046613    0.01116370
     atom   41 type  3   force =    -0.01975765   -0.02348987    0.02780998
     atom   42 type  3   force =     0.00943879    0.01969037    0.02351239
     atom   43 type  3   force =    -0.01975765    0.02348987    0.02780998
     atom   44 type  3   force =     0.00943879   -0.01969037    0.02351239
     atom   45 type  4   force =     0.00040752   -0.00786398   -0.01722451
     atom   46 type  4   force =     0.00040752    0.00786398   -0.01722451
     atom   47 type  5   force =    -0.02832783   -0.02176063   -0.00321466
     atom   48 type  5   force =     0.02995301    0.02281327    0.00051205
     atom   49 type  5   force =     0.01619484   -0.02062301   -0.02442767
     atom   50 type  5   force =    -0.01491018    0.02723242   -0.02186723
     atom   51 type  5   force =    -0.02832783    0.02176063   -0.00321466
     atom   52 type  5   force =     0.02995301   -0.02281327    0.00051205
     atom   53 type  5   force =     0.01619484    0.02062301   -0.02442767
     atom   54 type  5   force =    -0.01491018   -0.02723242   -0.02186723

     Total force =     0.544995     Total SCF correction =     0.001101

     number of scf cycles    =   3
     number of bfgs steps    =   1

     energy   old            =    -810.6850845324 Ry
     energy   new            =    -811.0693891738 Ry

     CASE: energy  _new < energy  _old

     new trust radius        =       0.0866246969 bohr
     new conv_thr            =       0.0000010000 Ry


ATOMIC_POSITIONS (crystal)
C             0.5943217222        0.9601326423        0.5140319878
C             0.7949934641        0.9996918239        0.5331517763
C             0.9131766875        0.9560808607        0.6318437011
C             0.4018333082        0.5184240712        0.5451156203
C             0.4766505668        0.6038018046        0.6232621816
C             0.5145161450        0.8801197884        0.5972557463
C             0.8237415513        0.8770401920        0.7130155008
C             0.1705352992        0.6056990931        0.7339789891
C             0.0875256281        0.5190121338        0.6593240758
C             0.2047892267        0.4751081753        0.5634771571
C             0.8752188095        0.0863235601        0.4565196753
C             0.1254588966        0.3892902897        0.4834250150
C             0.0943217222        0.0398673577        0.0140319878
C             0.2949934641        0.0003081761        0.0331517763
C             0.4131766875        0.0439191393        0.1318437011
C             0.9018333082        0.4815759288        0.0451156203
C             0.9766505668        0.3961981954        0.1232621816
C             0.0145161450        0.1198802116        0.0972557463
C             0.3237415513        0.1229598080        0.2130155008
C             0.6705352992        0.3943009069        0.2339789891
C             0.5875256281        0.4809878662        0.1593240758
C             0.7047892267        0.5248918247        0.0634771571
C             0.3752188095        0.9136764399        0.9565196753
C             0.6254588966        0.6107097103        0.9834250150
H             0.4902810695        0.9886849014        0.4372718709
H             0.0747595676        0.9798891479        0.6527727015
H             0.5050128121        0.4884821127        0.4713203065
H             0.6333665551        0.6344929633        0.6068061979
H             0.3572716515        0.8499850798        0.5780069549
H             0.9217429970        0.8451359810        0.7901480135
H             0.0710197499        0.6380006875        0.8077726260
H             0.9305856878        0.4901285960        0.6813428799
H            -0.0097189305        0.0113150986        0.9372718709
H             0.5747595676        0.0201108521        0.1527727015
H             1.0050128121        0.5115178873        0.9713203065
H             0.1333665551        0.3655070367        0.1068061979
H             0.8572716515        0.1500149202        0.0780069549
H             0.4217429970        0.1548640190        0.2901480135
H             0.5710197499        0.3619993125        0.3077726260
H             0.4305856878        0.5098714040        0.1813428799
N             0.6254748242        0.8416079409        0.6979651151
N             0.3617754541        0.6469368029        0.7166969817
N             0.1254748242        0.1583920591        0.1979651151
N             0.8617754541        0.3530631971        0.2166969817
Ni            0.4948582608        0.7534583066        0.8378943493
Ni            0.9948582608        0.2465416934        0.3378943493
O             0.2383899118        0.3478987699        0.3919915681
O             0.7579391827        0.1349196107        0.3696190030
O             0.9359656951        0.3503569181        0.4956703719
O             0.0671952756        0.1220051045        0.4727496334
O             0.7383899118        0.6521012301        0.8919915681
O             0.2579391827        0.8650803893        0.8696190030
O             0.4359656951        0.6496430819        0.9956703719
O             0.5671952756        0.8779948955        0.9727496334



     Writing output data file ./QE_relaxation_results/PBESOL_relax/NiPyC2_relax/NiPyC2_pbesol_relax.save/
     NEW-OLD atomic charge density approx. for the potential

     Check: negative core charge=   -0.000145

     total cpu time spent up to now is      462.3 secs

     Self-consistent Calculation

     iteration #  1     ecut=   100.00 Ry     beta= 0.70
     Davidson diagonalization with overlap
     ethr =  1.00E-06,  avg # of iterations =  8.0

     total cpu time spent up to now is      494.7 secs

     total energy              =    -811.14447642 Ry
     Harris-Foulkes estimate   =    -811.20531294 Ry
     estimated scf accuracy    <       0.19934348 Ry

     total magnetization       =     4.00 Bohr mag/cell
     absolute magnetization    =     4.09 Bohr mag/cell

[...]
     ethr =  6.78E-09,  avg # of iterations =  1.0

     total cpu time spent up to now is     5448.7 secs

     total energy              =    -811.25502962 Ry
     Harris-Foulkes estimate   =    -811.25503050 Ry
     estimated scf accuracy    <       0.00000855 Ry

     total magnetization       =     4.00 Bohr mag/cell
     absolute magnetization    =     4.13 Bohr mag/cell

     iteration #  6     ecut=   100.00 Ry     beta= 0.70
     Davidson diagonalization with overlap
     ethr =  4.27E-09,  avg # of iterations =  1.0

     total cpu time spent up to now is     5457.4 secs

     total energy              =    -811.25503007 Ry
     Harris-Foulkes estimate   =    -811.25503009 Ry
     estimated scf accuracy    <       0.00000023 Ry

     total magnetization       =     4.00 Bohr mag/cell
     absolute magnetization    =     4.13 Bohr mag/cell

     iteration #  7     ecut=   100.00 Ry     beta= 0.70
     Davidson diagonalization with overlap
     ethr =  1.13E-10,  avg # of iterations =  3.5

     total cpu time spent up to now is     5468.7 secs

     total energy              =    -811.25503010 Ry
     Harris-Foulkes estimate   =    -811.25503012 Ry
     estimated scf accuracy    <       0.00000004 Ry

     total magnetization       =     4.00 Bohr mag/cell
     absolute magnetization    =     4.13 Bohr mag/cell

     iteration #  8     ecut=   100.00 Ry     beta= 0.70
     Davidson diagonalization with overlap
     ethr =  2.06E-11,  avg # of iterations =  2.0

     total cpu time spent up to now is     5477.6 secs

     total energy              =    -811.25503010 Ry
     Harris-Foulkes estimate   =    -811.25503011 Ry
     estimated scf accuracy    <       0.00000002 Ry

     total magnetization       =     4.00 Bohr mag/cell
     absolute magnetization    =     4.13 Bohr mag/cell

     iteration #  9     ecut=   100.00 Ry     beta= 0.70
     Davidson diagonalization with overlap
     ethr =  1.13E-11,  avg # of iterations =  2.5
 
     Magnetic moment per site:
     atom:    1    charge:    0.5255    magn:    0.0050    constr:    0.0000
     atom:    2    charge:    0.5001    magn:    0.0038    constr:    0.0000
     atom:    3    charge:    0.4746    magn:    0.0054    constr:    0.0000
     atom:    4    charge:    0.5350    magn:    0.0045    constr:    0.0000
     atom:    5    charge:    0.5331    magn:    0.0037    constr:    0.0000
     atom:    6    charge:    0.5347    magn:    0.0043    constr:    0.0000
     atom:    7    charge:    0.4994    magn:    0.0046    constr:    0.0000
     atom:    8    charge:    0.5590    magn:    0.0038    constr:    0.0000
     atom:    9    charge:    0.5567    magn:    0.0044    constr:    0.0000
     atom:   10    charge:    0.5483    magn:    0.0034    constr:    0.0000
     atom:   11    charge:    0.5048    magn:   -0.0015    constr:    0.0000
     atom:   12    charge:    0.5328    magn:   -0.0016    constr:    0.0000
     atom:   13    charge:    0.5255    magn:    0.0050    constr:    0.0000
     atom:   14    charge:    0.5001    magn:    0.0038    constr:    0.0000
     atom:   15    charge:    0.4746    magn:    0.0054    constr:    0.0000
     atom:   16    charge:    0.5350    magn:    0.0045    constr:    0.0000
     atom:   17    charge:    0.5331    magn:    0.0037    constr:    0.0000
     atom:   18    charge:    0.5347    magn:    0.0043    constr:    0.0000
     atom:   19    charge:    0.4994    magn:    0.0046    constr:    0.0000
     atom:   20    charge:    0.5590    magn:    0.0038    constr:    0.0000
     atom:   21    charge:    0.5567    magn:    0.0044    constr:    0.0000
     atom:   22    charge:    0.5483    magn:    0.0034    constr:    0.0000
     atom:   23    charge:    0.5048    magn:   -0.0015    constr:    0.0000
     atom:   24    charge:    0.5328    magn:   -0.0016    constr:    0.0000
     atom:   25    charge:    0.3980    magn:   -0.0007    constr:    0.0000
     atom:   26    charge:    0.3036    magn:   -0.0004    constr:    0.0000
     atom:   27    charge:    0.4180    magn:   -0.0006    constr:    0.0000
     atom:   28    charge:    0.4407    magn:   -0.0006    constr:    0.0000
     atom:   29    charge:    0.4067    magn:   -0.0007    constr:    0.0000
     atom:   30    charge:    0.3592    magn:   -0.0001    constr:    0.0000
     atom:   31    charge:    0.3763    magn:   -0.0005    constr:    0.0000
     atom:   32    charge:    0.3808    magn:   -0.0010    constr:    0.0000
     atom:   33    charge:    0.3980    magn:   -0.0007    constr:    0.0000
     atom:   34    charge:    0.3036    magn:   -0.0004    constr:    0.0000
     atom:   35    charge:    0.4180    magn:   -0.0006    constr:    0.0000
     atom:   36    charge:    0.4407    magn:   -0.0006    constr:    0.0000
     atom:   37    charge:    0.4067    magn:   -0.0007    constr:    0.0000
     atom:   38    charge:    0.3592    magn:   -0.0001    constr:    0.0000
     atom:   39    charge:    0.3763    magn:   -0.0005    constr:    0.0000
     atom:   40    charge:    0.3808    magn:   -0.0010    constr:    0.0000
     atom:   41    charge:    2.2889    magn:    0.0153    constr:    0.0000
     atom:   42    charge:    2.3433    magn:    0.0150    constr:    0.0000
     atom:   43    charge:    2.2889    magn:    0.0153    constr:    0.0000
     atom:   44    charge:    2.3433    magn:    0.0150    constr:    0.0000
     atom:   45    charge:    7.5173    magn:    1.1474    constr:    0.0000
     atom:   46    charge:    7.5173    magn:    1.1474    constr:    0.0000
     atom:   47    charge:    3.0543    magn:    0.0609    constr:    0.0000
     atom:   48    charge:    2.8636    magn:    0.0565    constr:    0.0000
     atom:   49    charge:    2.8605    magn:    0.0591    constr:    0.0000
     atom:   50    charge:    2.7717    magn:    0.0573    constr:    0.0000
     atom:   51    charge:    3.0543    magn:    0.0609    constr:    0.0000
     atom:   52    charge:    2.8636    magn:    0.0565    constr:    0.0000
     atom:   53    charge:    2.8605    magn:    0.0591    constr:    0.0000
     atom:   54    charge:    2.7717    magn:    0.0573    constr:    0.0000

     total cpu time spent up to now is     5485.7 secs

     End of self-consistent calculation

 ------ SPIN UP ------------


          k = 0.0000 0.0000 0.0000 ( 45819 PWs)   bands (ev):

   -22.5940 -22.5916 -22.4615 -22.4597 -19.5579 -19.5571 -19.5405 -19.5401
   -19.2653 -19.2502 -19.1602 -19.1532 -15.5139 -15.4408 -15.4260 -15.4047
   -14.1862 -14.1482 -14.1351 -14.0870 -11.7837 -11.6461 -11.6234 -11.6032
   -11.0534 -11.0272 -11.0097 -10.9373  -9.3918  -9.1622  -9.1457  -9.0794
    -8.3215  -7.8565  -7.7389  -7.7039  -7.5477  -7.5117  -7.4951  -7.4117
    -6.9266  -6.7399  -6.7361  -6.6831  -6.6291  -6.6066  -6.4449  -6.3787
    -6.3541  -6.3323  -6.2671  -6.2360  -6.2210  -6.1635  -6.1425  -5.9342
    -5.6708  -5.5945  -5.5477  -5.4908  -5.2749  -5.2351  -5.2294  -5.0130
    -4.7355  -4.5938  -4.2511  -4.0907  -4.0103  -3.9298  -3.9184  -3.8074
    -3.6535  -3.5784  -3.5731  -3.5499  -3.2510  -3.2478  -3.2304  -3.2144
    -2.9625  -2.7291  -2.6072  -2.5248  -2.5133  -2.5076  -2.4977  -2.3703
    -2.2212  -2.2183  -2.2066  -2.1362  -2.1148  -2.0672  -2.0149  -1.9608
    -1.9014  -1.7952  -0.3146  -0.2860  -0.0329  -0.0204   1.9033   1.9123
     1.9453   2.0199   2.9691   3.1116   3.2472   3.4246   3.5306   4.2390
     4.3975   4.4555   4.6150   4.6487   4.9879   5.3398   5.6410   5.7430
     5.9039   6.0657

 ------ SPIN DOWN ----------


          k = 0.0000 0.0000 0.0000 ( 45819 PWs)   bands (ev):

   -22.4719 -22.4692 -22.3401 -22.3382 -19.4002 -19.3992 -19.3833 -19.3830
   -19.2258 -19.2105 -19.1215 -19.1140 -15.4704 -15.3982 -15.3829 -15.3608
   -14.1429 -14.1048 -14.0915 -14.0432 -11.7328 -11.5994 -11.5733 -11.5574
   -11.0184 -10.9926 -10.9761 -10.9042  -9.3562  -9.1275  -9.1150  -9.0474
    -8.2466  -7.7701  -7.6781  -7.6223  -7.4854  -7.4503  -7.4093  -7.3637
    -6.7927  -6.6397  -6.5839  -6.5415  -6.5158  -6.4913  -6.3539  -6.3248
    -6.2849  -6.2772  -6.1607  -6.1561  -6.1375  -6.0674  -6.0383  -5.8388
    -5.5834  -5.5701  -5.5274  -5.4131  -5.2461  -5.2079  -5.1368  -4.9201
    -4.5835  -4.0602  -4.0300  -3.9898  -3.9041  -3.8767  -3.7285  -3.5747
    -3.4287  -3.2974  -3.1548  -3.1200  -2.8677  -2.8240  -2.7256  -2.7210
    -2.6303  -2.4152  -2.3494  -2.3306  -2.3256  -2.2747  -2.0155  -1.9938
    -1.9046  -1.8812  -1.8564  -1.7105  -1.6867  -1.3594  -1.3482  -1.3301
    -1.3092  -1.1832   0.4763   0.4784   0.6791   0.7191   2.0083   2.0339
     2.0849   2.1278   3.0642   3.2090   3.3454   3.5267   3.5696   4.2965
     4.4695   4.5170   4.7037   4.7203   5.0391   5.3887   5.6783   5.7797
     5.9412   6.1261

     the spin up/dw Fermi energies are     0.1680   -0.1968 ev

!    total energy              =    -811.25503011 Ry
     Harris-Foulkes estimate   =    -811.25503011 Ry
     estimated scf accuracy    <          7.4E-09 Ry

     The total energy is the sum of the following terms:

     one-electron contribution =   -1219.90849550 Ry
     hartree contribution      =     680.26716086 Ry
     xc contribution           =    -246.43350586 Ry
     ewald contribution        =     -26.35017005 Ry
     Dispersion Correction     =      -0.20854798 Ry
     smearing contrib. (-TS)   =       1.37852841 Ry

     total magnetization       =     4.00 Bohr mag/cell
     absolute magnetization    =     4.13 Bohr mag/cell

     convergence has been achieved in   9 iterations

     Forces acting on atoms (cartesian axes, Ry/au):

     atom    1 type  1   force =    -0.00000780   -0.00032282   -0.00057158
     atom    2 type  1   force =     0.00062227   -0.00042466   -0.00031789
     atom    3 type  1   force =     0.00098939   -0.00043907   -0.00033012
     atom    4 type  1   force =     0.00034294   -0.00049556   -0.00036143
     atom    5 type  1   force =     0.00063550   -0.00004892    0.00002100
     atom    6 type  1   force =    -0.00065320    0.00041246   -0.00002036
     atom    7 type  1   force =     0.00037353    0.00007745   -0.00007340
     atom    8 type  1   force =    -0.00008477    0.00023422    0.00002723
     atom    9 type  1   force =    -0.00010538    0.00008384   -0.00063322
     atom   10 type  1   force =    -0.00001941   -0.00028400   -0.00024432
     atom   11 type  1   force =    -0.00038244    0.00002432    0.00023289
     atom   12 type  1   force =    -0.00070113   -0.00032506    0.00009637
     atom   13 type  1   force =    -0.00000780    0.00032282   -0.00057158
     atom   14 type  1   force =     0.00062227    0.00042466   -0.00031789
     atom   15 type  1   force =     0.00098939    0.00043907   -0.00033012
     atom   16 type  1   force =     0.00034294    0.00049556   -0.00036143
     atom   17 type  1   force =     0.00063550    0.00004892    0.00002100
     atom   18 type  1   force =    -0.00065320   -0.00041246   -0.00002036
     atom   19 type  1   force =     0.00037353   -0.00007745   -0.00007340
     atom   20 type  1   force =    -0.00008477   -0.00023422    0.00002723
     atom   21 type  1   force =    -0.00010538   -0.00008384   -0.00063322
     atom   22 type  1   force =    -0.00001941    0.00028400   -0.00024432
     atom   23 type  1   force =    -0.00038244   -0.00002432    0.00023289
     atom   24 type  1   force =    -0.00070113    0.00032506    0.00009637
     atom   25 type  2   force =     0.00011588    0.00004454    0.00094666
     atom   26 type  2   force =    -0.00030065   -0.00026700    0.00083515
     atom   27 type  2   force =     0.00040078    0.00053140   -0.00035023
     atom   28 type  2   force =     0.00031992    0.00042856    0.00021832
     atom   29 type  2   force =     0.00003665    0.00018778   -0.00023369
     atom   30 type  2   force =    -0.00048614   -0.00039967   -0.00017241
     atom   31 type  2   force =    -0.00046827   -0.00034856    0.00002206
     atom   32 type  2   force =     0.00035848    0.00004341   -0.00036320
     atom   33 type  2   force =     0.00011588   -0.00004454    0.00094666
     atom   34 type  2   force =    -0.00030065    0.00026700    0.00083515
     atom   35 type  2   force =     0.00040078   -0.00053140   -0.00035023
     atom   36 type  2   force =     0.00031992   -0.00042856    0.00021832
     atom   37 type  2   force =     0.00003665   -0.00018778   -0.00023369
     atom   38 type  2   force =    -0.00048614    0.00039967   -0.00017241
     atom   39 type  2   force =    -0.00046827    0.00034856    0.00002206
     atom   40 type  2   force =     0.00035848   -0.00004341   -0.00036320
     atom   41 type  3   force =     0.00007114    0.00064125    0.00007085
     atom   42 type  3   force =    -0.00019946   -0.00051645   -0.00049274
     atom   43 type  3   force =     0.00007114   -0.00064125    0.00007085
     atom   44 type  3   force =    -0.00019946    0.00051645   -0.00049274
     atom   45 type  4   force =     0.00096219    0.00012849   -0.00000523
     atom   46 type  4   force =     0.00096219   -0.00012849   -0.00000523
     atom   47 type  5   force =    -0.00009613    0.00037008    0.00037576
     atom   48 type  5   force =    -0.00082724   -0.00061711    0.00056413
     atom   49 type  5   force =    -0.00089983   -0.00017116    0.00006659
     atom   50 type  5   force =     0.00000316   -0.00001904    0.00069278
     atom   51 type  5   force =    -0.00009613   -0.00037008    0.00037576
     atom   52 type  5   force =    -0.00082724    0.00061711    0.00056413
     atom   53 type  5   force =    -0.00089983    0.00017116    0.00006659
     atom   54 type  5   force =     0.00000316    0.00001904    0.00069278

     Total force =     0.005321     Total SCF correction =     0.000180

     bfgs converged in  49 scf cycles and  47 bfgs steps
     (criteria: energy <  1.0E-04 Ry, force <  1.0E-03 Ry/Bohr)

     End of BFGS Geometry Optimization

     Final energy   =    -811.2550301118 Ry
Begin final coordinates

ATOMIC_POSITIONS (crystal)
C             0.5762097970        0.9714452045        0.5226273320
C             0.7802379326        1.0141921802        0.5471009606
C             0.9034655027        0.9732594836        0.6511502213
C             0.4154659706        0.5283226483        0.5274489863
C             0.4910758091        0.6119618579        0.6068073330
C             0.5008218198        0.8898492393        0.6035006955
C             0.8178750949        0.8915439560        0.7279149054
C             0.1801516914        0.6085370823        0.7287831851
C             0.0943627074        0.5246581431        0.6532255800
C             0.2147585454        0.4837422820        0.5510724671
C             0.8656802761        0.1010039880        0.4658277777
C             0.1326983322        0.3947714381        0.4698870671
C             0.0762097970        0.0285547955        0.0226273320
C             0.2802379326       -0.0141921802        0.0471009606
C             0.4034655027        0.0267405164        0.1511502213
C             0.9154659706        0.4716773517        0.0274489863
C             0.9910758091        0.3880381421        0.1068073330
C             0.0008218198        0.1101507607        0.1035006955
C             0.3178750949        0.1084560440        0.2279149054
C             0.6801516914        0.3914629177        0.2287831851
C             0.5943627074        0.4753418569        0.1532255800
C             0.7147585454        0.5162577180        0.0510724671
C             0.3656802761        0.8989960120        0.9658277777
C             0.6326983322        0.6052285619        0.9698870671
H             0.4732685496        1.0004431285        0.4437590164
H             0.0631591186        1.0027482387        0.6742205893
H             0.5159182185        0.4983713066        0.4507521078
H             0.6466769589        0.6482856685        0.5925669940
H             0.3427320188        0.8550408717        0.5890171700
H             0.9099693345        0.8575813317        0.8088314620
H             0.0916255262        0.6429682369        0.8084130314
H             0.9376577598        0.4934985462        0.6764365657
H            -0.0267314504       -0.0004431285        0.9437590164
H             0.5631591186       -0.0027482387        0.1742205893
H             1.0159182185        0.5016286934        0.9507521078
H             0.1466769589        0.3517143315        0.0925669940
H             0.8427320188        0.1449591283        0.0890171700
H             0.4099693345        0.1424186683        0.3088314620
H             0.5916255262        0.3570317631        0.3084130314
H             0.4376577598        0.5065014538        0.1764365657
N             0.6199363040        0.8520585477        0.7047578539
N             0.3751901383        0.6498634469        0.7061709337
N             0.1199363040        0.1479414523        0.2047578539
N             0.8751901383        0.3501365531        0.2061709337
Ni            0.4997497134        0.7520158229        0.8350511879
Ni            0.9997497134        0.2479841771        0.3350511879
O             0.2439130270        0.3488091049        0.3815369187
O             0.7547763607        0.1481802485        0.3753905229
O             0.9440630387        0.3564493324        0.4807934274
O             0.0569604534        0.1366353649        0.4793857074
O             0.7439130270        0.6511908951        0.8815369187
O             0.2547763607        0.8518197515        0.8753905229
O             0.4440630387        0.6435506676        0.9807934274
O             0.5569604534        0.8633646351        0.9793857074
End final coordinates



     Writing output data file ./QE_relaxation_results/PBESOL_relax/NiPyC2_relax/NiPyC2_pbesol_relax.save/
 
     init_run     :      5.74s CPU      7.37s WALL (       1 calls)
     electrons    :   3719.92s CPU   5127.78s WALL (      49 calls)
     update_pot   :    153.91s CPU    165.91s WALL (      48 calls)
     forces       :    153.90s CPU    175.77s WALL (      49 calls)

     Called by init_run:
     wfcinit      :      2.44s CPU      3.79s WALL (       1 calls)
     potinit      :      1.54s CPU      1.73s WALL (       1 calls)
     hinit0       :      1.35s CPU      1.41s WALL (       1 calls)

     Called by electrons:
     c_bands      :   3192.76s CPU   4268.07s WALL (     508 calls)
     sum_band     :    217.75s CPU    368.47s WALL (     508 calls)
     v_of_rho     :    166.77s CPU    235.96s WALL (     548 calls)
     mix_rho      :    142.65s CPU    239.80s WALL (     508 calls)

     Called by c_bands:
     init_us_2    :      5.33s CPU      6.05s WALL (    1017 calls)
     regterg      :   3174.91s CPU   4192.24s WALL (     508 calls)

     Called by sum_band:

     Called by *egterg:
     h_psi        :   1300.33s CPU   1872.51s WALL (    1760 calls)
     g_psi        :      1.37s CPU      1.41s WALL (    1251 calls)
     rdiaghg      :    144.57s CPU    146.48s WALL (    1702 calls)

     Called by h_psi:
     h_psi:calbec :    261.83s CPU    350.72s WALL (    1760 calls)
     vloc_psi     :    779.44s CPU   1261.69s WALL (    1760 calls)
     add_vuspsi   :    253.45s CPU    254.35s WALL (    1760 calls)

     General routines
     calbec       :    307.84s CPU    408.89s WALL (    1956 calls)
     fft          :    103.10s CPU    186.17s WALL (    8776 calls)
     ffts         :     99.17s CPU    173.33s WALL (    8668 calls)
     fftw         :    819.80s CPU   1421.19s WALL (  177410 calls)
 
     Parallel routines
     fft_scatt_xy :    172.69s CPU    177.88s WALL (  194854 calls)
     fft_scatt_yz :    302.54s CPU   1033.84s WALL (  194854 calls)
 
     PWSCF        :      1h 7m CPU      1h31m WALL

 
   This run was terminated on:  11:53: 5   9Jun2020            

=------------------------------------------------------------------------------=
   JOB DONE.
=------------------------------------------------------------------------------=
QE finished Tue Jun 9 11:53:05 PDT 2020
