/apps/openmpi/3.1_intel-19/bin/mpiexec
starting QE Fri May 29 18:51:25 PDT 2020

     Program PWSCF v.6.5 starts on 29May2020 at 18:51:28 

     This program is part of the open-source Quantum ESPRESSO suite
     for quantum simulation of materials; please cite
         "P. Giannozzi et al., J. Phys.:Condens. Matter 21 395502 (2009);
         "P. Giannozzi et al., J. Phys.:Condens. Matter 29 465901 (2017);
          URL http://www.quantum-espresso.org", 
     in publications or presentations arising from this work. More details at
     http://www.quantum-espresso.org/quote

     Parallel version (MPI), running on    16 processors

     MPI processes distributed on     1 nodes
     K-points division:     npool     =       2
     R & G space division:  proc/nbgrp/npool/nimage =       8
     Reading input from QE_input_scripts/pw.NiPyC2_P1.relax.in
Warning: card &CELL ignored
Warning: card CELL_DYNAMICS = 'BFGS' ignored
Warning: card CELL_DOFREE = 'XYZ' ignored
Warning: card / ignored

     Current dimensions of program PWSCF are:
     Max number of different atomic species (ntypx) = 10
     Max number of k-points (npk) =  40000
     Max angular momentum in pseudopotentials (lmaxx) =  3

     -------------------------------------------------
     Parameters for Dispersion (Grimme-D2) Correction:
     -------------------------------------------------
       atom      VdW radius       C_6     

        Ni1        2.952        374.666
        Ni2        2.952        374.666
        O          2.536         24.284
        N          2.640         42.670
        C          2.744         60.710
        H          1.892          4.857

     gamma-point specific algorithms are used

     Subspace diagonalization in iterative solution of the eigenvalue problem:
     a serial algorithm will be used

 
     Parallelization info
     --------------------
     sticks:   dense  smooth     PW     G-vecs:    dense   smooth      PW
     Min        1113    1113    276                91690    91690   11450
     Max        1116    1116    278                91692    91692   11458
     Sum        8917    8917   2219               733525   733525   91637
 


     bravais-lattice index     =            0
     lattice parameter (alat)  =      11.8161  a.u.
     unit-cell volume          =    5429.3114 (a.u.)^3
     number of atoms/cell      =           54
     number of atomic types    =            6
     number of electrons       =       200.00 (up: 102.00, down:  98.00)
     number of Kohn-Sham states=          122
     kinetic-energy cutoff     =     100.0000  Ry
     charge density cutoff     =     400.0000  Ry
     convergence threshold     =      1.0E-06
     mixing beta               =       0.7000
     number of iterations used =            8  local-TF  mixing
     Exchange-correlation= PBESOL
                           (   1   4  10   8   0   0   0)
     nstep                     =          200


     celldm(1)=  11.816080  celldm(2)=   0.000000  celldm(3)=   0.000000
     celldm(4)=   0.000000  celldm(5)=   0.000000  celldm(6)=   0.000000

     crystal axes: (cart. coord. in units of alat)
               a(1) = (   1.000000   0.000000   0.000000 )  
               a(2) = (   0.000000   2.002847   0.000000 )  
               a(3) = (  -0.036399   0.000000   1.643149 )  

     reciprocal axes: (cart. coord. in units 2 pi/alat)
               b(1) = (  1.000000  0.000000  0.022152 )  
               b(2) = (  0.000000  0.499289  0.000000 )  
               b(3) = (  0.000000  0.000000  0.608588 )  


     PseudoPot. # 1 for Ni read from file:
     ./pseudo/Ni.pbesol-n-nc.UPF
     MD5 check sum: 623411631e0c2eb7c0b2b9815547d2d9
     Pseudo is Norm-conserving + core correction, Zval = 10.0
     Generated using "atomic" code by A. Dal Corso v.6.5
     Using radial grid of 1195 points,  2 beta functions with: 
                l(1) =   1
                l(2) =   2

     PseudoPot. # 2 for Ni read from file:
     ./pseudo/Ni.pbesol-n-nc.UPF
     MD5 check sum: 623411631e0c2eb7c0b2b9815547d2d9
     Pseudo is Norm-conserving + core correction, Zval = 10.0
     Generated using "atomic" code by A. Dal Corso v.6.5
     Using radial grid of 1195 points,  2 beta functions with: 
                l(1) =   1
                l(2) =   2

     PseudoPot. # 3 for O  read from file:
     ./pseudo/O.pbesol-nc.UPF
     MD5 check sum: 73d10e7e91dbfcbe8a7e362101007f84
     Pseudo is Norm-conserving, Zval =  6.0
     Generated using "atomic" code by A. Dal Corso v.6.5
     Using radial grid of 1095 points,  1 beta functions with: 
                l(1) =   1

     PseudoPot. # 4 for N  read from file:
     ./pseudo/N.pbesol-nc.UPF
     MD5 check sum: e18cc5e4b8a5600c1a19b30c2cab1ca0
     Pseudo is Norm-conserving, Zval =  5.0
     Generated using "atomic" code by A. Dal Corso v.6.5
     Using radial grid of 1085 points,  1 beta functions with: 
                l(1) =   1

     PseudoPot. # 5 for C  read from file:
     ./pseudo/C.pbesol-nc.UPF
     MD5 check sum: ce26087537ded160c8d400e183a8bf42
     Pseudo is Norm-conserving, Zval =  4.0
     Generated using "atomic" code by A. Dal Corso v.6.5
     Using radial grid of 1073 points,  1 beta functions with: 
                l(1) =   1

     PseudoPot. # 6 for H  read from file:
     ./pseudo/H.pbesol-n-nc.UPF
     MD5 check sum: 7995ef24074557c85b430109caaacc09
     Pseudo is Norm-conserving, Zval =  1.0
     Generated using "atomic" code by A. Dal Corso v.6.5
     Using radial grid of  929 points,  0 beta functions with: 

     atomic species   valence    mass     pseudopotential
        Ni1           10.00    58.69340     Ni( 1.00)
        Ni2           10.00    58.69340     Ni( 1.00)
        O              6.00    15.99940     O ( 1.00)
        N              5.00    14.00670     N ( 1.00)
        C              4.00    12.01070     C ( 1.00)
        H              1.00     1.00794     H ( 1.00)

     Starting magnetic structure 
     atomic species   magnetization
        Ni1          0.250
        Ni2          0.250
        O            0.000
        N            0.000
        C            0.000
        H            0.000

     No symmetry found



   Cartesian axes

     site n.     atom                  positions (alat units)
         1           Ni2 tau(   1) = (   0.4642458   1.5100663   1.3793082  )
         2           O   tau(   2) = (   0.2269989   0.7002353   0.6455930  )
         3           O   tau(   3) = (   0.7414252   0.2665388   0.6082936  )
         4           O   tau(   4) = (   0.9187989   0.7054627   0.8171378  )
         5           O   tau(   5) = (   0.0492397   0.2399410   0.7791810  )
         6           N   tau(   6) = (   0.6025592   1.6881995   1.1439600  )
         7           N   tau(   7) = (   0.3350713   1.2940393   1.1750155  )
         8           C   tau(   8) = (   0.5691129   1.9213309   0.8435924  )
         9           H   tau(   9) = (   0.4840353   1.9752074   0.7297223  )
        10           C   tau(  10) = (   0.7737740   1.9988410   0.8769484  )
        11           C   tau(  11) = (   0.8939722   1.9119175   1.0440566  )
        12           H   tau(  12) = (   0.0365226   1.9583835   1.0688681  )
        13           C   tau(  13) = (   0.3878954   1.0396777   0.8940371  )
        14           H   tau(  14) = (   0.4777087   0.9833977   0.7850964  )
        15           C   tau(  15) = (   0.4576709   1.2081171   1.0215454  )
        16           H   tau(  16) = (   0.5969732   1.2643971   0.9988700  )
        17           C   tau(  17) = (   0.4898428   1.7643077   0.9776734  )
        18           H   tau(  18) = (   0.3510215   1.7084283   0.9515473  )
        19           C   tau(  19) = (   0.8025222   1.7578986   1.1727151  )
        20           H   tau(  20) = (   0.8848144   1.6990149   1.2859280  )
        21           C   tau(  21) = (   0.1377615   1.2107208   1.2070569  )
        22           H   tau(  22) = (   0.0501555   1.2710065   1.3156690  )
        23           C   tau(  23) = (   0.0584822   1.0420812   1.0887502  )
        24           H   tau(  24) = (   0.9198816   0.9864020   1.1158622  )
        25           C   tau(  25) = (   0.1873493   0.9553579   0.9277216  )
        26           C   tau(  26) = (   0.8614386   0.1788542   0.7476326  )
        27           C   tau(  27) = (   0.1044740   0.7734994   0.7911760  )
        28           Ni1 tau(  28) = (   0.9824452   0.4927804   0.5577339  )
        29           O   tau(  29) = (   0.7087996   1.3026115   1.4671673  )
        30           O   tau(  30) = (   0.2232258   1.7363079   1.4298678  )
        31           O   tau(  31) = (   0.4005995   1.2973840   1.6387120  )
        32           O   tau(  32) = (   0.5310404   1.7629057   1.6007553  )
        33           N   tau(  33) = (   0.1207586   0.3146472   0.3223857  )
        34           N   tau(  34) = (   0.8532706   0.7088075   0.3534412  )
        35           C   tau(  35) = (   0.0873123   0.0815159   0.0220182  )
        36           H   tau(  36) = (  -0.0341640   0.0276393   1.5512965  )
        37           C   tau(  37) = (   0.2919734   0.0040057   0.0553741  )
        38           C   tau(  38) = (   0.4121716   0.0909292   0.2224823  )
        39           H   tau(  39) = (   0.5547220   0.0444632   0.2472939  )
        40           C   tau(  40) = (   0.9060948   0.9631690   0.0724628  )
        41           H   tau(  41) = (   0.9595093   1.0194490   1.6066706  )
        42           C   tau(  42) = (   0.9758703   0.7947296   0.1999712  )
        43           H   tau(  43) = (   0.1151726   0.7384496   0.1772957  )
        44           C   tau(  44) = (   0.0080421   0.2385390   0.1560991  )
        45           H   tau(  45) = (   0.8692209   0.2944185   0.1299730  )
        46           C   tau(  46) = (   0.3207216   0.2449482   0.3511408  )
        47           H   tau(  47) = (   0.4030137   0.3038318   0.4643538  )
        48           C   tau(  48) = (   0.6559609   0.7921259   0.3854826  )
        49           H   tau(  49) = (   0.5683549   0.7318402   0.4940948  )
        50           C   tau(  50) = (   0.5766816   0.9607656   0.2671759  )
        51           H   tau(  51) = (   0.4380810   1.0164447   0.2942879  )
        52           C   tau(  52) = (   0.7055486   1.0474888   0.1061474  )
        53           C   tau(  53) = (   0.3432392   1.8239925   1.5692068  )
        54           C   tau(  54) = (   0.5862746   1.2293473   1.6127503  )

     number of k points=     1  Marzari-Vanderbilt smearing, width (Ry)=  0.2000
                       cart. coord. in units 2pi/alat
        k(    1) = (   0.0000000   0.0000000   0.0000000), wk =   1.0000000

     Dense  grid:   366763 G-vectors     FFT dimensions: (  75, 160, 125)

     Estimated max dynamical RAM per process >     175.55 MB

     Estimated total dynamical RAM >       2.74 GB
     Generating pointlists ...
     new r_m :   0.1337 (alat units)  1.5801 (a.u.) for type    1
     new r_m :   0.1337 (alat units)  1.5801 (a.u.) for type    2
     new r_m :   0.0823 (alat units)  0.9721 (a.u.) for type    3
     new r_m :   0.0882 (alat units)  1.0416 (a.u.) for type    4
     new r_m :   0.0626 (alat units)  0.7399 (a.u.) for type    5
     new r_m :   0.0626 (alat units)  0.7399 (a.u.) for type    6

     Check: negative core charge=   -0.000145

     Initial potential from superposition of free atoms

     starting charge  199.99835, renormalised to  200.00000
     Starting wfcs are  178 randomized atomic wfcs

     total cpu time spent up to now is       18.1 secs

     Self-consistent Calculation

     iteration #  1     ecut=   100.00 Ry     beta= 0.70
     Davidson diagonalization with overlap
     ethr =  1.00E-02,  avg # of iterations =  4.0

     total cpu time spent up to now is       44.2 secs

     total energy              =    -808.50799022 Ry
     Harris-Foulkes estimate   =    -813.53961135 Ry
     estimated scf accuracy    <      13.16605648 Ry

     total magnetization       =     4.00 Bohr mag/cell
     absolute magnetization    =     4.57 Bohr mag/cell

     iteration #  2     ecut=   100.00 Ry     beta= 0.70
     Davidson diagonalization with overlap
     ethr =  6.58E-03,  avg # of iterations =  2.0

     total cpu time spent up to now is       61.3 secs

     total energy              =    -810.77777030 Ry
     Harris-Foulkes estimate   =    -813.09947223 Ry
     estimated scf accuracy    <      10.77477718 Ry

     total magnetization       =     4.00 Bohr mag/cell
     absolute magnetization    =     4.10 Bohr mag/cell

     iteration #  3     ecut=   100.00 Ry     beta= 0.70
     Davidson diagonalization with overlap
     ethr =  5.39E-03,  avg # of iterations =  1.0

     total cpu time spent up to now is       77.7 secs

     total energy              =    -810.33214310 Ry
     Harris-Foulkes estimate   =    -811.13825678 Ry
     estimated scf accuracy    <       2.70608438 Ry

     total magnetization       =     4.00 Bohr mag/cell
     absolute magnetization    =     4.09 Bohr mag/cell

     iteration #  4     ecut=   100.00 Ry     beta= 0.70
     Davidson diagonalization with overlap
     ethr =  1.35E-03,  avg # of iterations =  5.5

     total cpu time spent up to now is       95.7 secs

     total energy              =    -810.36389100 Ry
     Harris-Foulkes estimate   =    -811.20877182 Ry
     estimated scf accuracy    <       7.21993097 Ry

     total magnetization       =     4.00 Bohr mag/cell
     absolute magnetization    =     4.12 Bohr mag/cell

     iteration #  5     ecut=   100.00 Ry     beta= 0.70
     Davidson diagonalization with overlap
     ethr =  1.35E-03,  avg # of iterations =  3.0

     total cpu time spent up to now is      112.2 secs

     total energy              =    -810.68134301 Ry
     Harris-Foulkes estimate   =    -810.72597278 Ry
     estimated scf accuracy    <       0.13252234 Ry

     total magnetization       =     4.00 Bohr mag/cell
     absolute magnetization    =     4.13 Bohr mag/cell

     iteration #  6     ecut=   100.00 Ry     beta= 0.70
     Davidson diagonalization with overlap
     ethr =  6.63E-05,  avg # of iterations =  7.0

     total cpu time spent up to now is      134.0 secs

     total energy              =    -810.68521106 Ry
     Harris-Foulkes estimate   =    -810.73098639 Ry
     estimated scf accuracy    <       0.73980175 Ry

     total magnetization       =     4.00 Bohr mag/cell
     absolute magnetization    =     4.12 Bohr mag/cell

     iteration #  7     ecut=   100.00 Ry     beta= 0.70
     Davidson diagonalization with overlap
     ethr =  6.63E-05,  avg # of iterations =  1.5

     total cpu time spent up to now is      150.4 secs

     total energy              =    -810.65252566 Ry
     Harris-Foulkes estimate   =    -810.70159529 Ry
     estimated scf accuracy    <       0.36659855 Ry

     total magnetization       =     4.00 Bohr mag/cell
     absolute magnetization    =     4.13 Bohr mag/cell

     iteration #  8     ecut=   100.00 Ry     beta= 0.70
     Davidson diagonalization with overlap
     ethr =  6.63E-05,  avg # of iterations =  2.0

     total cpu time spent up to now is      167.1 secs

     total energy              =    -810.67567725 Ry
     Harris-Foulkes estimate   =    -810.68494970 Ry
     estimated scf accuracy    <       0.09301837 Ry

     total magnetization       =     4.00 Bohr mag/cell
     absolute magnetization    =     4.13 Bohr mag/cell

     iteration #  9     ecut=   100.00 Ry     beta= 0.70
     Davidson diagonalization with overlap
     ethr =  4.65E-05,  avg # of iterations =  1.5

     total cpu time spent up to now is      183.3 secs

     total energy              =    -810.68325083 Ry
     Harris-Foulkes estimate   =    -810.68168657 Ry
     estimated scf accuracy    <       0.01068076 Ry

     total magnetization       =     4.00 Bohr mag/cell
     absolute magnetization    =     4.12 Bohr mag/cell

     iteration # 10     ecut=   100.00 Ry     beta= 0.70
     Davidson diagonalization with overlap
     ethr =  5.34E-06,  avg # of iterations =  4.0

     total cpu time spent up to now is      201.7 secs

     total energy              =    -810.68258419 Ry
     Harris-Foulkes estimate   =    -810.68511106 Ry
     estimated scf accuracy    <       0.03807227 Ry

     total magnetization       =     4.00 Bohr mag/cell
     absolute magnetization    =     4.10 Bohr mag/cell

     iteration # 11     ecut=   100.00 Ry     beta= 0.70
     Davidson diagonalization with overlap
     ethr =  5.34E-06,  avg # of iterations =  2.5

     total cpu time spent up to now is      218.4 secs

     total energy              =    -810.68490890 Ry
     Harris-Foulkes estimate   =    -810.68442452 Ry
     estimated scf accuracy    <       0.00145701 Ry

     total magnetization       =     4.00 Bohr mag/cell
     absolute magnetization    =     4.10 Bohr mag/cell

     iteration # 12     ecut=   100.00 Ry     beta= 0.70
     Davidson diagonalization with overlap
     ethr =  7.29E-07,  avg # of iterations =  3.5

     total cpu time spent up to now is      236.3 secs

     total energy              =    -810.68539129 Ry
     Harris-Foulkes estimate   =    -810.68499767 Ry
     estimated scf accuracy    <       0.00036204 Ry

     total magnetization       =     4.00 Bohr mag/cell
     absolute magnetization    =     4.10 Bohr mag/cell

     iteration # 13     ecut=   100.00 Ry     beta= 0.70
     Davidson diagonalization with overlap
     ethr =  1.81E-07,  avg # of iterations =  3.5

     total cpu time spent up to now is      253.9 secs

     total energy              =    -810.68548491 Ry
     Harris-Foulkes estimate   =    -810.68542168 Ry
     estimated scf accuracy    <       0.00009120 Ry

     total magnetization       =     4.00 Bohr mag/cell
     absolute magnetization    =     4.10 Bohr mag/cell

     iteration # 14     ecut=   100.00 Ry     beta= 0.70
     Davidson diagonalization with overlap
     ethr =  4.56E-08,  avg # of iterations =  3.0

     total cpu time spent up to now is      271.1 secs

     total energy              =    -810.68550601 Ry
     Harris-Foulkes estimate   =    -810.68549247 Ry
     estimated scf accuracy    <       0.00002878 Ry

     total magnetization       =     4.00 Bohr mag/cell
     absolute magnetization    =     4.10 Bohr mag/cell

     iteration # 15     ecut=   100.00 Ry     beta= 0.70
     Davidson diagonalization with overlap
     ethr =  1.44E-08,  avg # of iterations =  2.5

     total cpu time spent up to now is      287.7 secs

     total energy              =    -810.68551227 Ry
     Harris-Foulkes estimate   =    -810.68550796 Ry
     estimated scf accuracy    <       0.00000958 Ry

     total magnetization       =     4.00 Bohr mag/cell
     absolute magnetization    =     4.10 Bohr mag/cell

     iteration # 16     ecut=   100.00 Ry     beta= 0.70
     Davidson diagonalization with overlap
     ethr =  4.79E-09,  avg # of iterations =  3.0

     total cpu time spent up to now is      305.1 secs

     total energy              =    -810.68551373 Ry
     Harris-Foulkes estimate   =    -810.68551348 Ry
     estimated scf accuracy    <       0.00000577 Ry

     total magnetization       =     4.00 Bohr mag/cell
     absolute magnetization    =     4.10 Bohr mag/cell

     iteration # 17     ecut=   100.00 Ry     beta= 0.70
     Davidson diagonalization with overlap
     ethr =  2.88E-09,  avg # of iterations =  2.0

     total cpu time spent up to now is      321.5 secs

     total energy              =    -810.68551470 Ry
     Harris-Foulkes estimate   =    -810.68551413 Ry
     estimated scf accuracy    <       0.00000321 Ry

     total magnetization       =     4.00 Bohr mag/cell
     absolute magnetization    =     4.10 Bohr mag/cell

     iteration # 18     ecut=   100.00 Ry     beta= 0.70
     Davidson diagonalization with overlap
     ethr =  1.60E-09,  avg # of iterations =  2.5
 
     Magnetic moment per site:
     atom:    1    charge:    7.5197    magn:    1.2591    constr:    0.0000
     atom:    2    charge:    3.1214    magn:    0.0530    constr:    0.0000
     atom:    3    charge:    3.1196    magn:    0.0537    constr:    0.0000
     atom:    4    charge:    3.1293    magn:    0.0507    constr:    0.0000
     atom:    5    charge:    3.1279    magn:    0.0529    constr:    0.0000
     atom:    6    charge:    2.4097    magn:    0.0143    constr:    0.0000
     atom:    7    charge:    2.4038    magn:    0.0134    constr:    0.0000
     atom:    8    charge:    0.5999    magn:    0.0036    constr:    0.0000
     atom:    9    charge:    0.4555    magn:   -0.0007    constr:    0.0000
     atom:   10    charge:    0.5735    magn:    0.0039    constr:    0.0000
     atom:   11    charge:    0.5988    magn:    0.0038    constr:    0.0000
     atom:   12    charge:    0.4555    magn:   -0.0008    constr:    0.0000
     atom:   13    charge:    0.6004    magn:    0.0036    constr:    0.0000
     atom:   14    charge:    0.4562    magn:   -0.0007    constr:    0.0000
     atom:   15    charge:    0.5923    magn:    0.0032    constr:    0.0000
     atom:   16    charge:    0.4597    magn:   -0.0005    constr:    0.0000
     atom:   17    charge:    0.5935    magn:    0.0033    constr:    0.0000
     atom:   18    charge:    0.4599    magn:   -0.0006    constr:    0.0000
     atom:   19    charge:    0.5950    magn:    0.0032    constr:    0.0000
     atom:   20    charge:    0.4586    magn:   -0.0003    constr:    0.0000
     atom:   21    charge:    0.5915    magn:    0.0033    constr:    0.0000
     atom:   22    charge:    0.4577    magn:   -0.0004    constr:    0.0000
     atom:   23    charge:    0.5979    magn:    0.0036    constr:    0.0000
     atom:   24    charge:    0.4561    magn:   -0.0008    constr:    0.0000
     atom:   25    charge:    0.5730    magn:    0.0038    constr:    0.0000
     atom:   26    charge:    0.5601    magn:   -0.0013    constr:    0.0000
     atom:   27    charge:    0.5596    magn:   -0.0012    constr:    0.0000
     atom:   28    charge:    7.5199    magn:    1.2595    constr:    0.0000
     atom:   29    charge:    3.1183    magn:    0.0530    constr:    0.0000
     atom:   30    charge:    3.1205    magn:    0.0537    constr:    0.0000
     atom:   31    charge:    3.1285    magn:    0.0507    constr:    0.0000
     atom:   32    charge:    3.1271    magn:    0.0529    constr:    0.0000
     atom:   33    charge:    2.4116    magn:    0.0143    constr:    0.0000
     atom:   34    charge:    2.4029    magn:    0.0134    constr:    0.0000
     atom:   35    charge:    0.5992    magn:    0.0036    constr:    0.0000
     atom:   36    charge:    0.4554    magn:   -0.0007    constr:    0.0000
     atom:   37    charge:    0.5742    magn:    0.0039    constr:    0.0000
     atom:   38    charge:    0.5986    magn:    0.0038    constr:    0.0000
     atom:   39    charge:    0.4561    magn:   -0.0008    constr:    0.0000
     atom:   40    charge:    0.5998    magn:    0.0036    constr:    0.0000
     atom:   41    charge:    0.4559    magn:   -0.0007    constr:    0.0000
     atom:   42    charge:    0.5914    magn:    0.0032    constr:    0.0000
     atom:   43    charge:    0.4596    magn:   -0.0005    constr:    0.0000
     atom:   44    charge:    0.5921    magn:    0.0033    constr:    0.0000
     atom:   45    charge:    0.4598    magn:   -0.0006    constr:    0.0000
     atom:   46    charge:    0.5949    magn:    0.0032    constr:    0.0000
     atom:   47    charge:    0.4586    magn:   -0.0004    constr:    0.0000
     atom:   48    charge:    0.5913    magn:    0.0033    constr:    0.0000
     atom:   49    charge:    0.4570    magn:   -0.0004    constr:    0.0000
     atom:   50    charge:    0.5981    magn:    0.0036    constr:    0.0000
     atom:   51    charge:    0.4566    magn:   -0.0008    constr:    0.0000
     atom:   52    charge:    0.5741    magn:    0.0038    constr:    0.0000
     atom:   53    charge:    0.5597    magn:   -0.0013    constr:    0.0000
     atom:   54    charge:    0.5600    magn:   -0.0012    constr:    0.0000

     total cpu time spent up to now is      337.0 secs

     End of self-consistent calculation

 ------ SPIN UP ------------


          k = 0.0000 0.0000 0.0000 ( 45819 PWs)   bands (ev):

   -22.6624 -22.6600 -22.5619 -22.5599 -19.9632 -19.9631 -19.9422 -19.9411
   -19.4054 -19.3915 -19.2803 -19.2728 -15.5796 -15.5123 -15.5073 -15.4799
   -14.6074 -14.5708 -14.5672 -14.5230 -11.7733 -11.7223 -11.7001 -11.6693
   -11.4717 -11.4410 -11.4107 -11.3508  -9.9227  -9.6610  -9.6375  -9.5632
    -8.2607  -7.9883  -7.9535  -7.9425  -7.6991  -7.6729  -7.6184  -7.5379
    -7.2950  -7.1781  -7.0214  -6.9626  -6.9113  -6.7456  -6.7172  -6.6696
    -6.6453  -6.6005  -6.4454  -6.4195  -6.3919  -6.3556  -6.2636  -6.1167
    -6.1108  -6.0393  -5.9785  -5.9309  -5.7183  -5.5557  -5.3635  -5.1750
    -4.5702  -4.5028  -4.3572  -4.2961  -4.2694  -4.2679  -4.0705  -4.0584
    -3.7553  -3.4913  -3.3577  -3.2640  -3.2475  -3.2077  -3.1875  -3.1477
    -3.0600  -2.7327  -2.6329  -2.6132  -2.5103  -2.4867  -2.4700  -2.4112
    -2.3792  -2.3316  -2.3046  -2.2856  -2.2261  -2.1468  -2.1078  -2.0668
    -2.0168  -1.9172  -0.5975  -0.5759  -0.3396  -0.3183   2.0440   2.0601
     2.0987   2.1390   3.0299   3.1421   3.3182   3.4720   3.4795   4.2663
     4.5055   4.5691   4.7437   4.7770   4.9911   5.3658   5.7329   5.7855
     5.8137   6.1267

 ------ SPIN DOWN ----------


          k = 0.0000 0.0000 0.0000 ( 45819 PWs)   bands (ev):

   -22.5612 -22.5587 -22.4605 -22.4584 -19.8353 -19.8352 -19.8113 -19.8102
   -19.3719 -19.3578 -19.2480 -19.2403 -15.5406 -15.4738 -15.4689 -15.4403
   -14.5733 -14.5365 -14.5330 -14.4888 -11.7278 -11.6804 -11.6590 -11.6294
   -11.4449 -11.4136 -11.3836 -11.3240  -9.8927  -9.6332  -9.6088  -9.5307
    -8.1953  -7.9351  -7.8966  -7.8797  -7.6598  -7.6259  -7.5769  -7.5049
    -7.2671  -7.1433  -6.9833  -6.9246  -6.8031  -6.6502  -6.5966  -6.5469
    -6.5298  -6.5202  -6.3399  -6.2953  -6.2667  -6.2417  -6.1973  -6.0809
    -6.0303  -6.0117  -5.9404  -5.9092  -5.6500  -5.4790  -5.2880  -5.0982
    -4.4315  -4.3071  -4.2770  -4.2389  -4.2314  -3.9082  -3.6079  -3.5901
    -3.2460  -3.1435  -3.0647  -3.0199  -2.7978  -2.7450  -2.6784  -2.6588
    -2.6092  -2.4722  -2.4716  -2.3582  -2.3140  -2.2950  -2.2145  -2.1615
    -2.1478  -2.0097  -1.9810  -1.8288  -1.6055  -1.3711  -1.3585  -1.3311
    -1.3121  -1.2011   0.2524   0.2588   0.4497   0.4685   2.1331   2.1631
     2.2153   2.2287   3.1062   3.2192   3.3971   3.5133   3.5532   4.3123
     4.5520   4.6266   4.8019   4.8488   5.0412   5.4117   5.7759   5.8175
     5.8606   6.2021

     the spin up/dw Fermi energies are     0.0862   -0.2218 ev

!    total energy              =    -810.68551491 Ry
     Harris-Foulkes estimate   =    -810.68551485 Ry
     estimated scf accuracy    <       0.00000065 Ry

     The total energy is the sum of the following terms:

     one-electron contribution =   -1216.55002264 Ry
     hartree contribution      =     678.55005949 Ry
     xc contribution           =    -248.39649362 Ry
     ewald contribution        =     -25.36061178 Ry
     Dispersion Correction     =      -0.20316514 Ry
     smearing contrib. (-TS)   =       1.27471879 Ry

     total magnetization       =     4.00 Bohr mag/cell
     absolute magnetization    =     4.10 Bohr mag/cell

     convergence has been achieved in  18 iterations

     Forces acting on atoms (cartesian axes, Ry/au):

     atom    1 type  2   force =    -0.01097138   -0.00925063   -0.03725193
     atom    2 type  3   force =    -0.01555063   -0.03648991   -0.02530016
     atom    3 type  3   force =     0.01570317    0.03985950   -0.01993434
     atom    4 type  3   force =    -0.04215691   -0.04401138   -0.01636589
     atom    5 type  3   force =     0.03691648    0.04793845   -0.01344707
     atom    6 type  4   force =    -0.01997149   -0.01699950    0.01603452
     atom    7 type  4   force =    -0.00205184    0.00399441    0.01711320
     atom    8 type  5   force =     0.15795127   -0.07203866    0.17027076
     atom    9 type  6   force =    -0.16212105    0.09374702   -0.20270768
     atom   10 type  5   force =     0.01385948    0.01127025    0.01184772
     atom   11 type  5   force =    -0.23428019   -0.04743214   -0.08008124
     atom   12 type  6   force =     0.25817478    0.08086942    0.05540627
     atom   13 type  5   force =    -0.15342144    0.08566039    0.17208758
     atom   14 type  6   force =     0.17042449   -0.09721082   -0.19374125
     atom   15 type  5   force =    -0.22800159   -0.09340524    0.03078230
     atom   16 type  6   force =     0.25365700    0.11237705   -0.03357634
     atom   17 type  5   force =     0.22242420    0.08439754    0.04633423
     atom   18 type  6   force =    -0.25725820   -0.10844046   -0.03620677
     atom   19 type  5   force =    -0.13071137    0.08638835   -0.17412525
     atom   20 type  6   force =     0.14208396   -0.11264533    0.21334183
     atom   21 type  5   force =     0.15567930   -0.07903752   -0.16647330
     atom   22 type  6   force =    -0.15084724    0.11850840    0.20176868
     atom   23 type  5   force =     0.24683611    0.06770355   -0.07957255
     atom   24 type  6   force =    -0.25610792   -0.09667377    0.05735623
     atom   25 type  5   force =    -0.03538749   -0.01945065    0.00212790
     atom   26 type  5   force =    -0.05050941   -0.07831547    0.03157637
     atom   27 type  5   force =     0.05972482    0.08214382    0.03954412
     atom   28 type  1   force =     0.02017497    0.00811862   -0.00675914
     atom   29 type  3   force =    -0.01573616    0.03662275   -0.02629760
     atom   30 type  3   force =     0.01676863   -0.04011635   -0.02084045
     atom   31 type  3   force =    -0.04263734    0.04435435   -0.01727728
     atom   32 type  3   force =     0.03769773   -0.04769691   -0.01498494
     atom   33 type  4   force =    -0.02052260    0.01619763    0.01608416
     atom   34 type  4   force =    -0.00216800   -0.00382132    0.01730461
     atom   35 type  5   force =     0.15787745    0.07212431    0.17026350
     atom   36 type  6   force =    -0.16211344   -0.09371690   -0.20269768
     atom   37 type  5   force =     0.01385942   -0.01115986    0.01193914
     atom   38 type  5   force =    -0.23407154    0.04754519   -0.08009310
     atom   39 type  6   force =     0.25817646   -0.08083369    0.05541424
     atom   40 type  5   force =    -0.15332439   -0.08567395    0.17196428
     atom   41 type  6   force =     0.17043835    0.09724239   -0.19376996
     atom   42 type  5   force =    -0.22798117    0.09358350    0.03075675
     atom   43 type  6   force =     0.25369337   -0.11233541   -0.03359144
     atom   44 type  5   force =     0.22237768   -0.08447148    0.04640061
     atom   45 type  6   force =    -0.25722910    0.10843916   -0.03619659
     atom   46 type  5   force =    -0.13061650   -0.08623613   -0.17398813
     atom   47 type  6   force =     0.14193455    0.11246975    0.21314411
     atom   48 type  5   force =     0.15554391    0.07928512   -0.16628381
     atom   49 type  6   force =    -0.15075974   -0.11816188    0.20162623
     atom   50 type  5   force =     0.24671093   -0.06763247   -0.07956737
     atom   51 type  6   force =    -0.25611068    0.09672196    0.05736722
     atom   52 type  5   force =    -0.03530889    0.01938021    0.00217038
     atom   53 type  5   force =    -0.05035562    0.07841465    0.03162896
     atom   54 type  5   force =     0.05959481   -0.08209991    0.03947534

     Total force =     1.514234     Total SCF correction =     0.001440

     BFGS Geometry Optimization

     number of scf cycles    =   1
     number of bfgs steps    =   0

     energy   new            =    -810.6855149061 Ry

     new trust radius        =       0.2815173929 bohr
     new conv_thr            =       0.0000010000 Ry


ATOMIC_POSITIONS (crystal)
Ni2           0.4938016508        0.7535691137        0.8375113374
O             0.2399365129        0.3480781162        0.3915969143
O             0.7561915946        0.1347642661        0.3691732811
O             0.9333015606        0.3503702960        0.4964570740
O             0.0695990484        0.1218256428        0.4735074083
N             0.6262398643        0.8421816848        0.6970258587
N             0.3609584346        0.6462687841        0.7159814163
C             0.6014866953        0.9562560010        0.5221698031
H             0.4860996045        0.9901612872        0.4336595316
C             0.7943951447        0.9984762254        0.5343102176
C             0.8971226353        0.9525957515        0.6312754122
H             0.0821533160        0.9812171434        0.6533537027
C             0.3950384916        0.5227195860        0.5529633789
H             0.5091598889        0.4868923495        0.4678213479
C             0.4610618338        0.5992531546        0.6232854439
H             0.6405041569        0.6360485008        0.6061706489
C             0.5304107213        0.8844662242        0.5973864464
H             0.3502602485        0.8484178402        0.5772351686
C             0.8171114034        0.8813503462        0.7047316711
H             0.9257245835        0.8435401630        0.7935881808
C             0.1773631166        0.6011602636        0.7260257851
H             0.0669119912        0.6396075812        0.8110921050
C             0.1033406719        0.5231608188        0.6585016124
H             0.9230330014        0.4884150426        0.6820541352
C             0.2049091303        0.4761781114        0.5647095974
C             0.8737845632        0.0859907739        0.4566263422
C             0.1271286717        0.3896709932        0.4835367216
Ni1           0.9964947450        0.2463830527        0.3390818703
O             0.7399189412        0.6519274972        0.8915455412
O             0.2562800662        0.8652248808        0.8691266117
O             0.4332591936        0.6496441966        0.9964101327
O             0.5696622832        0.8781845635        0.9734281997
N             0.1261933166        0.1577844321        0.1970284152
N             0.8609489624        0.3537385298        0.2159912749
C             0.1014804340        0.0437476180        0.0221694295
H            -0.0138997328        0.0098399855        0.9336600469
C             0.2943953114        0.0015284393        0.0343149260
C             0.3971402709        0.0474090254        0.1312748010
H             0.5821534729        0.0187843663        0.1533541129
C             0.8950464744        0.4772798409        0.0529570282
H             1.0091610084        0.5131089845        0.9678198696
C             0.9610635134        0.4007543779        0.1232841277
H             0.1405072070        0.3639532589        0.1061698714
C             0.0304069089        0.1155306511        0.0973898657
H             0.8502627301        0.1515821048        0.0772356931
C             0.3171196899        0.1186560860        0.2047387333
H             0.4257115682        0.1564524178        0.2935779972
C             0.6773520145        0.3988501988        0.2260355449
H             0.5669191295        0.3604070608        0.3110847681
C             0.6033300879        0.4768421851        0.1585018791
H             0.4230327878        0.5115869938        0.1820547014
C             0.7049158622        0.5238189121        0.0647117855
C             0.3737976770        0.9140134168        0.9566290510
C             0.6271175400        0.6103308620        0.9835331794



     Writing output data file ./NiPyC2_P1_relax.save/
     NEW-OLD atomic charge density approx. for the potential

     Check: negative core charge=   -0.000145

     total cpu time spent up to now is      354.0 secs

     Self-consistent Calculation

     iteration #  1     ecut=   100.00 Ry     beta= 0.70
     Davidson diagonalization with overlap
     ethr =  1.00E-06,  avg # of iterations = 16.0

     total cpu time spent up to now is      423.4 secs

     total energy              =    -810.30238651 Ry
     Harris-Foulkes estimate   =    -810.50413738 Ry
     estimated scf accuracy    <       0.59938974 Ry

     total magnetization       =     4.00 Bohr mag/cell
     absolute magnetization    =     4.06 Bohr mag/cell

     iteration #  2     ecut=   100.00 Ry     beta= 0.70
     Davidson diagonalization with overlap
     ethr =  3.00E-04,  avg # of iterations =  2.0

     total cpu time spent up to now is      439.5 secs

     total energy              =    -810.30959236 Ry
     Harris-Foulkes estimate   =    -810.34563031 Ry
     estimated scf accuracy    <       0.08688159 Ry

     total magnetization       =     4.00 Bohr mag/cell
     absolute magnetization    =     4.06 Bohr mag/cell

     iteration #  3     ecut=   100.00 Ry     beta= 0.70
     Davidson diagonalization with overlap
     ethr =  4.34E-05,  avg # of iterations =  2.0

     total cpu time spent up to now is      459.2 secs

     total energy              =    -810.31339172 Ry
     Harris-Foulkes estimate   =    -810.32961252 Ry
     estimated scf accuracy    <       0.09621536 Ry

     total magnetization       =     4.00 Bohr mag/cell
     absolute magnetization    =     4.06 Bohr mag/cell

     iteration #  4     ecut=   100.00 Ry     beta= 0.70
     Davidson diagonalization with overlap
     ethr =  4.34E-05,  avg # of iterations =  1.5

     total cpu time spent up to now is      475.4 secs

     total energy              =    -810.31928242 Ry
     Harris-Foulkes estimate   =    -810.32712233 Ry
     estimated scf accuracy    <       0.09425075 Ry

     total magnetization       =     4.00 Bohr mag/cell
     absolute magnetization    =     4.06 Bohr mag/cell

     iteration #  5     ecut=   100.00 Ry     beta= 0.70
     Davidson diagonalization with overlap
     ethr =  4.34E-05,  avg # of iterations =  1.0

     total cpu time spent up to now is      491.3 secs

     total energy              =    -810.32259645 Ry
     Harris-Foulkes estimate   =    -810.32371579 Ry
     estimated scf accuracy    <       0.01267054 Ry

     total magnetization       =     4.00 Bohr mag/cell
     absolute magnetization    =     4.06 Bohr mag/cell

     iteration #  6     ecut=   100.00 Ry     beta= 0.70
     Davidson diagonalization with overlap
     ethr =  6.34E-06,  avg # of iterations =  1.0

     total cpu time spent up to now is      505.5 secs

     total energy              =    -810.32310943 Ry
     Harris-Foulkes estimate   =    -810.32332801 Ry
     estimated scf accuracy    <       0.00172879 Ry

     total magnetization       =     4.00 Bohr mag/cell
     absolute magnetization    =     4.06 Bohr mag/cell

     iteration #  7     ecut=   100.00 Ry     beta= 0.70
     Davidson diagonalization with overlap
     ethr =  8.64E-07,  avg # of iterations =  1.5

     total cpu time spent up to now is      521.9 secs

     total energy              =    -810.32321447 Ry
     Harris-Foulkes estimate   =    -810.32324354 Ry
     estimated scf accuracy    <       0.00037796 Ry

     total magnetization       =     4.00 Bohr mag/cell
     absolute magnetization    =     4.06 Bohr mag/cell

     iteration #  8     ecut=   100.00 Ry     beta= 0.70
     Davidson diagonalization with overlap
     ethr =  1.89E-07,  avg # of iterations =  2.0

     total cpu time spent up to now is      538.3 secs

     total energy              =    -810.32323711 Ry
     Harris-Foulkes estimate   =    -810.32324041 Ry
     estimated scf accuracy    <       0.00015853 Ry

     total magnetization       =     4.00 Bohr mag/cell
     absolute magnetization    =     4.07 Bohr mag/cell

     iteration #  9     ecut=   100.00 Ry     beta= 0.70
     Davidson diagonalization with overlap
     ethr =  7.93E-08,  avg # of iterations =  2.5

     total cpu time spent up to now is      555.6 secs

     total energy              =    -810.32325274 Ry
     Harris-Foulkes estimate   =    -810.32325277 Ry
     estimated scf accuracy    <       0.00005076 Ry

     total magnetization       =     4.00 Bohr mag/cell
     absolute magnetization    =     4.07 Bohr mag/cell

     iteration # 10     ecut=   100.00 Ry     beta= 0.70
     Davidson diagonalization with overlap
     ethr =  2.54E-08,  avg # of iterations =  2.0

     total cpu time spent up to now is      572.2 secs

     total energy              =    -810.32325813 Ry
     Harris-Foulkes estimate   =    -810.32325642 Ry
     estimated scf accuracy    <       0.00002205 Ry

     total magnetization       =     4.00 Bohr mag/cell
     absolute magnetization    =     4.07 Bohr mag/cell

     iteration # 11     ecut=   100.00 Ry     beta= 0.70
     Davidson diagonalization with overlap
     ethr =  1.10E-08,  avg # of iterations =  2.0

     total cpu time spent up to now is      588.8 secs

     total energy              =    -810.32326008 Ry
     Harris-Foulkes estimate   =    -810.32325911 Ry
     estimated scf accuracy    <       0.00001055 Ry

     total magnetization       =     4.00 Bohr mag/cell
     absolute magnetization    =     4.07 Bohr mag/cell

     iteration # 12     ecut=   100.00 Ry     beta= 0.70
     Davidson diagonalization with overlap
     ethr =  5.27E-09,  avg # of iterations =  3.0

     total cpu time spent up to now is      605.4 secs

     total energy              =    -810.32326067 Ry
     Harris-Foulkes estimate   =    -810.32326073 Ry
     estimated scf accuracy    <       0.00000288 Ry

     total magnetization       =     4.00 Bohr mag/cell
     absolute magnetization    =     4.07 Bohr mag/cell

     iteration # 13     ecut=   100.00 Ry     beta= 0.70
     Davidson diagonalization with overlap
     ethr =  1.44E-09,  avg # of iterations =  2.5
 
     Magnetic moment per site:
     atom:    1    charge:    7.5100    magn:    1.2015    constr:    0.0000
     atom:    2    charge:    3.1040    magn:    0.0502    constr:    0.0000
     atom:    3    charge:    3.1000    magn:    0.0531    constr:    0.0000
     atom:    4    charge:    3.0896    magn:    0.0600    constr:    0.0000
     atom:    5    charge:    3.0921    magn:    0.0608    constr:    0.0000
     atom:    6    charge:    2.4753    magn:    0.0151    constr:    0.0000
     atom:    7    charge:    2.4742    magn:    0.0148    constr:    0.0000
     atom:    8    charge:    0.5685    magn:    0.0040    constr:    0.0000
     atom:    9    charge:    0.3537    magn:    0.0015    constr:    0.0000
     atom:   10    charge:    0.6080    magn:    0.0036    constr:    0.0000
     atom:   11    charge:    0.5682    magn:    0.0038    constr:    0.0000
     atom:   12    charge:    0.3524    magn:    0.0017    constr:    0.0000
     atom:   13    charge:    0.5675    magn:    0.0039    constr:    0.0000
     atom:   14    charge:    0.3528    magn:    0.0016    constr:    0.0000
     atom:   15    charge:    0.5623    magn:    0.0032    constr:    0.0000
     atom:   16    charge:    0.3589    magn:    0.0018    constr:    0.0000
     atom:   17    charge:    0.5633    magn:    0.0033    constr:    0.0000
     atom:   18    charge:    0.3609    magn:    0.0017    constr:    0.0000
     atom:   19    charge:    0.5647    magn:    0.0040    constr:    0.0000
     atom:   20    charge:    0.3573    magn:    0.0024    constr:    0.0000
     atom:   21    charge:    0.5643    magn:    0.0038    constr:    0.0000
     atom:   22    charge:    0.3554    magn:    0.0022    constr:    0.0000
     atom:   23    charge:    0.5628    magn:    0.0037    constr:    0.0000
     atom:   24    charge:    0.3486    magn:    0.0018    constr:    0.0000
     atom:   25    charge:    0.6070    magn:    0.0036    constr:    0.0000
     atom:   26    charge:    0.5479    magn:   -0.0017    constr:    0.0000
     atom:   27    charge:    0.5468    magn:   -0.0016    constr:    0.0000
     atom:   28    charge:    7.5109    magn:    1.2032    constr:    0.0000
     atom:   29    charge:    3.0998    magn:    0.0515    constr:    0.0000
     atom:   30    charge:    3.1013    magn:    0.0528    constr:    0.0000
     atom:   31    charge:    3.0883    magn:    0.0612    constr:    0.0000
     atom:   32    charge:    3.0905    magn:    0.0619    constr:    0.0000
     atom:   33    charge:    2.4769    magn:    0.0152    constr:    0.0000
     atom:   34    charge:    2.4717    magn:    0.0151    constr:    0.0000
     atom:   35    charge:    0.5676    magn:    0.0040    constr:    0.0000
     atom:   36    charge:    0.3536    magn:    0.0015    constr:    0.0000
     atom:   37    charge:    0.6087    magn:    0.0036    constr:    0.0000
     atom:   38    charge:    0.5679    magn:    0.0039    constr:    0.0000
     atom:   39    charge:    0.3528    magn:    0.0017    constr:    0.0000
     atom:   40    charge:    0.5669    magn:    0.0040    constr:    0.0000
     atom:   41    charge:    0.3526    magn:    0.0016    constr:    0.0000
     atom:   42    charge:    0.5613    magn:    0.0032    constr:    0.0000
     atom:   43    charge:    0.3587    magn:    0.0018    constr:    0.0000
     atom:   44    charge:    0.5619    magn:    0.0033    constr:    0.0000
     atom:   45    charge:    0.3608    magn:    0.0018    constr:    0.0000
     atom:   46    charge:    0.5646    magn:    0.0040    constr:    0.0000
     atom:   47    charge:    0.3574    magn:    0.0024    constr:    0.0000
     atom:   48    charge:    0.5639    magn:    0.0038    constr:    0.0000
     atom:   49    charge:    0.3547    magn:    0.0023    constr:    0.0000
     atom:   50    charge:    0.5627    magn:    0.0037    constr:    0.0000
     atom:   51    charge:    0.3489    magn:    0.0018    constr:    0.0000
     atom:   52    charge:    0.6082    magn:    0.0036    constr:    0.0000
     atom:   53    charge:    0.5474    magn:   -0.0018    constr:    0.0000
     atom:   54    charge:    0.5470    magn:   -0.0017    constr:    0.0000

     total cpu time spent up to now is      621.3 secs

     End of self-consistent calculation

 ------ SPIN UP ------------


          k = 0.0000 0.0000 0.0000 ( 45819 PWs)   bands (ev):

   -22.3324 -22.3159 -22.2302 -22.2155 -20.6434 -20.6191 -20.5685 -20.5548
   -19.5668 -19.5596 -19.5527 -19.5361 -16.6079 -16.5474 -16.5437 -16.5190
   -14.3982 -14.3670 -14.3416 -14.3132 -12.5157 -12.3891 -12.3501 -12.3235
   -10.9731 -10.9467 -10.9186 -10.8540  -9.6544  -9.5160  -9.5044  -9.4044
    -8.6092  -8.2732  -8.2308  -8.1869  -8.1223  -8.1036  -7.8422  -7.7321
    -7.2300  -7.1235  -7.1058  -7.0164  -6.8665  -6.7464  -6.6876  -6.5142
    -6.4694  -6.3665  -6.3450  -6.2493  -6.2300  -6.0066  -5.7470  -5.5156
    -5.0697  -5.0337  -4.9523  -4.9166  -4.8628  -4.7126  -4.6363  -4.5800
    -4.5213  -4.4378  -4.3501  -4.2845  -3.9132  -3.8564  -3.8042  -3.7517
    -3.6304  -3.4498  -3.3976  -3.3675  -3.3575  -3.0871  -2.9907  -2.9096
    -2.8802  -2.7770  -2.7215  -2.7139  -2.6945  -2.6487  -2.6093  -2.5460
    -2.4817  -2.4292  -2.3281  -2.3159  -2.2806  -2.2756  -2.2320  -2.1793
    -2.1467  -2.1140  -0.6722  -0.6245  -0.5212  -0.5130   1.6940   1.7560
     1.7721   1.8585   3.3021   3.8594   3.9559   4.0621   4.1175   4.3173
     4.3313   4.5001   4.5804   4.7044   4.8154   5.0725   5.1780   5.3610
     5.4716   5.5063

 ------ SPIN DOWN ----------


          k = 0.0000 0.0000 0.0000 ( 45819 PWs)   bands (ev):

   -22.2254 -22.2071 -22.1238 -22.1080 -20.6088 -20.5838 -20.5334 -20.5192
   -19.4241 -19.4147 -19.4117 -19.3932 -16.5690 -16.5089 -16.5049 -16.4796
   -14.3559 -14.3246 -14.2982 -14.2697 -12.4735 -12.3482 -12.3105 -12.2810
   -10.9345 -10.9080 -10.8807 -10.8166  -9.6115  -9.4739  -9.4618  -9.3635
    -8.5474  -8.2333  -8.1851  -8.1430  -8.0822  -8.0299  -7.7654  -7.6429
    -7.1400  -7.0021  -6.9827  -6.9266  -6.7634  -6.6559  -6.6137  -6.4492
    -6.3308  -6.2396  -6.1977  -6.1427  -6.1132  -5.9056  -5.6491  -5.4255
    -5.0259  -4.9159  -4.8953  -4.8705  -4.7588  -4.5914  -4.5106  -4.4988
    -4.4499  -4.1722  -3.9601  -3.9376  -3.7132  -3.6008  -3.5656  -3.2817
    -3.1948  -3.1907  -3.1215  -2.9062  -2.8571  -2.8319  -2.7972  -2.7533
    -2.6054  -2.5697  -2.5106  -2.4286  -2.4222  -2.3688  -2.3100  -2.2302
    -2.1742  -2.0949  -2.0543  -2.0202  -1.8336  -1.5566  -1.5215  -1.5206
    -1.5071  -1.3979   0.1307   0.1532   0.2469   0.2741   1.8000   1.8441
     1.8905   1.9487   3.3338   3.9239   4.0093   4.1135   4.1829   4.3498
     4.4011   4.5559   4.6482   4.7503   4.8786   5.1202   5.2399   5.3941
     5.5007   5.5557

     the spin up/dw Fermi energies are    -0.1013   -0.3958 ev

!    total energy              =    -810.32326076 Ry
     Harris-Foulkes estimate   =    -810.32326086 Ry
     estimated scf accuracy    <       0.00000097 Ry

     The total energy is the sum of the following terms:

     one-electron contribution =   -1231.72229254 Ry
     hartree contribution      =     685.53304481 Ry
     xc contribution           =    -247.31870552 Ry
     ewald contribution        =     -18.08294304 Ry
     Dispersion Correction     =      -0.20008711 Ry
     smearing contrib. (-TS)   =       1.46772265 Ry

     total magnetization       =     4.00 Bohr mag/cell
     absolute magnetization    =     4.07 Bohr mag/cell

     convergence has been achieved in  13 iterations

     Forces acting on atoms (cartesian axes, Ry/au):

     atom    1 type  2   force =    -0.00216379   -0.00534433   -0.01008569
     atom    2 type  3   force =    -0.03997237    0.00076745    0.02401722
     atom    3 type  3   force =     0.04246814   -0.00177591    0.02670146
     atom    4 type  3   force =     0.07652784    0.00806267   -0.02783366
     atom    5 type  3   force =    -0.07093420    0.00088958   -0.02545476
     atom    6 type  4   force =    -0.02863670   -0.05202269    0.05756485
     atom    7 type  4   force =     0.03772573    0.06369686    0.04465997
     atom    8 type  5   force =    -0.15306369    0.19361022   -0.32302859
     atom    9 type  6   force =     0.06396825   -0.04448418    0.09071531
     atom   10 type  5   force =     0.02233412    0.09700653   -0.08605303
     atom   11 type  5   force =     0.37985692    0.15991344    0.03104964
     atom   12 type  6   force =    -0.11407593   -0.03902482   -0.01694540
     atom   13 type  5   force =     0.14068857   -0.23088371   -0.31716360
     atom   14 type  6   force =    -0.06675138    0.04802813    0.08674349
     atom   15 type  5   force =     0.36682318    0.24877930    0.03008851
     atom   16 type  6   force =    -0.10963106   -0.04913175    0.01311217
     atom   17 type  5   force =    -0.37503556   -0.22444800    0.01755570
     atom   18 type  6   force =     0.10535407    0.04985052    0.01712240
     atom   19 type  5   force =     0.12795030   -0.21333122    0.32281066
     atom   20 type  6   force =    -0.05531172    0.05061574   -0.08483260
     atom   21 type  5   force =    -0.16028720    0.21824053    0.30784095
     atom   22 type  6   force =     0.05969930   -0.04893662   -0.08042360
     atom   23 type  5   force =    -0.37141079   -0.18759782    0.03876440
     atom   24 type  6   force =     0.11298706    0.05019765   -0.01921846
     atom   25 type  5   force =     0.00516415   -0.08386566   -0.08553513
     atom   26 type  5   force =     0.04601291    0.04412387   -0.02182999
     atom   27 type  5   force =    -0.05636101   -0.04738588   -0.02427132
     atom   28 type  1   force =     0.02942216    0.00627038    0.01823496
     atom   29 type  3   force =    -0.04168793   -0.00177173    0.02470942
     atom   30 type  3   force =     0.04158233    0.00186781    0.02498517
     atom   31 type  3   force =     0.07623843   -0.00860636   -0.02835291
     atom   32 type  3   force =    -0.07343083    0.00009730   -0.02669932
     atom   33 type  4   force =    -0.02723556    0.05175676    0.05903952
     atom   34 type  4   force =     0.03919342   -0.06461030    0.04649706
     atom   35 type  5   force =    -0.15302343   -0.19381527   -0.32333098
     atom   36 type  6   force =     0.06397913    0.04448194    0.09074730
     atom   37 type  5   force =     0.02220707   -0.09707970   -0.08600262
     atom   38 type  5   force =     0.37982462   -0.15994484    0.03110252
     atom   39 type  6   force =    -0.11404881    0.03902570   -0.01695110
     atom   40 type  5   force =     0.14062002    0.23126067   -0.31752212
     atom   41 type  6   force =    -0.06673099   -0.04794869    0.08666654
     atom   42 type  5   force =     0.36611658   -0.24969782    0.03159219
     atom   43 type  6   force =    -0.10949215    0.04914487    0.01308169
     atom   44 type  5   force =    -0.37544290    0.22486551    0.01807033
     atom   45 type  6   force =     0.10536408   -0.04983376    0.01720552
     atom   46 type  5   force =     0.12739548    0.21278543    0.32186181
     atom   47 type  6   force =    -0.05512701   -0.05056005   -0.08477139
     atom   48 type  5   force =    -0.15875174   -0.21910604    0.30790309
     atom   49 type  6   force =     0.05953203    0.04903274   -0.08025340
     atom   50 type  5   force =    -0.37154643    0.18795248    0.03846784
     atom   51 type  6   force =     0.11291287   -0.05013754   -0.01925137
     atom   52 type  5   force =     0.00492308    0.08379768   -0.08516090
     atom   53 type  5   force =     0.04909739   -0.04453916   -0.02105769
     atom   54 type  5   force =    -0.05581608    0.04976207   -0.02688206

     Total force =     1.786170     Total SCF correction =     0.001149

     number of scf cycles    =   2
     number of bfgs steps    =   1

     energy   old            =    -810.6855149061 Ry
     energy   new            =    -810.3232607642 Ry

     CASE: energy  _new > energy  _old

     new trust radius        =       0.1215544146 bohr
     new conv_thr            =       0.0000010000 Ry


ATOMIC_POSITIONS (crystal)
Ni2           0.4943689298        0.7537912220        0.8386015542
O             0.2407112695        0.3489542409        0.3923373498
O             0.7554576885        0.1338072374        0.3697566803
O             0.9353462552        0.3514270115        0.4969360389
O             0.0678381163        0.1206746380        0.4739009507
N             0.6271831817        0.8425898437        0.6965565917
N             0.3610388745        0.6461728781        0.7154805805
C             0.5937096819        0.9579856531        0.5171866516
H             0.4941116894        0.9879104163        0.4395919836
C             0.7937160431        0.9982056260        0.5339634816
C             0.9084741142        0.9537345997        0.6336190732
H             0.0696790679        0.9792754643        0.6517321802
C             0.4022329764        0.5206628756        0.5479270560
H             0.5011708205        0.4892263865        0.4734913880
C             0.4719932876        0.6014958194        0.6223845677
H             0.6283419503        0.6333503218        0.6071532957
C             0.5196653273        0.8824398349        0.5960304269
H             0.3626699674        0.8510215015        0.5782947976
C             0.8235825980        0.8792761573        0.7098276284
H             0.9186647235        0.8462447834        0.7873445093
C             0.1700540746        0.6030579587        0.7308978001
H             0.0739510689        0.6367621882        0.8051871339
C             0.0915554688        0.5215352528        0.6608303860
H             0.9352877374        0.4907361850        0.6803755453
C             0.2066085934        0.4766451225        0.5646473223
C             0.8761798462        0.0878711325        0.4557022268
C             0.1242144731        0.3876987157        0.4823794217
Ni1           0.9955317620        0.2461881243        0.3392796835
O             0.7407036823        0.6510481829        0.8923151677
O             0.2554958891        0.8661880764        0.8697365292
O             0.4353279618        0.6485792462        0.9969157705
O             0.5678654200        0.8793297689        0.9738667498
N             0.1271630832        0.1573955261        0.1965576956
N             0.8610347845        0.3538302799        0.2154848373
C             0.0937069784        0.0420159095        0.0171864903
H            -0.0058880244        0.0120901332        0.9395922061
C             0.2937161151        0.0017963881        0.0339655146
C             0.4084817290        0.0462674629        0.1336188094
H             0.5696791356        0.0207251875        0.1517323573
C             0.9022364232        0.4793368770        0.0479243139
H             1.0011713039        0.5107741895        0.9734907497
C             0.9719940128        0.3985074330        0.1223839994
H             0.1283432673        0.3666504381        0.1071529599
C             0.0196636812        0.1175588160        0.0960319033
H             0.8626710389        0.1489784748        0.0782950240
C             0.3235861760        0.1207266200        0.2098306777
H             0.4186591037        0.1537520131        0.2873401122
C             0.6700492809        0.3969465588        0.2309020142
H             0.5739541510        0.3632441339        0.3051839659
C             0.5915508988        0.4784660442        0.1608305012
H             0.4352876452        0.5092646943        0.1803757897
C             0.7066115001        0.5233535923        0.0646482671
C             0.3761855085        0.9121306769        0.9557033965
C             0.6242096666        0.6123020853        0.9823778922



     Writing output data file ./NiPyC2_P1_relax.save/
     NEW-OLD atomic charge density approx. for the potential

     Check: negative core charge=   -0.000145

     total cpu time spent up to now is      639.1 secs

     Self-consistent Calculation

     iteration #  1     ecut=   100.00 Ry     beta= 0.70
     Davidson diagonalization with overlap
     ethr =  1.00E-06,  avg # of iterations = 14.0

     total cpu time spent up to now is      712.3 secs

     total energy              =    -811.06538211 Ry
     Harris-Foulkes estimate   =    -811.12686367 Ry
     estimated scf accuracy    <       0.18103243 Ry

     total magnetization       =     4.00 Bohr mag/cell
     absolute magnetization    =     4.08 Bohr mag/cell

     iteration #  2     ecut=   100.00 Ry     beta= 0.70
     Davidson diagonalization with overlap
     ethr =  9.05E-05,  avg # of iterations =  2.0

     total cpu time spent up to now is      728.7 secs

     total energy              =    -811.06628206 Ry
     Harris-Foulkes estimate   =    -811.07855779 Ry
     estimated scf accuracy    <       0.02818102 Ry

     total magnetization       =     4.00 Bohr mag/cell
     absolute magnetization    =     4.08 Bohr mag/cell

     iteration #  3     ecut=   100.00 Ry     beta= 0.70
     Davidson diagonalization with overlap
     ethr =  1.41E-05,  avg # of iterations =  2.0

     total cpu time spent up to now is      749.9 secs

     total energy              =    -811.06716083 Ry
     Harris-Foulkes estimate   =    -811.07211288 Ry
     estimated scf accuracy    <       0.02331733 Ry

     total magnetization       =     4.00 Bohr mag/cell
     absolute magnetization    =     4.09 Bohr mag/cell

     iteration #  4     ecut=   100.00 Ry     beta= 0.70
     Davidson diagonalization with overlap
     ethr =  1.17E-05,  avg # of iterations =  1.5

     total cpu time spent up to now is      766.3 secs

     total energy              =    -811.06874186 Ry
     Harris-Foulkes estimate   =    -811.07165057 Ry
     estimated scf accuracy    <       0.02946113 Ry

     total magnetization       =     4.00 Bohr mag/cell
     absolute magnetization    =     4.08 Bohr mag/cell

     iteration #  5     ecut=   100.00 Ry     beta= 0.70
     Davidson diagonalization with overlap
     ethr =  1.17E-05,  avg # of iterations =  1.0

     total cpu time spent up to now is      782.5 secs

     total energy              =    -811.06987452 Ry
     Harris-Foulkes estimate   =    -811.07023586 Ry
     estimated scf accuracy    <       0.00344534 Ry

     total magnetization       =     4.00 Bohr mag/cell
     absolute magnetization    =     4.08 Bohr mag/cell

     iteration #  6     ecut=   100.00 Ry     beta= 0.70
     Davidson diagonalization with overlap
     ethr =  1.72E-06,  avg # of iterations =  1.0

     total cpu time spent up to now is      798.7 secs

     total energy              =    -811.07006853 Ry
     Harris-Foulkes estimate   =    -811.07017078 Ry
     estimated scf accuracy    <       0.00139934 Ry

     total magnetization       =     4.00 Bohr mag/cell
     absolute magnetization    =     4.09 Bohr mag/cell

     iteration #  7     ecut=   100.00 Ry     beta= 0.70
     Davidson diagonalization with overlap
     ethr =  7.00E-07,  avg # of iterations =  1.0

     total cpu time spent up to now is      814.9 secs

     total energy              =    -811.07013644 Ry
     Harris-Foulkes estimate   =    -811.07013330 Ry
     estimated scf accuracy    <       0.00007648 Ry

     total magnetization       =     4.00 Bohr mag/cell
     absolute magnetization    =     4.08 Bohr mag/cell

     iteration #  8     ecut=   100.00 Ry     beta= 0.70
     Davidson diagonalization with overlap
     ethr =  3.82E-08,  avg # of iterations =  2.5

     total cpu time spent up to now is      831.7 secs

     total energy              =    -811.07014495 Ry
     Harris-Foulkes estimate   =    -811.07014207 Ry
     estimated scf accuracy    <       0.00004354 Ry

     total magnetization       =     4.00 Bohr mag/cell
     absolute magnetization    =     4.08 Bohr mag/cell

     iteration #  9     ecut=   100.00 Ry     beta= 0.70
     Davidson diagonalization with overlap
     ethr =  2.18E-08,  avg # of iterations =  2.5

     total cpu time spent up to now is      845.6 secs

     total energy              =    -811.07014807 Ry
     Harris-Foulkes estimate   =    -811.07014847 Ry
     estimated scf accuracy    <       0.00001861 Ry

     total magnetization       =     4.00 Bohr mag/cell
     absolute magnetization    =     4.08 Bohr mag/cell

     iteration # 10     ecut=   100.00 Ry     beta= 0.70
     Davidson diagonalization with overlap
     ethr =  9.30E-09,  avg # of iterations =  2.0

     total cpu time spent up to now is      855.7 secs

     total energy              =    -811.07014923 Ry
     Harris-Foulkes estimate   =    -811.07014915 Ry
     estimated scf accuracy    <       0.00000818 Ry

     total magnetization       =     4.00 Bohr mag/cell
     absolute magnetization    =     4.08 Bohr mag/cell

     iteration # 11     ecut=   100.00 Ry     beta= 0.70
     Davidson diagonalization with overlap
     ethr =  4.09E-09,  avg # of iterations =  2.5

     total cpu time spent up to now is      866.9 secs

     total energy              =    -811.07014967 Ry
     Harris-Foulkes estimate   =    -811.07014979 Ry
     estimated scf accuracy    <       0.00000412 Ry

     total magnetization       =     4.00 Bohr mag/cell
     absolute magnetization    =     4.08 Bohr mag/cell

     iteration # 12     ecut=   100.00 Ry     beta= 0.70
     Davidson diagonalization with overlap
     ethr =  2.06E-09,  avg # of iterations =  1.5

     total cpu time spent up to now is      880.8 secs

     total energy              =    -811.07014983 Ry
     Harris-Foulkes estimate   =    -811.07014990 Ry
     estimated scf accuracy    <       0.00000132 Ry

     total magnetization       =     4.00 Bohr mag/cell
     absolute magnetization    =     4.08 Bohr mag/cell

     iteration # 13     ecut=   100.00 Ry     beta= 0.70
     Davidson diagonalization with overlap
     ethr =  6.59E-10,  avg # of iterations =  2.5
 
     Magnetic moment per site:
     atom:    1    charge:    7.5140    magn:    1.2405    constr:    0.0000
     atom:    2    charge:    3.1148    magn:    0.0531    constr:    0.0000
     atom:    3    charge:    3.1121    magn:    0.0548    constr:    0.0000
     atom:    4    charge:    3.1134    magn:    0.0561    constr:    0.0000
     atom:    5    charge:    3.1138    magn:    0.0577    constr:    0.0000
     atom:    6    charge:    2.4392    magn:    0.0144    constr:    0.0000
     atom:    7    charge:    2.4351    magn:    0.0138    constr:    0.0000
     atom:    8    charge:    0.5906    magn:    0.0038    constr:    0.0000
     atom:    9    charge:    0.4118    magn:   -0.0003    constr:    0.0000
     atom:   10    charge:    0.5884    magn:    0.0038    constr:    0.0000
     atom:   11    charge:    0.5902    magn:    0.0039    constr:    0.0000
     atom:   12    charge:    0.4112    magn:   -0.0003    constr:    0.0000
     atom:   13    charge:    0.5905    magn:    0.0038    constr:    0.0000
     atom:   14    charge:    0.4120    magn:   -0.0003    constr:    0.0000
     atom:   15    charge:    0.5838    magn:    0.0031    constr:    0.0000
     atom:   16    charge:    0.4162    magn:   -0.0002    constr:    0.0000
     atom:   17    charge:    0.5848    magn:    0.0032    constr:    0.0000
     atom:   18    charge:    0.4174    magn:   -0.0003    constr:    0.0000
     atom:   19    charge:    0.5861    magn:    0.0034    constr:    0.0000
     atom:   20    charge:    0.4158    magn:    0.0002    constr:    0.0000
     atom:   21    charge:    0.5844    magn:    0.0034    constr:    0.0000
     atom:   22    charge:    0.4143    magn:    0.0001    constr:    0.0000
     atom:   23    charge:    0.5881    magn:    0.0037    constr:    0.0000
     atom:   24    charge:    0.4094    magn:   -0.0004    constr:    0.0000
     atom:   25    charge:    0.5880    magn:    0.0037    constr:    0.0000
     atom:   26    charge:    0.5555    magn:   -0.0016    constr:    0.0000
     atom:   27    charge:    0.5549    magn:   -0.0015    constr:    0.0000
     atom:   28    charge:    7.5144    magn:    1.2417    constr:    0.0000
     atom:   29    charge:    3.1112    magn:    0.0537    constr:    0.0000
     atom:   30    charge:    3.1132    magn:    0.0547    constr:    0.0000
     atom:   31    charge:    3.1124    magn:    0.0565    constr:    0.0000
     atom:   32    charge:    3.1127    magn:    0.0581    constr:    0.0000
     atom:   33    charge:    2.4410    magn:    0.0145    constr:    0.0000
     atom:   34    charge:    2.4335    magn:    0.0140    constr:    0.0000
     atom:   35    charge:    0.5898    magn:    0.0038    constr:    0.0000
     atom:   36    charge:    0.4117    magn:   -0.0003    constr:    0.0000
     atom:   37    charge:    0.5891    magn:    0.0038    constr:    0.0000
     atom:   38    charge:    0.5899    magn:    0.0039    constr:    0.0000
     atom:   39    charge:    0.4117    magn:   -0.0003    constr:    0.0000
     atom:   40    charge:    0.5899    magn:    0.0038    constr:    0.0000
     atom:   41    charge:    0.4117    magn:   -0.0003    constr:    0.0000
     atom:   42    charge:    0.5829    magn:    0.0031    constr:    0.0000
     atom:   43    charge:    0.4162    magn:   -0.0002    constr:    0.0000
     atom:   44    charge:    0.5833    magn:    0.0032    constr:    0.0000
     atom:   45    charge:    0.4173    magn:   -0.0003    constr:    0.0000
     atom:   46    charge:    0.5860    magn:    0.0034    constr:    0.0000
     atom:   47    charge:    0.4159    magn:    0.0002    constr:    0.0000
     atom:   48    charge:    0.5841    magn:    0.0034    constr:    0.0000
     atom:   49    charge:    0.4137    magn:    0.0001    constr:    0.0000
     atom:   50    charge:    0.5881    magn:    0.0037    constr:    0.0000
     atom:   51    charge:    0.4098    magn:   -0.0003    constr:    0.0000
     atom:   52    charge:    0.5891    magn:    0.0037    constr:    0.0000
     atom:   53    charge:    0.5551    magn:   -0.0016    constr:    0.0000
     atom:   54    charge:    0.5552    magn:   -0.0016    constr:    0.0000

     total cpu time spent up to now is      896.8 secs

     End of self-consistent calculation

 ------ SPIN UP ------------


          k = 0.0000 0.0000 0.0000 ( 45819 PWs)   bands (ev):

   -22.5413 -22.5332 -22.4421 -22.4357 -19.8765 -19.8613 -19.8147 -19.8082
   -19.8063 -19.8029 -19.7840 -19.7731 -15.9460 -15.8815 -15.8764 -15.8525
   -14.4377 -14.4044 -14.4017 -14.3642 -11.9981 -11.8803 -11.8654 -11.8512
   -11.1463 -11.1229 -11.0955 -11.0362  -9.6683  -9.4605  -9.4367  -9.3654
    -8.4317  -8.0032  -7.9606  -7.8983  -7.8040  -7.8013  -7.7255  -7.7161
    -7.0214  -6.9244  -6.8857  -6.8019  -6.7198  -6.6057  -6.4976  -6.4445
    -6.4010  -6.3726  -6.2320  -6.1840  -6.1623  -6.0613  -6.0200  -5.9757
    -5.9382  -5.8326  -5.6409  -5.5004  -5.4286  -5.3434  -5.2870  -5.2682
    -4.7482  -4.6492  -4.2499  -4.2392  -3.8092  -3.6812  -3.6352  -3.6105
    -3.5775  -3.5627  -3.5137  -3.4344  -3.4089  -3.3414  -3.3078  -3.2847
    -3.1756  -2.8642  -2.7842  -2.6689  -2.6384  -2.5997  -2.5952  -2.5224
    -2.4225  -2.4162  -2.3590  -2.3472  -2.2815  -2.2715  -2.2204  -2.1280
    -2.0825  -1.9925  -0.6682  -0.6291  -0.4429  -0.4257   1.9433   1.9576
     1.9885   2.0519   3.3893   3.4742   3.5195   3.6847   3.8530   4.1988
     4.4834   4.5559   4.7048   4.7416   4.9542   5.3101   5.6139   5.6854
     5.7658   5.8881

 ------ SPIN DOWN ----------


          k = 0.0000 0.0000 0.0000 ( 45819 PWs)   bands (ev):

   -22.4344 -22.4256 -22.3356 -22.3287 -19.8412 -19.8252 -19.7515 -19.7414
   -19.6806 -19.6715 -19.6666 -19.6633 -15.9064 -15.8424 -15.8372 -15.8125
   -14.4002 -14.3667 -14.3639 -14.3264 -11.9513 -11.8371 -11.8196 -11.8088
   -11.1150 -11.0918 -11.0650 -11.0063  -9.6357  -9.4294  -9.4069  -9.3334
    -8.3649  -7.9309  -7.9140  -7.8434  -7.7584  -7.7359  -7.6868  -7.6396
    -6.8956  -6.8310  -6.7470  -6.6930  -6.6258  -6.4841  -6.3945  -6.3355
    -6.3063  -6.2251  -6.1500  -6.1061  -6.0836  -6.0309  -5.9826  -5.9492
    -5.8826  -5.7554  -5.5918  -5.4735  -5.3810  -5.2671  -5.2656  -5.2512
    -4.6052  -4.0755  -3.7980  -3.7784  -3.5968  -3.5456  -3.5422  -3.5044
    -3.4649  -3.2796  -3.2376  -3.2109  -2.9117  -2.9002  -2.8092  -2.7977
    -2.7240  -2.6081  -2.5086  -2.4866  -2.4335  -2.4119  -2.2291  -2.1885
    -2.1597  -2.0718  -2.0414  -1.9035  -1.7385  -1.4788  -1.4677  -1.4537
    -1.4334  -1.3202   0.1690   0.1791   0.3387   0.3599   2.0454   2.0469
     2.1069   2.1423   3.4483   3.5185   3.5926   3.7600   3.9310   4.2415
     4.5266   4.6125   4.7740   4.7975   5.0054   5.3545   5.6593   5.7134
     5.8128   5.9479

     the spin up/dw Fermi energies are    -0.0381   -0.3431 ev

!    total energy              =    -811.07014987 Ry
     Harris-Foulkes estimate   =    -811.07014994 Ry
     estimated scf accuracy    <       0.00000035 Ry

     The total energy is the sum of the following terms:

     one-electron contribution =   -1221.44657247 Ry
     hartree contribution      =     680.83463327 Ry
     xc contribution           =    -247.81228327 Ry
     ewald contribution        =     -23.86152109 Ry
     Dispersion Correction     =      -0.20104117 Ry
     smearing contrib. (-TS)   =       1.41663487 Ry

     total magnetization       =     4.00 Bohr mag/cell
     absolute magnetization    =     4.08 Bohr mag/cell

     convergence has been achieved in  13 iterations

     Forces acting on atoms (cartesian axes, Ry/au):

     atom    1 type  2   force =    -0.00793013   -0.00792601   -0.03293255
     atom    2 type  3   force =    -0.02870928   -0.02188295   -0.00374851
     atom    3 type  3   force =     0.02962772    0.02291133    0.00094783
     atom    4 type  3   force =     0.01662067   -0.02019169   -0.02374031
     atom    5 type  3   force =    -0.01501140    0.02784176   -0.02076758
     atom    6 type  4   force =    -0.02034658   -0.02405602    0.02750402
     atom    7 type  4   force =     0.00877740    0.01957939    0.02309754
     atom    8 type  5   force =    -0.01793894    0.06951757   -0.09839972
     atom    9 type  6   force =    -0.02225240    0.00446528   -0.01592201
     atom   10 type  5   force =     0.01463896    0.03761574   -0.01998408
     atom   11 type  5   force =     0.10341868    0.07064662   -0.02507518
     atom   12 type  6   force =     0.02212288    0.00241529    0.01297910
     atom   13 type  5   force =     0.02206621   -0.07436629   -0.09118564
     atom   14 type  6   force =     0.02232013   -0.00302264   -0.01418082
     atom   15 type  5   force =     0.10052209    0.07741666    0.01353233
     atom   16 type  6   force =     0.02280046    0.01108621   -0.00195641
     atom   17 type  5   force =    -0.10746415   -0.07635464    0.01826827
     atom   18 type  6   force =    -0.02772477   -0.00897530   -0.00031669
     atom   19 type  5   force =     0.02271610   -0.07436891    0.09949491
     atom   20 type  6   force =     0.01472324   -0.01021990    0.02434422
     atom   21 type  5   force =    -0.02254546    0.08382573    0.09565430
     atom   22 type  6   force =    -0.01466431    0.01286009    0.02160792
     atom   23 type  5   force =    -0.09571816   -0.07867088   -0.01934174
     atom   24 type  6   force =    -0.01917057    0.00050939    0.01102459
     atom   25 type  5   force =    -0.01787601   -0.03758040   -0.02621496
     atom   26 type  5   force =    -0.00606084   -0.02774951    0.01179365
     atom   27 type  5   force =     0.00538797    0.02907482    0.01679387
     atom   28 type  1   force =     0.02710858    0.00784769    0.00335359
     atom   29 type  3   force =    -0.02944418    0.02149697   -0.00402619
     atom   30 type  3   force =     0.02982091   -0.02297088   -0.00036562
     atom   31 type  3   force =     0.01568281    0.02049440   -0.02468418
     atom   32 type  3   force =    -0.01579977   -0.02703562   -0.02215008
     atom   33 type  4   force =    -0.01989562    0.02309752    0.02792821
     atom   34 type  4   force =     0.00930073   -0.01973304    0.02387334
     atom   35 type  5   force =    -0.01775802   -0.06977118   -0.09841638
     atom   36 type  6   force =    -0.02222738   -0.00446487   -0.01588663
     atom   37 type  5   force =     0.01462569   -0.03759877   -0.01988374
     atom   38 type  5   force =     0.10329281   -0.07067071   -0.02513120
     atom   39 type  6   force =     0.02217701   -0.00242678    0.01298857
     atom   40 type  5   force =     0.02181873    0.07442519   -0.09128464
     atom   41 type  6   force =     0.02236259    0.00306332   -0.01425146
     atom   42 type  5   force =     0.10023159   -0.07782036    0.01411958
     atom   43 type  6   force =     0.02283036   -0.01104289   -0.00198237
     atom   44 type  5   force =    -0.10776852    0.07655146    0.01856476
     atom   45 type  6   force =    -0.02766804    0.00892910   -0.00026652
     atom   46 type  5   force =     0.02269166    0.07410844    0.09922946
     atom   47 type  6   force =     0.01477229    0.01016122    0.02436013
     atom   48 type  5   force =    -0.02184106   -0.08419339    0.09575379
     atom   49 type  6   force =    -0.01471332   -0.01258150    0.02161384
     atom   50 type  5   force =    -0.09567392    0.07889872   -0.01945108
     atom   51 type  6   force =    -0.01922571   -0.00047269    0.01103106
     atom   52 type  5   force =    -0.01791188    0.03747293   -0.02605937
     atom   53 type  5   force =    -0.00441049    0.02756304    0.01228300
     atom   54 type  5   force =     0.00529266   -0.02772805    0.01546378

     Total force =     0.546766     Total SCF correction =     0.000785

     number of scf cycles    =   3
     number of bfgs steps    =   1

     energy   old            =    -810.6855149061 Ry
     energy   new            =    -811.0701498685 Ry

     CASE: energy  _new < energy  _old

     new trust radius        =       0.0866644130 bohr
     new conv_thr            =       0.0000010000 Ry


ATOMIC_POSITIONS (crystal)
Ni2           0.4935634121        0.7534331532        0.8367974707
O             0.2383336589        0.3478945284        0.3919652736
O             0.7578887345        0.1349274981        0.3696422987
O             0.9360050598        0.3503820315        0.4957185498
O             0.0671494877        0.1220327360        0.4728427979
N             0.6254418048        0.8415750233        0.6979439330
N             0.3617165697        0.6469349275        0.7166745305
C             0.5942985444        0.9601313394        0.5140253905
H             0.4902421833        0.9886871807        0.4372575412
C             0.7949687126        0.9996930255        0.5331414876
C             0.9131488882        0.9560825535        0.6318359894
H             0.0747409820        0.9798915174        0.6527656019
C             0.4017962438        0.5184233704        0.5451107707
H             0.5049889880        0.4884813620        0.4713077233
C             0.4766279714        0.6037997031        0.6232483980
H             0.6333455619        0.6344970085        0.6067978235
C             0.5145106267        0.8801173734        0.5972344083
H             0.3572248140        0.8499797447        0.5779936424
C             0.8237085166        0.8770412819        0.7130085623
H             0.9217237516        0.8451289239        0.7901490962
C             0.1704931631        0.6056961161        0.7339633132
H             0.0709787481        0.6380153889        0.8077747047
C             0.0875037752        0.5190172828        0.6593140701
H             0.9305475482        0.4901274387        0.6813348369
C             0.2047590971        0.4751059199        0.5634628420
C             0.8750951900        0.0863192037        0.4564926671
C             0.1254365196        0.3893253358        0.4834620809
Ni1           0.9978391007        0.2465358961        0.3393798541
O             0.7382675705        0.6520942470        0.8919224702
O             0.2579528903        0.8650639085        0.8695547841
O             0.4359080601        0.6496378342        0.9956478125
O             0.5671248419        0.8780035475        0.9727330675
N             0.1254492154        0.1583691028        0.1979648688
N             0.8617517246        0.3530635784        0.2167158544
C             0.0943084738        0.0398612447        0.0140244083
H            -0.0097554857        0.0113135799        0.9372594642
C             0.2949679781        0.0003103437        0.0331488426
C             0.4131496426        0.0439193380        0.1318330647
H             0.5747451651        0.0201089348        0.1527662761
C             0.9017821177        0.4815785087        0.0451025156
H             1.0049927227        0.5115209482        0.9713036202
C             0.9766080597        0.3961895295        0.1232745389
H             0.1333495556        0.3655056504        0.1067961786
C             0.0144859699        0.1198881967        0.0972499972
H             0.8572306227        0.1500184863        0.0779962485
C             0.3237110854        0.1229526916        0.2130005327
H             0.4217198512        0.1548645259        0.2901438630
C             0.6705398695        0.3942961871        0.2339735869
H             0.5709792476        0.3620036577        0.3077706802
C             0.5875007270        0.4809930418        0.1593092159
H             0.4305432820        0.5098751332        0.1813354650
C             0.7047605975        0.5248882968        0.0634712532
C             0.3752279542        0.9136762393        0.9565166781
C             0.6254206069        0.6107263833        0.9833990543



     Writing output data file ./NiPyC2_P1_relax.save/
     NEW-OLD atomic charge density approx. for the potential

     Check: negative core charge=   -0.000145

     total cpu time spent up to now is      914.4 secs

     Self-consistent Calculation

     iteration #  1     ecut=   100.00 Ry     beta= 0.70
     Davidson diagonalization with overlap
     ethr =  1.00E-06,  avg # of iterations =  8.0

     total cpu time spent up to now is      978.6 secs

     total energy              =    -811.14637871 Ry
[...]
     Davidson diagonalization with overlap
     ethr =  1.41E-09,  avg # of iterations =  1.0

     total cpu time spent up to now is    10092.2 secs

     total energy              =    -811.25584483 Ry
     Harris-Foulkes estimate   =    -811.25584504 Ry
     estimated scf accuracy    <       0.00000268 Ry

     total magnetization       =     4.00 Bohr mag/cell
     absolute magnetization    =     4.12 Bohr mag/cell

     iteration #  6     ecut=   100.00 Ry     beta= 0.70
     Davidson diagonalization with overlap
     ethr =  1.34E-09,  avg # of iterations =  1.0

     total cpu time spent up to now is    10108.5 secs

     total energy              =    -811.25584495 Ry
     Harris-Foulkes estimate   =    -811.25584495 Ry
     estimated scf accuracy    <       0.00000011 Ry

     total magnetization       =     4.00 Bohr mag/cell
     absolute magnetization    =     4.12 Bohr mag/cell

     iteration #  7     ecut=   100.00 Ry     beta= 0.70
     Davidson diagonalization with overlap
     ethr =  5.28E-11,  avg # of iterations =  3.0

     total cpu time spent up to now is    10122.1 secs

     total energy              =    -811.25584496 Ry
     Harris-Foulkes estimate   =    -811.25584497 Ry
     estimated scf accuracy    <       0.00000006 Ry

     total magnetization       =     4.00 Bohr mag/cell
     absolute magnetization    =     4.12 Bohr mag/cell

     iteration #  8     ecut=   100.00 Ry     beta= 0.70
     Davidson diagonalization with overlap
     ethr =  2.99E-11,  avg # of iterations =  1.5

     total cpu time spent up to now is    10132.9 secs

     total energy              =    -811.25584496 Ry
     Harris-Foulkes estimate   =    -811.25584497 Ry
     estimated scf accuracy    <       0.00000002 Ry

     total magnetization       =     4.00 Bohr mag/cell
     absolute magnetization    =     4.12 Bohr mag/cell

     iteration #  9     ecut=   100.00 Ry     beta= 0.70
     Davidson diagonalization with overlap
     ethr =  8.52E-12,  avg # of iterations =  2.5
 
     Magnetic moment per site:
     atom:    1    charge:    7.5219    magn:    1.1537    constr:    0.0000
     atom:    2    charge:    3.0698    magn:    0.0593    constr:    0.0000
     atom:    3    charge:    2.8604    magn:    0.0559    constr:    0.0000
     atom:    4    charge:    2.9013    magn:    0.0583    constr:    0.0000
     atom:    5    charge:    2.8125    magn:    0.0576    constr:    0.0000
     atom:    6    charge:    2.2907    magn:    0.0154    constr:    0.0000
     atom:    7    charge:    2.3427    magn:    0.0149    constr:    0.0000
     atom:    8    charge:    0.5322    magn:    0.0050    constr:    0.0000
     atom:    9    charge:    0.4030    magn:   -0.0008    constr:    0.0000
     atom:   10    charge:    0.5107    magn:    0.0038    constr:    0.0000
     atom:   11    charge:    0.4904    magn:    0.0053    constr:    0.0000
     atom:   12    charge:    0.3243    magn:   -0.0006    constr:    0.0000
     atom:   13    charge:    0.5289    magn:    0.0044    constr:    0.0000
     atom:   14    charge:    0.4030    magn:   -0.0005    constr:    0.0000
     atom:   15    charge:    0.5274    magn:    0.0037    constr:    0.0000
     atom:   16    charge:    0.4325    magn:   -0.0005    constr:    0.0000
     atom:   17    charge:    0.5361    magn:    0.0042    constr:    0.0000
     atom:   18    charge:    0.4110    magn:   -0.0006    constr:    0.0000
     atom:   19    charge:    0.5078    magn:    0.0045    constr:    0.0000
     atom:   20    charge:    0.3661    magn:   -0.0001    constr:    0.0000
     atom:   21    charge:    0.5584    magn:    0.0038    constr:    0.0000
     atom:   22    charge:    0.3813    magn:   -0.0005    constr:    0.0000
     atom:   23    charge:    0.5526    magn:    0.0044    constr:    0.0000
     atom:   24    charge:    0.3754    magn:   -0.0010    constr:    0.0000
     atom:   25    charge:    0.5442    magn:    0.0033    constr:    0.0000
     atom:   26    charge:    0.5098    magn:   -0.0014    constr:    0.0000
     atom:   27    charge:    0.5369    magn:   -0.0015    constr:    0.0000
     atom:   28    charge:    7.5243    magn:    1.1522    constr:    0.0000
     atom:   29    charge:    3.0469    magn:    0.0609    constr:    0.0000
     atom:   30    charge:    2.8693    magn:    0.0566    constr:    0.0000
     atom:   31    charge:    2.8240    magn:    0.0583    constr:    0.0000
     atom:   32    charge:    2.7265    magn:    0.0558    constr:    0.0000
     atom:   33    charge:    2.2979    magn:    0.0155    constr:    0.0000
     atom:   34    charge:    2.3491    magn:    0.0153    constr:    0.0000
     atom:   35    charge:    0.5347    magn:    0.0050    constr:    0.0000
     atom:   36    charge:    0.4039    magn:   -0.0008    constr:    0.0000
     atom:   37    charge:    0.5097    magn:    0.0038    constr:    0.0000
     atom:   38    charge:    0.4866    magn:    0.0054    constr:    0.0000
     atom:   39    charge:    0.3198    magn:   -0.0005    constr:    0.0000
     atom:   40    charge:    0.5352    magn:    0.0044    constr:    0.0000
     atom:   41    charge:    0.4131    magn:   -0.0005    constr:    0.0000
     atom:   42    charge:    0.5374    magn:    0.0036    constr:    0.0000
     atom:   43    charge:    0.4548    magn:   -0.0006    constr:    0.0000
     atom:   44    charge:    0.5403    magn:    0.0042    constr:    0.0000
     atom:   45    charge:    0.4110    magn:   -0.0007    constr:    0.0000
     atom:   46    charge:    0.5058    magn:    0.0045    constr:    0.0000
     atom:   47    charge:    0.3695    magn:   -0.0001    constr:    0.0000
     atom:   48    charge:    0.5587    magn:    0.0037    constr:    0.0000
     atom:   49    charge:    0.3741    magn:   -0.0005    constr:    0.0000
     atom:   50    charge:    0.5541    magn:    0.0044    constr:    0.0000
     atom:   51    charge:    0.3747    magn:   -0.0010    constr:    0.0000
     atom:   52    charge:    0.5450    magn:    0.0033    constr:    0.0000
     atom:   53    charge:    0.5053    magn:   -0.0014    constr:    0.0000
     atom:   54    charge:    0.5283    magn:   -0.0016    constr:    0.0000

     total cpu time spent up to now is    10143.2 secs

     End of self-consistent calculation

 ------ SPIN UP ------------


          k = 0.0000 0.0000 0.0000 ( 45819 PWs)   bands (ev):

   -22.5995 -22.5909 -22.4693 -22.4641 -19.5731 -19.5580 -19.5530 -19.5413
   -19.2611 -19.2387 -19.1508 -19.1381 -15.5146 -15.4408 -15.4264 -15.4038
   -14.1858 -14.1436 -14.1305 -14.0812 -11.7855 -11.6494 -11.6251 -11.6024
   -11.0514 -11.0239 -11.0044 -10.9336  -9.3946  -9.1629  -9.1456  -9.0789
    -8.3160  -7.8525  -7.7377  -7.7030  -7.5544  -7.5098  -7.4934  -7.4094
    -6.9254  -6.7379  -6.7234  -6.6866  -6.6290  -6.6010  -6.4446  -6.3852
    -6.3489  -6.3412  -6.2581  -6.2334  -6.2225  -6.1723  -6.1482  -5.9416
    -5.6687  -5.5953  -5.5411  -5.4827  -5.2722  -5.2329  -5.2138  -5.0108
    -4.7370  -4.5819  -4.2469  -4.0814  -4.0086  -3.9327  -3.9232  -3.8071
    -3.6523  -3.5728  -3.5694  -3.5465  -3.2549  -3.2454  -3.2175  -3.2093
    -2.9830  -2.7167  -2.6059  -2.5392  -2.5170  -2.5124  -2.4999  -2.3729
    -2.2333  -2.2141  -2.1998  -2.1302  -2.1159  -2.0913  -2.0294  -1.9572
    -1.9072  -1.7995  -0.3239  -0.2763  -0.0360  -0.0135   1.8964   1.9125
     1.9378   2.0212   2.9637   3.1100   3.2455   3.4267   3.5283   4.2393
     4.3943   4.4605   4.6156   4.6365   4.9863   5.3464   5.6424   5.7348
     5.8988   6.0639

 ------ SPIN DOWN ----------


          k = 0.0000 0.0000 0.0000 ( 45819 PWs)   bands (ev):

   -22.4794 -22.4691 -22.3500 -22.3431 -19.4189 -19.4008 -19.3982 -19.3847
   -19.2216 -19.1991 -19.1120 -19.0989 -15.4712 -15.3982 -15.3833 -15.3599
   -14.1426 -14.1001 -14.0870 -14.0373 -11.7347 -11.6028 -11.5754 -11.5564
   -11.0166 -10.9895 -10.9708 -10.9005  -9.3592  -9.1283  -9.1149  -9.0469
    -8.2413  -7.7665  -7.6775  -7.6225  -7.4908  -7.4484  -7.4086  -7.3610
    -6.7933  -6.6336  -6.5766  -6.5451  -6.5127  -6.4924  -6.3528  -6.3305
    -6.2870  -6.2733  -6.1623  -6.1507  -6.1375  -6.0734  -6.0475  -5.8465
    -5.5829  -5.5699  -5.5207  -5.4064  -5.2416  -5.2052  -5.1234  -4.9183
    -4.5840  -4.0453  -4.0264  -3.9913  -3.9116  -3.8796  -3.7261  -3.5510
    -3.4129  -3.3083  -3.1424  -3.1191  -2.8571  -2.8088  -2.7333  -2.7239
    -2.6416  -2.4152  -2.3693  -2.3401  -2.3320  -2.2794  -2.0164  -2.0010
    -1.9084  -1.8822  -1.8529  -1.7111  -1.6758  -1.3549  -1.3452  -1.3294
    -1.3228  -1.1985   0.4631   0.4944   0.6795   0.7239   2.0012   2.0335
     2.0763   2.1287   3.0585   3.2073   3.3433   3.5286   3.5667   4.2962
     4.4661   4.5219   4.7015   4.7100   5.0374   5.3950   5.6800   5.7710
     5.9359   6.1234

     the spin up/dw Fermi energies are     0.1647   -0.1989 ev

!    total energy              =    -811.25584496 Ry
     Harris-Foulkes estimate   =    -811.25584496 Ry
     estimated scf accuracy    <          6.5E-09 Ry

     The total energy is the sum of the following terms:

     one-electron contribution =   -1218.48996036 Ry
     hartree contribution      =     679.55469059 Ry
     xc contribution           =    -246.42826225 Ry
     ewald contribution        =     -27.06452880 Ry
     Dispersion Correction     =      -0.20859013 Ry
     smearing contrib. (-TS)   =       1.38080597 Ry

     total magnetization       =     4.00 Bohr mag/cell
     absolute magnetization    =     4.12 Bohr mag/cell

     convergence has been achieved in   9 iterations

     Forces acting on atoms (cartesian axes, Ry/au):

     atom    1 type  2   force =    -0.00022866    0.00026619    0.00003440
     atom    2 type  3   force =     0.00002458   -0.00010801   -0.00015463
     atom    3 type  3   force =     0.00001825    0.00061395   -0.00020384
     atom    4 type  3   force =     0.00078671   -0.00033259   -0.00009386
     atom    5 type  3   force =    -0.00043310    0.00041311   -0.00029694
     atom    6 type  4   force =    -0.00037661    0.00043005    0.00064463
     atom    7 type  4   force =     0.00001605    0.00004489   -0.00021941
     atom    8 type  5   force =    -0.00027750   -0.00029911    0.00003454
     atom    9 type  6   force =     0.00008456    0.00022588    0.00022505
     atom   10 type  5   force =     0.00022876   -0.00019974    0.00049728
     atom   11 type  5   force =    -0.00053213   -0.00032869   -0.00008740
     atom   12 type  6   force =     0.00018835   -0.00014271    0.00061695
     atom   13 type  5   force =     0.00064438   -0.00013552   -0.00014408
     atom   14 type  6   force =    -0.00023785    0.00007374    0.00030761
     atom   15 type  5   force =    -0.00039188    0.00022910    0.00015915
     atom   16 type  6   force =    -0.00012737   -0.00023247    0.00017913
     atom   17 type  5   force =    -0.00001783   -0.00050559    0.00000742
     atom   18 type  6   force =     0.00007446    0.00050851   -0.00025053
     atom   19 type  5   force =     0.00027168   -0.00044708   -0.00002983
     atom   20 type  6   force =    -0.00018060   -0.00024522   -0.00026788
     atom   21 type  5   force =     0.00004178    0.00001063   -0.00024168
     atom   22 type  6   force =     0.00077809    0.00010208   -0.00016036
     atom   23 type  5   force =     0.00012567   -0.00037138    0.00010984
     atom   24 type  6   force =     0.00011937    0.00031862    0.00002858
     atom   25 type  5   force =    -0.00017340    0.00033035   -0.00005694
     atom   26 type  5   force =     0.00042116   -0.00062156    0.00048988
     atom   27 type  5   force =     0.00007093    0.00031767   -0.00074802
     atom   28 type  1   force =     0.00025333   -0.00089593   -0.00000608
     atom   29 type  3   force =    -0.00098010    0.00051783    0.00002188
     atom   30 type  3   force =     0.00028252    0.00041904    0.00018651
     atom   31 type  3   force =    -0.00043222    0.00052682    0.00069900
     atom   32 type  3   force =     0.00028339   -0.00062431    0.00006588
     atom   33 type  4   force =    -0.00029671   -0.00025848    0.00065757
     atom   34 type  4   force =     0.00013569    0.00009378    0.00004947
     atom   35 type  5   force =     0.00014999    0.00020871    0.00011323
     atom   36 type  6   force =     0.00029004   -0.00043249    0.00007778
     atom   37 type  5   force =    -0.00030078    0.00033479    0.00022621
     atom   38 type  5   force =     0.00001335    0.00000167    0.00003297
     atom   39 type  6   force =    -0.00038570    0.00038201    0.00022973
     atom   40 type  5   force =     0.00033177   -0.00004080   -0.00008679
     atom   41 type  6   force =     0.00024030    0.00003154    0.00016051
     atom   42 type  5   force =    -0.00026342   -0.00030220   -0.00028106
     atom   43 type  6   force =     0.00020939   -0.00027049    0.00012204
     atom   44 type  5   force =     0.00019861    0.00043620    0.00012441
     atom   45 type  6   force =    -0.00025119   -0.00075762   -0.00031505
     atom   46 type  5   force =    -0.00003222    0.00055433   -0.00031271
     atom   47 type  6   force =    -0.00028782    0.00017984   -0.00023688
     atom   48 type  5   force =    -0.00011053   -0.00024929   -0.00023889
     atom   49 type  6   force =    -0.00002893    0.00006964   -0.00015941
     atom   50 type  5   force =     0.00033763    0.00002240   -0.00020678
     atom   51 type  6   force =     0.00011693    0.00027841   -0.00048513
     atom   52 type  5   force =    -0.00021890   -0.00052046    0.00010038
     atom   53 type  5   force =    -0.00010792    0.00034996   -0.00061500
     atom   54 type  5   force =    -0.00006433    0.00003002   -0.00030286

     Total force =     0.004205     Total SCF correction =     0.000183

     bfgs converged in  48 scf cycles and  46 bfgs steps
     (criteria: energy <  1.0E-04 Ry, force <  1.0E-03 Ry/Bohr)

     End of BFGS Geometry Optimization

     Final energy   =    -811.2558449637 Ry
Begin final coordinates

ATOMIC_POSITIONS (crystal)
Ni2           0.4940094559        0.7513940083        0.8363193605
O             0.2456454458        0.3477640174        0.3827150822
O             0.7551533778        0.1475885387        0.3772684834
O             0.9463251949        0.3561316562        0.4830305814
O             0.0577552345        0.1351241409        0.4810573301
N             0.6168598666        0.8512616307        0.7049475334
N             0.3729394395        0.6503922979        0.7057275320
C             0.5763969362        0.9701161945        0.5221125541
H             0.4741150155        0.9996157562        0.4432546689
C             0.7811645026        1.0119200412        0.5466714756
C             0.9038366067        0.9702883433        0.6505387500
H             0.0641327333        0.9988767667        0.6736153183
C             0.4163759025        0.5298077236        0.5262854853
H             0.5175572416        0.5009181177        0.4492518424
C             0.4902578477        0.6133964183        0.6063527430
H             0.6452340466        0.6506198335        0.5926854410
C             0.4988931781        0.8892547727        0.6033269400
H             0.3402144955        0.8551478451        0.5886719384
C             0.8158975154        0.8894524328        0.7277373613
H             0.9069426194        0.8552384030        0.8088928089
C             0.1777443340        0.6089267811        0.7273045436
H             0.0873579813        0.6429080445        0.8065002852
C             0.0940102363        0.5250592152        0.6511779139
H             0.9374945161        0.4931242060        0.6731858244
C             0.2164221434        0.4843484964        0.5499332359
C             0.8665145557        0.0994721600        0.4667189469
C             0.1349435926        0.3945155626        0.4705716125
Ni1           0.9999130930        0.2479809640        0.3391804347
O             0.7423716512        0.6509969052        0.8811965942
O             0.2502099185        0.8523363765        0.8762903031
O             0.4424519350        0.6414003393        0.9800151422
O             0.5533936593        0.8628412957        0.9794617496
N             0.1212964019        0.1488773360        0.2060260935
N             0.8774089219        0.3508407167        0.2079110383
C             0.0767769189        0.0309889105        0.0224078885
H            -0.0268542488        0.0025743999        0.9435814326
C             0.2804781203       -0.0123787497        0.0463652036
C             0.4049387752        0.0283155677        0.1500909189
H             0.5646525811       -0.0013793825        0.1727652573
C             0.9172847611        0.4712874558        0.0277041831
H             1.0177881750        0.5003808528        0.9504877227
C             0.9936283544        0.3885466392        0.1085208436
H             0.1498606437        0.3526576488        0.0949966085
C             0.0020513497        0.1121325042        0.1042532077
H             0.8445691728        0.1476064506        0.0899128384
C             0.3196166094        0.1094901813        0.2279635662
H             0.4123540263        0.1430608948        0.3088666640
C             0.6816743576        0.3916784848        0.2292935750
H             0.5923818815        0.3575689630        0.3088396002
C             0.5953544811        0.4747507733        0.1525677488
H             0.4379514333        0.5054005217        0.1749366445
C             0.7158778031        0.5155817294        0.0504353431
C             0.3629762046        0.8996400264        0.9658413310
C             0.6321990032        0.6041587899        0.9690924737
End final coordinates



     Writing output data file ./NiPyC2_P1_relax.save/
 
     init_run     :     15.67s CPU     16.76s WALL (       1 calls)
     electrons    :   8606.75s CPU   9320.30s WALL (      48 calls)
     update_pot   :    375.35s CPU    401.78s WALL (      47 calls)
     forces       :    380.50s CPU    398.25s WALL (      48 calls)

     Called by init_run:
     wfcinit      :      7.92s CPU      8.54s WALL (       1 calls)
     potinit      :      3.45s CPU      3.74s WALL (       1 calls)
     hinit0       :      3.67s CPU      3.81s WALL (       1 calls)

     Called by electrons:
     c_bands      :   7298.52s CPU   7799.94s WALL (     502 calls)
     sum_band     :    565.09s CPU    659.69s WALL (     502 calls)
     v_of_rho     :    370.66s CPU    412.67s WALL (     541 calls)
     mix_rho      :    379.61s CPU    441.94s WALL (     502 calls)

     Called by c_bands:
     init_us_2    :     12.53s CPU     13.01s WALL (    1005 calls)
     regterg      :   7276.34s CPU   7756.62s WALL (     502 calls)

     Called by sum_band:

     Called by *egterg:
     h_psi        :   3267.53s CPU   3639.16s WALL (    1743 calls)
     g_psi        :      3.91s CPU      3.93s WALL (    1240 calls)
     rdiaghg      :    139.79s CPU    143.18s WALL (    1686 calls)

     Called by h_psi:
     h_psi:calbec :    663.01s CPU    679.00s WALL (    1743 calls)
     vloc_psi     :   1927.02s CPU   2280.83s WALL (    1743 calls)
     add_vuspsi   :    664.24s CPU    665.99s WALL (    1743 calls)

     General routines
     calbec       :    771.58s CPU    789.70s WALL (    1935 calls)
     fft          :    270.94s CPU    339.16s WALL (    8660 calls)
     ffts         :    266.93s CPU    312.85s WALL (    8571 calls)
     fftw         :   2010.60s CPU   2438.90s WALL (  174398 calls)
 
     Parallel routines
     fft_scatt_xy :    630.35s CPU    634.21s WALL (  191629 calls)
     fft_scatt_yz :    556.50s CPU   1083.30s WALL (  191629 calls)
 
     PWSCF        :      2h36m CPU      2h49m WALL

 
   This run was terminated on:  21:40:40  29May2020            

=------------------------------------------------------------------------------=
   JOB DONE.
=------------------------------------------------------------------------------=
QE finished Fri May 29 21:40:40 PDT 2020
