Created on Wed Apr 06 13:49:15 2022 

        2431 atoms
        2880 bonds
        5490 angles
        5760 dihedrals
        3780 impropers

           6 atom types
           7 bond types
          13 angle types
           3 dihedral types
           1 improper types
           0.000000  31.264000 xlo xhi
           0.000000  37.570200 ylo yhi
           0.000000  30.822838 zlo zhi
           0.000000  -0.682783   0.000000 xy xz yz

Masses

    1    58.693400000 # Ni4+2
    2    15.999400000 # O_R
    3    14.006700000 # N_R
    4    12.010700000 # C_R
    5     1.007940000 # H_
    6    83.798000000 # Kr4+4

Bond Coeffs

    1      328.673665        1.841585  # Ni4+2 N_R
    2      321.720028        1.793457  # Ni4+2 O_R
    3      646.680887        1.311940  # O_R C_R
    4      663.718927        1.345073  # N_R C_R
    5      357.440381        1.081418  # C_R H_
    6      462.655054        1.379256  # C_R C_R
    7      391.669513        1.458000  # C_R C_R

Angle Coeffs

    1      182.482830               1               4 # N_R Ni4+2 N_R
    2      171.515475               1               4 # N_R Ni4+2 O_R
    3      161.490108               1               4 # O_R Ni4+2 O_R
    4      119.173173              -1               3 # C_R O_R Ni4+2
    5       88.904516              -1               3 # Ni4+2 N_R C_R
    6      120.000516              -1               3 # C_R N_R C_R
    7       57.289016              -1               3 # H_ C_R C_R
    8      111.297508              -1               3 # C_R C_R C_R
    9      102.183280              -1               3 # C_R C_R C_R
   10      153.699352              -1               3 # N_R C_R C_R
   11       79.786967              -1               3 # N_R C_R H_
   12      187.136328              -1               3 # O_R C_R O_R
   13      131.755710              -1               3 # O_R C_R C_R

Dihedral Coeffs

    1        6.737110              -1               2 # Ni4+2 O_R C_R O_R
    2        3.368555              -1               2 # Ni4+2 N_R C_R C_R
    3        1.250000              -1               2 # C_R C_R C_R O_R

Improper Coeffs

    1        2.000000        1.000000       -1.000000        0.000000               0 # Ni4+2 N_R C_R C_R

Pair Coeffs

    1        0.015000        2.524807 # Ni4+2 Ni4+2
    2        0.060000        3.118146 # O_R O_R
    3        0.069000        3.260689 # N_R N_R
    4        0.105000        3.430851 # C_R C_R
    5        0.044000        2.571134 # H_ H_
    6        0.220000        3.689212 # Kr4+4 Kr4+4

Atoms

       1      444        1     0.00000    2.90284    9.44214    8.62454
       2      444        2     0.00000    1.41938    4.37843    4.03676
       3      444        2     0.00000    4.63598    1.66661    3.80354
       4      444        2     0.00000    5.74507    4.41112    5.10940
       5      444        2     0.00000    0.30789    1.50030    4.87206
       6      444        3     0.00000    3.76768   10.55597    7.15295
       7      444        3     0.00000    2.09513    8.09137    7.34714
       8      444        4     0.00000    3.55855   12.01370    5.27482
       9      444        5     0.00000    3.02658   12.35058    4.56281
      10      444        4     0.00000    4.83825   12.49835    5.48338
      11      444        4     0.00000    5.58983   11.95484    6.52828
      12      444        5     0.00000    0.22837   12.24538    6.68342
      13      444        4     0.00000    2.42543    6.50090    5.59024
      14      444        5     0.00000    2.98702    6.14899    4.90905
      15      444        4     0.00000    2.86172    7.55411    6.38752
      16      444        5     0.00000    3.73275    7.90602    6.24573
      17      444        4     0.00000    3.06289   11.03186    6.11320
      18      444        5     0.00000    2.19487   10.68246    5.94984
      19      444        4     0.00000    5.01801   10.99179    7.33275
      20      444        5     0.00000    5.53257   10.62360    8.04065
      21      444        4     0.00000    0.86139    7.57040    7.54749
      22      444        5     0.00000    0.31361    7.94735    8.22662
      23      444        4     0.00000    0.36568    6.51593    6.80774
      24      444        5     0.00000    5.75184    6.16777    6.97726
      25      444        4     0.00000    1.17146    5.97366    5.80086
      26      444        4     0.00000    5.38640    1.11834    4.67480
      27      444        4     0.00000    0.65325    4.83654    4.94707
      28      444        1     0.00000    6.14303    3.08126    3.48740
      29      444        2     0.00000    4.43198    8.14497    9.17390
      30      444        2     0.00000    1.39579   10.85679    8.94068
      31      444        2     0.00000    2.50487    8.11228   10.24654
      32      444        2     0.00000    3.32049   11.02310   10.00920
      33      444        3     0.00000    0.75508    1.96743    2.01581
      34      444        3     0.00000    5.33533    4.43203    2.21000
      35      444        4     0.00000    0.54595    0.50970    0.13768
      36      444        5     0.00000   -0.21362    0.17282    9.69995
      37      444        4     0.00000    1.82565    0.02505    0.34624
      38      444        4     0.00000    2.57723    0.56856    1.39114
      39      444        5     0.00000    3.46857    0.27802    1.54628
      40      444        4     0.00000    5.66563    6.02250    0.45310
      41      444        5     0.00000    5.99962    6.37441   10.04619
      42      444        4     0.00000    6.10192    4.96929    1.25038
      43      444        5     0.00000    0.72015    4.61738    1.10859
      44      444        4     0.00000    0.05029    1.49154    0.97606
      45      444        5     0.00000    5.43506    1.84094    0.81270
      46      444        4     0.00000    2.00541    1.53161    2.19561
      47      444        5     0.00000    2.51996    1.89980    2.90351
      48      444        4     0.00000    4.10159    4.95300    2.41035
      49      444        5     0.00000    3.55381    4.57605    3.08948
      50      444        4     0.00000    3.60587    6.00747    1.67060
      51      444        5     0.00000    2.73923    6.35563    1.84012
      52      444        4     0.00000    4.41165    6.54974    0.66372
      53      444        4     0.00000    2.14621   11.40506    9.81194
      54      444        4     0.00000    3.66586    7.68686   10.08421
      55        1        6     0.00000    0.37150    9.21543    3.37406
      56      444        1     0.00000    2.67524    9.44214   18.89882
      57      444        2     0.00000    1.19178    4.37843   14.31104
      58      444        2     0.00000    4.40839    1.66661   14.07782
      59      444        2     0.00000    5.51747    4.41112   15.38368
      60      444        2     0.00000    0.08029    1.50030   15.14634
      61      444        3     0.00000    3.54009   10.55597   17.42723
      62      444        3     0.00000    1.86754    8.09137   17.62142
      63      444        4     0.00000    3.33095   12.01370   15.54909
      64      444        5     0.00000    2.79898   12.35058   14.83709
      65      444        4     0.00000    4.61066   12.49835   15.75766
      66      444        4     0.00000    5.36224   11.95484   16.80256
      67      444        5     0.00000    0.00077   12.24538   16.95770
      68      444        4     0.00000    2.19784    6.50090   15.86451
      69      444        5     0.00000    2.75942    6.14899   15.18333
      70      444        4     0.00000    2.63413    7.55411   16.66180
      71      444        5     0.00000    3.50516    7.90602   16.52001
      72      444        4     0.00000    2.83529   11.03186   16.38748
      73      444        5     0.00000    1.96727   10.68246   16.22411
      74      444        4     0.00000    4.79042   10.99179   17.60703
      75      444        5     0.00000    5.30497   10.62360   18.31493
      76      444        4     0.00000    0.63380    7.57040   17.82177
      77      444        5     0.00000    0.08602    7.94735   18.50090
      78      444        4     0.00000    0.13808    6.51593   17.08202
      79      444        5     0.00000    5.52424    6.16777   17.25154
      80      444        4     0.00000    0.94386    5.97366   16.07514
      81      444        4     0.00000    5.15881    1.11834   14.94908
      82      444        4     0.00000    0.42566    4.83654   15.22135
      83      444        1     0.00000    5.91544    3.08126   13.76168
      84      444        2     0.00000    4.20439    8.14497   19.44818
      85      444        2     0.00000    1.16819   10.85679   19.21496
      86      444        2     0.00000    2.27727    8.11228   20.52082
      87      444        2     0.00000    3.09289   11.02310   20.28348
      88      444        3     0.00000    0.52748    1.96743   12.29009
      89      444        3     0.00000    5.10774    4.43203   12.48428
      90      444        4     0.00000    0.31835    0.50970   10.41195
      91      444        5     0.00000   -0.44122    0.17282   19.97423
      92      444        4     0.00000    1.59806    0.02505   10.62052
      93      444        4     0.00000    2.34963    0.56856   11.66542
      94      444        5     0.00000    3.24097    0.27802   11.82056
      95      444        4     0.00000    5.43804    6.02250   10.72738
      96      444        5     0.00000    5.77203    6.37441   20.32047
      97      444        4     0.00000    5.87433    4.96929   11.52466
      98      444        5     0.00000    0.49256    4.61738   11.38287
      99      444        4     0.00000   -0.17731    1.49154   11.25034
     100      444        5     0.00000    5.20747    1.84094   11.08697
     101      444        4     0.00000    1.77781    1.53161   12.46989
     102      444        5     0.00000    2.29237    1.89980   13.17779
     103      444        4     0.00000    3.87400    4.95300   12.68463
     104      444        5     0.00000    3.32622    4.57605   13.36376
     105      444        4     0.00000    3.37828    6.00747   11.94488
     106      444        5     0.00000    2.51164    6.35563   12.11440
     107      444        4     0.00000    4.18406    6.54974   10.93800
     108      444        4     0.00000    1.91861   11.40506   20.08622
     109      444        4     0.00000    3.43826    7.68686   20.35848
     110      444        1     0.00000    2.44765    9.44214   29.17310
     111      444        2     0.00000    0.96419    4.37843   24.58532
     112      444        2     0.00000    4.18079    1.66661   24.35210
     113      444        2     0.00000    5.28988    4.41112   25.65796
     114      444        2     0.00000   -0.14730    1.50030   25.42062
     115      444        3     0.00000    3.31249   10.55597   27.70151
     116      444        3     0.00000    1.63994    8.09137   27.89570
     117      444        4     0.00000    3.10336   12.01370   25.82337
     118      444        5     0.00000    2.57139   12.35058   25.11137
     119      444        4     0.00000    4.38307   12.49835   26.03194
     120      444        4     0.00000    5.13464   11.95484   27.07684
     121      444        5     0.00000   -0.22682   12.24538   27.23198
     122      444        4     0.00000    1.97024    6.50090   26.13879
     123      444        5     0.00000    2.53183    6.14899   25.45761
     124      444        4     0.00000    2.40654    7.55411   26.93608
     125      444        5     0.00000    3.27757    7.90602   26.79429
     126      444        4     0.00000    2.60770   11.03186   26.66176
     127      444        5     0.00000    1.73968   10.68246   26.49839
     128      444        4     0.00000    4.56282   10.99179   27.88131
     129      444        5     0.00000    5.07738   10.62360   28.58921
     130      444        4     0.00000    0.40621    7.57040   28.09604
     131      444        5     0.00000   -0.14158    7.94735   28.77517
     132      444        4     0.00000   -0.08951    6.51593   27.35630
     133      444        5     0.00000    5.29665    6.16777   27.52582
     134      444        4     0.00000    0.71627    5.97366   26.34942
     135      444        4     0.00000    4.93121    1.11834   25.22336
     136      444        4     0.00000    0.19807    4.83654   25.49562
     137      444        1     0.00000    5.68784    3.08126   24.03596
     138      444        2     0.00000    3.97679    8.14497   29.72246
     139      444        2     0.00000    0.94060   10.85679   29.48924
     140      444        2     0.00000    2.04968    8.11228   30.79510
     141      444        2     0.00000    2.86530   11.02310   30.55776
     142      444        3     0.00000    0.29989    1.96743   22.56437
     143      444        3     0.00000    4.88014    4.43203   22.75856
     144      444        4     0.00000    0.09076    0.50970   20.68623
     145      444        5     0.00000   -0.66881    0.17282   30.24851
     146      444        4     0.00000    1.37046    0.02505   20.89480
     147      444        4     0.00000    2.12204    0.56856   21.93970
     148      444        5     0.00000    3.01338    0.27802   22.09484
     149      444        4     0.00000    5.21044    6.02250   21.00165
     150      444        5     0.00000    5.54443    6.37441   30.59475
     151      444        4     0.00000    5.64673    4.96929   21.79894
     152      444        5     0.00000    0.26496    4.61738   21.65715
     153      444        4     0.00000   -0.40490    1.49154   21.52462
     154      444        5     0.00000    4.97988    1.84094   21.36125
     155      444        4     0.00000    1.55022    1.53161   22.74417
     156      444        5     0.00000    2.06478    1.89980   23.45207
     157      444        4     0.00000    3.64640    4.95300   22.95890
     158      444        5     0.00000    3.09862    4.57605   23.63803
     159      444        4     0.00000    3.15069    6.00747   22.21916
     160      444        5     0.00000    2.28404    6.35563   22.38868
     161      444        4     0.00000    3.95647    6.54974   21.21228
     162      444        4     0.00000    1.69102   11.40506   30.36050
     163      444        4     0.00000    3.21067    7.68686   30.63276
     164      444        1     0.00000    2.90284   21.96554    8.62454
     165      444        2     0.00000    1.41938   16.90183    4.03676
     166      444        2     0.00000    4.63598   14.19001    3.80354
     167      444        2     0.00000    5.74507   16.93452    5.10940
     168      444        2     0.00000    0.30789   14.02370    4.87206
     169      444        3     0.00000    3.76768   23.07937    7.15295
     170      444        3     0.00000    2.09513   20.61477    7.34714
     171      444        4     0.00000    3.55855   24.53710    5.27482
     172      444        5     0.00000    3.02658   24.87398    4.56281
     173      444        4     0.00000    4.83825   25.02175    5.48338
     174      444        4     0.00000    5.58983   24.47824    6.52828
     175      444        5     0.00000    0.22837   24.76878    6.68342
     176      444        4     0.00000    2.42543   19.02430    5.59024
     177      444        5     0.00000    2.98702   18.67239    4.90905
     178      444        4     0.00000    2.86172   20.07751    6.38752
     179      444        5     0.00000    3.73275   20.42942    6.24573
     180      444        4     0.00000    3.06289   23.55526    6.11320
     181      444        5     0.00000    2.19487   23.20586    5.94984
     182      444        4     0.00000    5.01801   23.51519    7.33275
     183      444        5     0.00000    5.53257   23.14700    8.04065
     184      444        4     0.00000    0.86139   20.09380    7.54749
     185      444        5     0.00000    0.31361   20.47075    8.22662
     186      444        4     0.00000    0.36568   19.03933    6.80774
     187      444        5     0.00000    5.75184   18.69117    6.97726
     188      444        4     0.00000    1.17146   18.49706    5.80086
     189      444        4     0.00000    5.38640   13.64174    4.67480
     190      444        4     0.00000    0.65325   17.35994    4.94707
     191      444        1     0.00000    6.14303   15.60466    3.48740
     192      444        2     0.00000    4.43198   20.66837    9.17390
     193      444        2     0.00000    1.39579   23.38019    8.94068
     194      444        2     0.00000    2.50487   20.63568   10.24654
     195      444        2     0.00000    3.32049   23.54650   10.00920
     196      444        3     0.00000    0.75508   14.49083    2.01581
     197      444        3     0.00000    5.33533   16.95543    2.21000
     198      444        4     0.00000    0.54595   13.03310    0.13768
     199      444        5     0.00000   -0.21362   12.69622    9.69995
     200      444        4     0.00000    1.82565   12.54845    0.34624
     201      444        4     0.00000    2.57723   13.09196    1.39114
     202      444        5     0.00000    3.46857   12.80142    1.54628
     203      444        4     0.00000    5.66563   18.54590    0.45310
     204      444        5     0.00000    5.99962   18.89781   10.04619
     205      444        4     0.00000    6.10192   17.49269    1.25038
     206      444        5     0.00000    0.72015   17.14078    1.10859
     207      444        4     0.00000    0.05029   14.01494    0.97606
     208      444        5     0.00000    5.43506   14.36434    0.81270
     209      444        4     0.00000    2.00541   14.05501    2.19561
     210      444        5     0.00000    2.51996   14.42320    2.90351
     211      444        4     0.00000    4.10159   17.47640    2.41035
     212      444        5     0.00000    3.55381   17.09945    3.08948
     213      444        4     0.00000    3.60587   18.53087    1.67060
     214      444        5     0.00000    2.73923   18.87903    1.84012
     215      444        4     0.00000    4.41165   19.07314    0.66372
     216      444        4     0.00000    2.14621   23.92846    9.81194
     217      444        4     0.00000    3.66586   20.21026   10.08421
     218      444        1     0.00000    2.67524   21.96554   18.89882
     219      444        2     0.00000    1.19178   16.90183   14.31104
     220      444        2     0.00000    4.40839   14.19001   14.07782
     221      444        2     0.00000    5.51747   16.93452   15.38368
     222      444        2     0.00000    0.08029   14.02370   15.14634
     223      444        3     0.00000    3.54009   23.07937   17.42723
     224      444        3     0.00000    1.86754   20.61477   17.62142
     225      444        4     0.00000    3.33095   24.53710   15.54909
     226      444        5     0.00000    2.79898   24.87398   14.83709
     227      444        4     0.00000    4.61066   25.02175   15.75766
     228      444        4     0.00000    5.36224   24.47824   16.80256
     229      444        5     0.00000    0.00077   24.76878   16.95770
     230      444        4     0.00000    2.19784   19.02430   15.86451
     231      444        5     0.00000    2.75942   18.67239   15.18333
     232      444        4     0.00000    2.63413   20.07751   16.66180
     233      444        5     0.00000    3.50516   20.42942   16.52001
     234      444        4     0.00000    2.83529   23.55526   16.38748
     235      444        5     0.00000    1.96727   23.20586   16.22411
     236      444        4     0.00000    4.79042   23.51519   17.60703
     237      444        5     0.00000    5.30497   23.14700   18.31493
     238      444        4     0.00000    0.63380   20.09380   17.82177
     239      444        5     0.00000    0.08602   20.47075   18.50090
     240      444        4     0.00000    0.13808   19.03933   17.08202
     241      444        5     0.00000    5.52424   18.69117   17.25154
     242      444        4     0.00000    0.94386   18.49706   16.07514
     243      444        4     0.00000    5.15881   13.64174   14.94908
     244      444        4     0.00000    0.42566   17.35994   15.22135
     245      444        1     0.00000    5.91544   15.60466   13.76168
     246      444        2     0.00000    4.20439   20.66837   19.44818
     247      444        2     0.00000    1.16819   23.38019   19.21496
     248      444        2     0.00000    2.27727   20.63568   20.52082
     249      444        2     0.00000    3.09289   23.54650   20.28348
     250      444        3     0.00000    0.52748   14.49083   12.29009
     251      444        3     0.00000    5.10774   16.95543   12.48428
     252      444        4     0.00000    0.31835   13.03310   10.41195
     253      444        5     0.00000   -0.44122   12.69622   19.97423
     254      444        4     0.00000    1.59806   12.54845   10.62052
     255      444        4     0.00000    2.34963   13.09196   11.66542
     256      444        5     0.00000    3.24097   12.80142   11.82056
     257      444        4     0.00000    5.43804   18.54590   10.72738
     258      444        5     0.00000    5.77203   18.89781   20.32047
     259      444        4     0.00000    5.87433   17.49269   11.52466
     260      444        5     0.00000    0.49256   17.14078   11.38287
     261      444        4     0.00000   -0.17731   14.01494   11.25034
     262      444        5     0.00000    5.20747   14.36434   11.08697
     263      444        4     0.00000    1.77781   14.05501   12.46989
     264      444        5     0.00000    2.29237   14.42320   13.17779
     265      444        4     0.00000    3.87400   17.47640   12.68463
     266      444        5     0.00000    3.32622   17.09945   13.36376
     267      444        4     0.00000    3.37828   18.53087   11.94488
     268      444        5     0.00000    2.51164   18.87903   12.11440
     269      444        4     0.00000    4.18406   19.07314   10.93800
     270      444        4     0.00000    1.91861   23.92846   20.08622
     271      444        4     0.00000    3.43826   20.21026   20.35848
     272      444        1     0.00000    2.44765   21.96554   29.17310
     273      444        2     0.00000    0.96419   16.90183   24.58532
     274      444        2     0.00000    4.18079   14.19001   24.35210
     275      444        2     0.00000    5.28988   16.93452   25.65796
     276      444        2     0.00000   -0.14730   14.02370   25.42062
     277      444        3     0.00000    3.31249   23.07937   27.70151
     278      444        3     0.00000    1.63994   20.61477   27.89570
     279      444        4     0.00000    3.10336   24.53710   25.82337
     280      444        5     0.00000    2.57139   24.87398   25.11137
     281      444        4     0.00000    4.38307   25.02175   26.03194
     282      444        4     0.00000    5.13464   24.47824   27.07684
     283      444        5     0.00000   -0.22682   24.76878   27.23198
     284      444        4     0.00000    1.97024   19.02430   26.13879
     285      444        5     0.00000    2.53183   18.67239   25.45761
     286      444        4     0.00000    2.40654   20.07751   26.93608
     287      444        5     0.00000    3.27757   20.42942   26.79429
     288      444        4     0.00000    2.60770   23.55526   26.66176
     289      444        5     0.00000    1.73968   23.20586   26.49839
     290      444        4     0.00000    4.56282   23.51519   27.88131
     291      444        5     0.00000    5.07738   23.14700   28.58921
     292      444        4     0.00000    0.40621   20.09380   28.09604
     293      444        5     0.00000   -0.14158   20.47075   28.77517
     294      444        4     0.00000   -0.08951   19.03933   27.35630
     295      444        5     0.00000    5.29665   18.69117   27.52582
     296      444        4     0.00000    0.71627   18.49706   26.34942
     297      444        4     0.00000    4.93121   13.64174   25.22336
     298      444        4     0.00000    0.19807   17.35994   25.49562
     299      444        1     0.00000    5.68784   15.60466   24.03596
     300      444        2     0.00000    3.97679   20.66837   29.72246
     301      444        2     0.00000    0.94060   23.38019   29.48924
     302      444        2     0.00000    2.04968   20.63568   30.79510
     303      444        2     0.00000    2.86530   23.54650   30.55776
     304      444        3     0.00000    0.29989   14.49083   22.56437
     305      444        3     0.00000    4.88014   16.95543   22.75856
     306      444        4     0.00000    0.09076   13.03310   20.68623
     307      444        5     0.00000   -0.66881   12.69622   30.24851
     308      444        4     0.00000    1.37046   12.54845   20.89480
     309      444        4     0.00000    2.12204   13.09196   21.93970
     310      444        5     0.00000    3.01338   12.80142   22.09484
     311      444        4     0.00000    5.21044   18.54590   21.00165
     312      444        5     0.00000    5.54443   18.89781   30.59475
     313      444        4     0.00000    5.64673   17.49269   21.79894
     314      444        5     0.00000    0.26496   17.14078   21.65715
     315      444        4     0.00000   -0.40490   14.01494   21.52462
     316      444        5     0.00000    4.97988   14.36434   21.36125
     317      444        4     0.00000    1.55022   14.05501   22.74417
     318      444        5     0.00000    2.06478   14.42320   23.45207
     319      444        4     0.00000    3.64640   17.47640   22.95890
     320      444        5     0.00000    3.09862   17.09945   23.63803
     321      444        4     0.00000    3.15069   18.53087   22.21916
     322      444        5     0.00000    2.28404   18.87903   22.38868
     323      444        4     0.00000    3.95647   19.07314   21.21228
     324      444        4     0.00000    1.69102   23.92846   30.36050
     325      444        4     0.00000    3.21067   20.21026   30.63276
     326      444        1     0.00000    2.90284   34.48894    8.62454
     327      444        2     0.00000    1.41938   29.42523    4.03676
     328      444        2     0.00000    4.63598   26.71341    3.80354
     329      444        2     0.00000    5.74507   29.45792    5.10940
     330      444        2     0.00000    0.30789   26.54710    4.87206
     331      444        3     0.00000    3.76768   35.60277    7.15295
     332      444        3     0.00000    2.09513   33.13817    7.34714
     333      444        4     0.00000    3.55855   37.06050    5.27482
     334      444        5     0.00000    3.02658   37.39738    4.56281
     335      444        4     0.00000    4.83825   37.54515    5.48338
     336      444        4     0.00000    5.58983   37.00164    6.52828
     337      444        5     0.00000    0.22837   37.29218    6.68342
     338      444        4     0.00000    2.42543   31.54770    5.59024
     339      444        5     0.00000    2.98702   31.19579    4.90905
     340      444        4     0.00000    2.86172   32.60091    6.38752
     341      444        5     0.00000    3.73275   32.95282    6.24573
     342      444        4     0.00000    3.06289   36.07866    6.11320
     343      444        5     0.00000    2.19487   35.72926    5.94984
     344      444        4     0.00000    5.01801   36.03859    7.33275
     345      444        5     0.00000    5.53257   35.67040    8.04065
     346      444        4     0.00000    0.86139   32.61720    7.54749
     347      444        5     0.00000    0.31361   32.99415    8.22662
     348      444        4     0.00000    0.36568   31.56273    6.80774
     349      444        5     0.00000    5.75184   31.21457    6.97726
     350      444        4     0.00000    1.17146   31.02046    5.80086
     351      444        4     0.00000    5.38640   26.16514    4.67480
     352      444        4     0.00000    0.65325   29.88334    4.94707
     353      444        1     0.00000    6.14303   28.12806    3.48740
     354      444        2     0.00000    4.43198   33.19177    9.17390
     355      444        2     0.00000    1.39579   35.90359    8.94068
     356      444        2     0.00000    2.50487   33.15908   10.24654
     357      444        2     0.00000    3.32049   36.06990   10.00920
     358      444        3     0.00000    0.75508   27.01423    2.01581
     359      444        3     0.00000    5.33533   29.47883    2.21000
     360      444        4     0.00000    0.54595   25.55650    0.13768
     361      444        5     0.00000   -0.21362   25.21962    9.69995
     362      444        4     0.00000    1.82565   25.07185    0.34624
     363      444        4     0.00000    2.57723   25.61536    1.39114
     364      444        5     0.00000    3.46857   25.32482    1.54628
     365      444        4     0.00000    5.66563   31.06930    0.45310
     366      444        5     0.00000    5.99962   31.42121   10.04619
     367      444        4     0.00000    6.10192   30.01609    1.25038
     368      444        5     0.00000    0.72015   29.66418    1.10859
     369      444        4     0.00000    0.05029   26.53834    0.97606
     370      444        5     0.00000    5.43506   26.88774    0.81270
     371      444        4     0.00000    2.00541   26.57841    2.19561
     372      444        5     0.00000    2.51996   26.94660    2.90351
     373      444        4     0.00000    4.10159   29.99980    2.41035
     374      444        5     0.00000    3.55381   29.62285    3.08948
     375      444        4     0.00000    3.60587   31.05427    1.67060
     376      444        5     0.00000    2.73923   31.40243    1.84012
     377      444        4     0.00000    4.41165   31.59654    0.66372
     378      444        4     0.00000    2.14621   36.45186    9.81194
     379      444        4     0.00000    3.66586   32.73366   10.08421
     380      444        1     0.00000    2.67524   34.48894   18.89882
     381      444        2     0.00000    1.19178   29.42523   14.31104