Created on Wed Apr 06 16:31:40 2022 

        2233 atoms
        2592 bonds
        4824 angles
        5184 dihedrals
        3456 impropers

           6 atom types
           8 bond types
          15 angle types
           3 dihedral types
           1 improper types
           0.000000  31.854000 xlo xhi
           0.000000  35.635800 ylo yhi
           0.000000  28.367197 zlo zhi
           0.000000   0.013863   0.000000 xy xz yz

Masses

    1    58.693400000 # Ni4+2
    2    15.999400000 # O_R
    3    12.010700000 # C_R
    4     1.007940000 # H_
    5    14.006700000 # N_R
    6    83.798000000 # Kr4+4

Bond Coeffs

    1      321.720028        1.793457  # Ni4+2 O_R
    2      328.673665        1.841585  # Ni4+2 N_R
    3      646.680887        1.311940  # O_R C_R
    4      462.655054        1.379256  # C_R C_R
    5      357.440381        1.081418  # C_R H_
    6      663.718927        1.345073  # C_R N_R
    7      529.459447        1.043423  # H_ N_R
    8      391.669513        1.458000  # C_R C_R

Angle Coeffs

    1      171.515475               1               4 # N_R Ni4+2 O_R
    2      182.482830               1               4 # N_R Ni4+2 N_R
    3      161.490108               1               4 # O_R Ni4+2 O_R
    4      119.173173              -1               3 # C_R O_R Ni4+2
    5      111.297508              -1               3 # C_R C_R C_R
    6       57.289016              -1               3 # C_R C_R H_
    7      153.699352              -1               3 # C_R C_R N_R
    8       79.786967              -1               3 # H_ C_R N_R
    9       88.904516              -1               3 # Ni4+2 N_R C_R
   10      120.000516              -1               3 # C_R N_R C_R
   11       62.535612              -1               3 # C_R N_R H_
   12       35.647060              -1               3 # H_ N_R H_
   13      102.183280              -1               3 # C_R C_R C_R
   14      187.136328              -1               3 # O_R C_R O_R
   15      131.755710              -1               3 # O_R C_R C_R

Dihedral Coeffs

    1        6.737110              -1               2 # Ni4+2 O_R C_R O_R
    2        3.368555              -1               2 # C_R C_R C_R C_R
    3        1.250000              -1               2 # C_R C_R C_R O_R

Improper Coeffs

    1        2.000000        1.000000       -1.000000        0.000000               0 # C_R C_R C_R H_

Pair Coeffs

    1        0.015000        2.524807 # Ni4+2 Ni4+2
    2        0.060000        3.118146 # O_R O_R
    3        0.105000        3.430851 # C_R C_R
    4        0.044000        2.571134 # H_ H_
    5        0.069000        3.260689 # N_R N_R
    6        0.220000        3.689212 # Kr4+4 Kr4+4

Atoms

       1      444        1     0.00000    5.29536    2.95183    0.32551
       2      444        2     0.00000    0.32121   10.33438    5.45359
       3      444        2     0.00000    1.38209   10.21560    3.57710
       4      444        3     0.00000    2.22241    0.23757    6.63651
       5      444        3     0.00000    3.21943    0.45139    4.45152
       6      444        3     0.00000    4.03728    1.42543    4.99688
       7      444        4     0.00000    4.78023    2.01936    4.35366
       8      444        4     0.00000    4.22727    0.47514    2.67503
       9      444        5     0.00000    4.03792    1.78179    6.29468
      10      444        5     0.00000    3.40993    0.08315    3.18493
      11      444        3     0.00000    2.23237   11.73606    5.29616
      12      444        4     0.00000    2.86825   11.18964    2.83459
      13      444        3     0.00000    1.27649   10.69074    4.76853
      14      444        3     0.00000    3.15356    1.17598    0.02269
      15      444        4     0.00000    3.18592    1.44919    1.07157
      16      444        4     0.00000    1.48665   11.64103    0.25601
      17      444        2     0.00000    5.90653    4.06129    5.97059
      18      444        2     0.00000    6.97002    4.44141    0.73826
      19      444        3     0.00000    7.31593    6.19944    4.61747
      20      444        3     0.00000    8.72696    6.36812    6.56417
      21      444        3     0.00000    9.51127    7.31009    5.84293
      22      444        4     0.00000   10.41721    7.71871    6.28617
      23      444        4     0.00000    9.77551    6.69478    1.19213
      24      444        5     0.00000    9.16135    7.75316    4.63591
      25      444        5     0.00000    9.04053    6.12223    0.74393
      26      444        3     0.00000    7.61599    5.75875    5.90605
      27      444        4     0.00000    8.41963    5.48079    1.25950
      28      444        3     0.00000    6.81148    4.74194    6.58474
      29      444        3     0.00000    8.08438    7.20437    4.01467
      30      444        4     0.00000    7.84394    7.60230    3.03245
      31      444        4     0.00000    6.45031    5.82170    4.07991
      32      444        1     0.00000   10.60609    8.92677    3.87141
      33      444        2     0.00000    5.62847    1.54422    1.90769
      34      444        2     0.00000    6.68936    1.66300    0.03120
      35      444        3     0.00000    7.52967   11.64103    3.09061
      36      444        3     0.00000    8.52670   11.42721    0.90562
      37      444        3     0.00000    9.34455   10.45317    1.45098
      38      444        4     0.00000   10.08749    9.85924    0.80776
      39      444        4     0.00000    9.53800   11.40346    6.22093
      40      444        5     0.00000    9.34518   10.09681    2.74878
      41      444        5     0.00000    8.72067   11.79545    6.73083
      42      444        3     0.00000    7.53964    0.14254    1.75026
      43      444        4     0.00000    8.17898    0.68896    6.38049
      44      444        3     0.00000    6.58376    1.18786    1.22263
      45      444        3     0.00000    8.46429   10.70262    3.56859
      46      444        4     0.00000    8.49666   10.42941    4.61747
      47      444        4     0.00000    6.79738    0.23757    3.80191
      48      444        2     0.00000    0.59579    7.81731    2.42469
      49      444        2     0.00000    1.66275    7.43719    4.28416
      50      444        3     0.00000    2.00520    5.67916    1.07157
      51      444        3     0.00000    3.41622    5.51048    3.01827
      52      444        3     0.00000    4.20054    4.56851    2.29703
      53      444        4     0.00000    5.10647    4.15989    2.74027
      54      444        4     0.00000    4.46825    5.18382    4.73803
      55      444        5     0.00000    3.85062    4.12544    1.09001
      56      444        5     0.00000    3.73326    5.75637    4.28983
      57      444        3     0.00000    2.30526    6.11985    2.36015
      58      444        4     0.00000    3.11236    6.39781    4.80540
      59      444        3     0.00000    1.50075    7.13666    3.03884
      60      444        3     0.00000    2.77365    4.67423    0.46877
      61      444        4     0.00000    2.53667    4.27630    6.57835
      62      444        4     0.00000    1.13957    6.05690    0.53401
      63        1        6     0.00000    0.67815    2.43758    3.57179
      64      444        1     0.00000    5.29882    2.95183    7.41731
      65      444        2     0.00000    0.32467   10.33438   12.54539
      66      444        2     0.00000    1.38555   10.21560   10.66890
      67      444        3     0.00000    2.22587    0.23757   13.72830
      68      444        3     0.00000    3.22290    0.45139   11.54332
      69      444        3     0.00000    4.04075    1.42543   12.08868
      70      444        4     0.00000    4.78369    2.01936   11.44545
      71      444        4     0.00000    4.23074    0.47514    9.76683
      72      444        5     0.00000    4.04138    1.78179   13.38648
      73      444        5     0.00000    3.41340    0.08315   10.27673
      74      444        3     0.00000    2.23583   11.73606   12.38795
      75      444        4     0.00000    2.87171   11.18964    9.92639
      76      444        3     0.00000    1.27996   10.69074   11.86032
      77      444        3     0.00000    3.15702    1.17598    7.11449
      78      444        4     0.00000    3.18939    1.44919    8.16337
      79      444        4     0.00000    1.49011   11.64103    7.34781
      80      444        2     0.00000    5.90999    4.06129   13.06238
      81      444        2     0.00000    6.97348    4.44141    7.83006
      82      444        3     0.00000    7.31940    6.19944   11.70927
      83      444        3     0.00000    8.73042    6.36812   13.65597
      84      444        3     0.00000    9.51474    7.31009   12.93473
      85      444        4     0.00000   10.42067    7.71871   13.37797
      86      444        4     0.00000    9.77898    6.69478    8.28393
      87      444        5     0.00000    9.16482    7.75316   11.72771
      88      444        5     0.00000    9.04399    6.12223    7.83573
      89      444        3     0.00000    7.61946    5.75875   12.99785
      90      444        4     0.00000    8.42309    5.48079    8.35130
      91      444        3     0.00000    6.81495    4.74194   13.67653
      92      444        3     0.00000    8.08785    7.20437   11.10647
      93      444        4     0.00000    7.84740    7.60230   10.12425
      94      444        4     0.00000    6.45377    5.82170   11.17171
      95      444        1     0.00000   10.60955    8.92677   10.96321
      96      444        2     0.00000    5.63194    1.54422    8.99949
      97      444        2     0.00000    6.69282    1.66300    7.12300
      98      444        3     0.00000    7.53314   11.64103   10.18241
      99      444        3     0.00000    8.53016   11.42721    7.99742
     100      444        3     0.00000    9.34801   10.45317    8.54278
     101      444        4     0.00000   10.09096    9.85924    7.89956
     102      444        4     0.00000    9.54147   11.40346   13.31273
     103      444        5     0.00000    9.34865   10.09681    9.84058
     104      444        5     0.00000    8.72413   11.79545   13.82263
     105      444        3     0.00000    7.54310    0.14254    8.84206
     106      444        4     0.00000    8.18244    0.68896   13.47229
     107      444        3     0.00000    6.58722    1.18786    8.31443
     108      444        3     0.00000    8.46776   10.70262   10.66039
     109      444        4     0.00000    8.50012   10.42941   11.70927
     110      444        4     0.00000    6.80084    0.23757   10.89371
     111      444        2     0.00000    0.59926    7.81731    9.51649
     112      444        2     0.00000    1.66621    7.43719   11.37596
     113      444        3     0.00000    2.00867    5.67916    8.16337
     114      444        3     0.00000    3.41969    5.51048   10.11007
     115      444        3     0.00000    4.20401    4.56851    9.38883
     116      444        4     0.00000    5.10994    4.15989    9.83207
     117      444        4     0.00000    4.47171    5.18382   11.82983
     118      444        5     0.00000    3.85409    4.12544    8.18181
     119      444        5     0.00000    3.73673    5.75637   11.38163
     120      444        3     0.00000    2.30873    6.11985    9.45195
     121      444        4     0.00000    3.11583    6.39781   11.89720
     122      444        3     0.00000    1.50421    7.13666   10.13064
     123      444        3     0.00000    2.77712    4.67423    7.56057
     124      444        4     0.00000    2.54014    4.27630   13.67015
     125      444        4     0.00000    1.14304    6.05690    7.62581
     126      444        1     0.00000    5.30229    2.95183   14.50911
     127      444        2     0.00000    0.32814   10.33438   19.63719
     128      444        2     0.00000    1.38902   10.21560   17.76070
     129      444        3     0.00000    2.22934    0.23757   20.82010
     130      444        3     0.00000    3.22636    0.45139   18.63512
     131      444        3     0.00000    4.04421    1.42543   19.18048
     132      444        4     0.00000    4.78716    2.01936   18.53725
     133      444        4     0.00000    4.23420    0.47514   16.85862
     134      444        5     0.00000    4.04485    1.78179   20.47828
     135      444        5     0.00000    3.41687    0.08315   17.36853
     136      444        3     0.00000    2.23930   11.73606   19.47975
     137      444        4     0.00000    2.87518   11.18964   17.01819
     138      444        3     0.00000    1.28342   10.69074   18.95212
     139      444        3     0.00000    3.16049    1.17598   14.20629
     140      444        4     0.00000    3.19286    1.44919   15.25517
     141      444        4     0.00000    1.49358   11.64103   14.43961
     142      444        2     0.00000    5.91346    4.06129   20.15418
     143      444        2     0.00000    6.97695    4.44141   14.92185
     144      444        3     0.00000    7.32287    6.19944   18.80107
     145      444        3     0.00000    8.73389    6.36812   20.74777
     146      444        3     0.00000    9.51821    7.31009   20.02653
     147      444        4     0.00000   10.42414    7.71871   20.46977
     148      444        4     0.00000    9.78244    6.69478   15.37573
     149      444        5     0.00000    9.16828    7.75316   18.81951
     150      444        5     0.00000    9.04746    6.12223   14.92753
     151      444        3     0.00000    7.62292    5.75875   20.08965
     152      444        4     0.00000    8.42656    5.48079   15.44310
     153      444        3     0.00000    6.81841    4.74194   20.76833
     154      444        3     0.00000    8.09131    7.20437   18.19827
     155      444        4     0.00000    7.85087    7.60230   17.21605
     156      444        4     0.00000    6.45724    5.82170   18.26351
     157      444        1     0.00000   10.61302    8.92677   18.05501
     158      444        2     0.00000    5.63540    1.54422   16.09129
     159      444        2     0.00000    6.69629    1.66300   14.21480
     160      444        3     0.00000    7.53660   11.64103   17.27420
     161      444        3     0.00000    8.53363   11.42721   15.08922
     162      444        3     0.00000    9.35148   10.45317   15.63458
     163      444        4     0.00000   10.09443    9.85924   14.99135
     164      444        4     0.00000    9.54494   11.40346   20.40452
     165      444        5     0.00000    9.35211   10.09681   16.93238
     166      444        5     0.00000    8.72760   11.79545   20.91442
     167      444        3     0.00000    7.54657    0.14254   15.93385
     168      444        4     0.00000    8.18591    0.68896   20.56409
     169      444        3     0.00000    6.59069    1.18786   15.40622
     170      444        3     0.00000    8.47122   10.70262   17.75219
     171      444        4     0.00000    8.50359   10.42941   18.80107
     172      444        4     0.00000    6.80431    0.23757   17.98551
     173      444        2     0.00000    0.60272    7.81731   16.60828
     174      444        2     0.00000    1.66968    7.43719   18.46775
     175      444        3     0.00000    2.01213    5.67916   15.25517
     176      444        3     0.00000    3.42316    5.51048   17.20187
     177      444        3     0.00000    4.20747    4.56851   16.48063
     178      444        4     0.00000    5.11340    4.15989   16.92387
     179      444        4     0.00000    4.47518    5.18382   18.92163
     180      444        5     0.00000    3.85755    4.12544   15.27361
     181      444        5     0.00000    3.74019    5.75637   18.47343
     182      444        3     0.00000    2.31219    6.11985   16.54375
     183      444        4     0.00000    3.11929    6.39781   18.98900
     184      444        3     0.00000    1.50768    7.13666   17.22243
     185      444        3     0.00000    2.78058    4.67423   14.65237
     186      444        4     0.00000    2.54360    4.27630   20.76195
     187      444        4     0.00000    1.14650    6.05690   14.71761
     188      444        1     0.00000    5.30575    2.95183   21.60091
     189      444        2     0.00000    0.33160   10.33438   26.72899
     190      444        2     0.00000    1.39249   10.21560   24.85250
     191      444        3     0.00000    2.23280    0.23757   27.91190
     192      444        3     0.00000    3.22983    0.45139   25.72692
     193      444        3     0.00000    4.04768    1.42543   26.27228
     194      444        4     0.00000    4.79062    2.01936   25.62905
     195      444        4     0.00000    4.23767    0.47514   23.95042
     196      444        5     0.00000    4.04831    1.78179   27.57008
     197      444        5     0.00000    3.42033    0.08315   24.46032
     198      444        3     0.00000    2.24277   11.73606   26.57155
     199      444        4     0.00000    2.87864   11.18964   24.10999
     200      444        3     0.00000    1.28689   10.69074   26.04392
     201      444        3     0.00000    3.16395    1.17598   21.29809
     202      444        4     0.00000    3.19632    1.44919   22.34697
     203      444        4     0.00000    1.49704   11.64103   21.53141
     204      444        2     0.00000    5.91692    4.06129   27.24598
     205      444        2     0.00000    6.98041    4.44141   22.01365
     206      444        3     0.00000    7.32633    6.19944   25.89287
     207      444        3     0.00000    8.73735    6.36812   27.83957
     208      444        3     0.00000    9.52167    7.31009   27.11833
     209      444        4     0.00000   10.42760    7.71871   27.56157
     210      444        4     0.00000    9.78591    6.69478   22.46753
     211      444        5     0.00000    9.17175    7.75316   25.91131
     212      444        5     0.00000    9.05093    6.12223   22.01933
     213      444        3     0.00000    7.62639    5.75875   27.18145
     214      444        4     0.00000    8.43002    5.48079   22.53490
     215      444        3     0.00000    6.82188    4.74194   27.86013
     216      444        3     0.00000    8.09478    7.20437   25.29006
     217      444        4     0.00000    7.85433    7.60230   24.30785
     218      444        4     0.00000    6.46070    5.82170   25.35531
     219      444        1     0.00000   10.61649    8.92677   25.14681
     220      444        2     0.00000    5.63887    1.54422   23.18309
     221      444        2     0.00000    6.69975    1.66300   21.30660
     222      444        3     0.00000    7.54007   11.64103   24.36600
     223      444        3     0.00000    8.53709   11.42721   22.18102
     224      444        3     0.00000    9.35495   10.45317   22.72638
     225      444        4     0.00000   10.09789    9.85924   22.08315
     226      444        4     0.00000    9.54840   11.40346   27.49632
     227      444        5     0.00000    9.35558   10.09681   24.02418
     228      444        5     0.00000    8.73106   11.79545   28.00622
     229      444        3     0.00000    7.55003    0.14254   23.02565
     230      444        4     0.00000    8.18938    0.68896   27.65589
     231      444        3     0.00000    6.59415    1.18786   22.49802
     232      444        3     0.00000    8.47469   10.70262   24.84399
     233      444        4     0.00000    8.50705   10.42941   25.89287
     234      444        4     0.00000    6.80778    0.23757   25.07731
     235      444        2     0.00000    0.60619    7.81731   23.70008
     236      444        2     0.00000    1.67315    7.43719   25.55955
     237      444        3     0.00000    2.01560    5.67916   22.34697
     238      444        3     0.00000    3.42662    5.51048   24.29367
     239      444        3     0.00000    4.21094    4.56851   23.57243
     240      444        4     0.00000    5.11687    4.15989   24.01567
     241      444        4     0.00000    4.47864    5.18382   26.01343
     242      444        5     0.00000    3.86102    4.12544   22.36541
     243      444        5     0.00000    3.74366    5.75637   25.56523
     244      444        3     0.00000    2.31566    6.11985   23.63555
     245      444        4     0.00000    3.12276    6.39781   26.08080
     246      444        3     0.00000    1.51114    7.13666   24.31423
     247      444        3     0.00000    2.78405    4.67423   21.74417
     248      444        4     0.00000    2.54707    4.27630   27.85375
     249      444        4     0.00000    1.14997    6.05690   21.80941
     250      444        1     0.00000    5.29536   14.83043    0.32551
     251      444        2     0.00000    0.32121   22.21298    5.45359
     252      444        2     0.00000    1.38209   22.09420    3.57710
     253      444        3     0.00000    2.22241   12.11617    6.63651
     254      444        3     0.00000    3.21943   12.32999    4.45152
     255      444        3     0.00000    4.03728   13.30403    4.99688
     256      444        4     0.00000    4.78023   13.89796    4.35366
     257      444        4     0.00000    4.22727   12.35374    2.67503
     258      444        5     0.00000    4.03792   13.66039    6.29468
     259      444        5     0.00000    3.40993   11.96175    3.18493
     260      444        3     0.00000    2.23237   23.61466    5.29616
     261      444        4     0.00000    2.86825   23.06824    2.83459
     262      444        3     0.00000    1.27649   22.56934    4.76853
     263      444        3     0.00000    3.15356   13.05458    0.02269
     264      444        4     0.00000    3.18592   13.32779    1.07157
     265      444        4     0.00000    1.48665   23.51963    0.25601
     266      444        2     0.00000    5.90653   15.93989    5.97059
     267      444        2     0.00000    6.97002   16.32001    0.73826
     268      444        3     0.00000    7.31593   18.07804    4.61747
     269      444        3     0.00000    8.72696   18.24672    6.56417
     270      444        3     0.00000    9.51127   19.18869    5.84293
     271      444        4     0.00000   10.41721   19.59731    6.28617
     272      444        4     0.00000    9.77551   18.57338    1.19213
     273      444        5     0.00000    9.16135   19.63176    4.63591
     274      444        5     0.00000    9.04053   18.00083    0.74393
     275      444        3     0.00000    7.61599   17.63735    5.90605
     276      444        4     0.00000    8.41963   17.35939    1.25950
     277      444        3     0.00000    6.81148   16.62054    6.58474
     278      444        3     0.00000    8.08438   19.08297    4.01467
     279      444        4     0.00000    7.84394   19.48090    3.03245
     280      444        4     0.00000    6.45031   17.70030    4.07991
     281      444        1     0.00000   10.60609   20.80537    3.87141
     282      444        2     0.00000    5.62847   13.42282    1.90769
     283      444        2     0.00000    6.68936   13.54160    0.03120
     284      444        3     0.00000    7.52967   23.51963    3.09061
     285      444        3     0.00000    8.52670   23.30581    0.90562
     286      444        3     0.00000    9.34455   22.33177    1.45098
     287      444        4     0.00000   10.08749   21.73784    0.80776
     288      444        4     0.00000    9.53800   23.28206    6.22093
     289      444        5     0.00000    9.34518   21.97541    2.74878
     290      444        5     0.00000    8.72067   23.67405    6.73083
     291      444        3     0.00000    7.53964   12.02114    1.75026
     292      444        4     0.00000    8.17898   12.56756    6.38049
     293      444        3     0.00000    6.58376   13.06646    1.22263
     294      444        3     0.00000    8.46429   22.58122    3.56859
     295      444        4     0.00000    8.49666   22.30801    4.61747
     296      444        4     0.00000    6.79738   12.11617    3.80191
     297      444        2     0.00000    0.59579   19.69591    2.42469
     298      444        2     0.00000    1.66275   19.31579    4.28416
     299      444        3     0.00000    2.00520   17.55776    1.07157
     300      444        3     0.00000    3.41622   17.38908    3.01827
     301      444        3     0.00000    4.20054   16.44711    2.29703
     302      444        4     0.00000    5.10647   16.03849    2.74027
     303      444        4     0.00000    4.46825   17.06242    4.73803
     304      444        5     0.00000    3.85062   16.00404    1.09001
     305      444        5     0.00000    3.73326   17.63497    4.28983
     306      444        3     0.00000    2.30526   17.99845    2.36015
     307      444        4     0.00000    3.11236   18.27641    4.80540
     308      444        3     0.00000    1.50075   19.01526    3.03884
     309      444        3     0.00000    2.77365   16.55283    0.46877
     310      444        4     0.00000    2.53667   16.15490    6.57835
     311      444        4     0.00000    1.13957   17.93550    0.53401
     312      444        1     0.00000    5.29882   14.83043    7.41731
     313      444        2     0.00000    0.32467   22.21298   12.54539
     314      444        2     0.00000    1.38555   22.09420   10.66890
     315      444        3     0.00000    2.22587   12.11617   13.72830
     316      444        3     0.00000    3.22290   12.32999   11.54332
     317      444        3     0.00000    4.04075   13.30403   12.08868
     318      444        4     0.00000    4.78369   13.89796   11.44545
     319      444        4     0.00000    4.23074   12.35374    9.76683
     320      444        5     0.00000    4.04138   13.66039   13.38648
     321      444        5     0.00000    3.41340   11.96175   10.27673
     322      444        3     0.00000    2.23583   23.61466   12.38795
     323      444        4     0.00000    2.87171   23.06824    9.92639
     324      444        3     0.00000    1.27996   22.56934   11.86032
     325      444        3     0.00000    3.15702   13.05458    7.11449
     326      444        4     0.00000    3.18939   13.32779    8.16337
     327      444        4     0.00000    1.49011   23.51963    7.34781
     328      444        2     0.00000    5.90999   15.93989   13.06238
     329      444        2     0.00000    6.97348   16.32001    7.83006
     330      444        3     0.00000    7.31940   18.07804   11.70927
     331      444        3     0.00000    8.73042   18.24672   13.65597
     332      444        3     0.00000    9.51474   19.18869   12.93473
     333      444        4     0.00000   10.42067   19.59731   13.37797
     334      444        4     0.00000    9.77898   18.57338    8.28393
     335      444        5     0.00000    9.16482   19.63176   11.72771
     336      444        5     0.00000    9.04399   18.00083    7.83573
     337      444        3     0.00000    7.61946   17.63735   12.99785
     338      444        4     0.00000    8.42309   17.35939    8.35130
     339      444        3     0.00000    6.81495   16.62054   13.67653
     340      444        3     0.00000    8.08785   19.08297   11.10647
     341      444        4     0.00000    7.84740   19.48090   10.12425
     342      444        4     0.00000    6.45377   17.70030   11.17171
     343      444        1     0.00000   10.60955   20.80537   10.96321
     344      444        2     0.00000    5.63194   13.42282    8.99949
     345      444        2     0.00000    6.69282   13.54160    7.12300
     346      444        3     0.00000    7.53314   23.51963   10.18241
     347      444        3     0.00000    8.53016   23.30581    7.99742
     348      444        3     0.00000    9.34801   22.33177    8.54278
     349      444        4     0.00000   10.09096   21.73784    7.89956
     350      444        4     0.00000    9.54147   23.28206   13.31273
     351      444        5     0.00000    9.34865   21.97541    9.84058
     352      444        5     0.00000    8.72413   23.67405   13.82263
     353      444        3     0.00000    7.54310   12.02114    8.84206
     354      444        4     0.00000    8.18244   12.56756   13.47229
     355      444        3     0.00000    6.58722   13.06646    8.31443
     356      444        3     0.00000    8.46776   22.58122   10.66039
     357      444        4     0.00000    8.50012   22.30801   11.70927
     358      444        4     0.00000    6.80084   12.11617   10.89371
     359      444        2     0.00000    0.59926   19.69591    9.51649
     360      444        2     0.00000    1.66621   19.31579   11.37596
     361      444        3     0.00000    2.00867   17.55776    8.16337
     362      444        3     0.00000    3.41969   17.38908   10.11007
     363      444        3     0.00000    4.20401   16.44711    9.38883
     364      444        4     0.00000    5.10994   16.03849    9.83207
     365      444        4     0.00000    4.47171   17.06242   11.82983
     366      444        5     0.00000    3.85409   16.00404    8.18181
     367      444        5     0.00000    3.73673   17.63497   11.38163
     368      444        3     0.00000    2.30873   17.99845    9.45195
     369      444        4     0.00000    3.11583   18.27641   11.89720
     370      444        3     0.00000    1.50421   19.01526   10.13064
     371      444        3     0.00000    2.77712   16.55283    7.56057
     372      444        4     0.00000    2.54014   16.15490   13.67015
     373      444        4     0.00000    1.14304   17.93550    7.62581
     374      444        1     0.00000    5.30229   14.83043   14.50911
     375      444        2     0.00000    0.32814   22.21298   19.63719
     376      444        2     0.00000    1.38902   22.09420   17.76070
     377      444        3     0.00000    2.22934   12.11617   20.82010
     378      444        3     0.00000    3.22636   12.32999   18.63512