
# --------------------------------- Initialization -------------------------------------- #
units           real
atom_style      full
boundary        p p p

pair_style      lj/cut 14.000
bond_style      harmonic
angle_style     cosine/periodic
dihedral_style  harmonic
improper_style  fourier

special_bonds   lj/coul 0.0 0.0 1.0
pair_modify     tail no mix arithmetic
#dielectric      1.0
box tilt        large
read_data       data.NiPyC2_experiment_with_Xe
  triclinic box = (0 0 0) to (31.264 37.5702 30.8228) with tilt (0 -0.682783 0)
  1 by 1 by 1 MPI processor grid
  reading atoms ...
  2431 atoms
  scanning bonds ...
  6 = max bonds/atom
  scanning angles ...
  15 = max angles/atom
  scanning dihedrals ...
  8 = max dihedrals/atom
  scanning impropers ...
  3 = max impropers/atom
  reading bonds ...
  2880 bonds
  reading angles ...
  5490 angles
  reading dihedrals ...
  5760 dihedrals
  reading impropers ...
  3780 impropers
  6 = max # of 1-2 neighbors
  9 = max # of 1-3 neighbors
  12 = max # of special neighbors
  special bonds CPU = 0.000690215 secs
  read_data CPU = 0.0385934 secs

#### Atom Groupings ####
group           xe       id   55
1 atoms in group xe
group           fram     id   1:54 56:2431
2430 atoms in group fram
#### END Atom Groupings ####

###
# Speed up Calculations by exluding framework-framework interactions
#   since we are keeping the framework rigid and stationary
#
# neigh_modify keyword values ...
# keyword = exclude
# values  = group group1-ID group2-ID
#
# group1-ID, group2-ID = exclude if one atom is in 1st group, other in 2nd
###
neigh_modify exclude group fram fram

# ----------------------------- Variables ---------------------- #
dump            NiPyC2_experiment_with_Xe_xyzmov all xyz 5000 NiPyC2_experiment_with_Xe_mov.xyz
dump_modify     NiPyC2_experiment_with_Xe_xyzmov element Ni O N C H Xe
variable        dt         equal 1.00
variable        tdamp      equal 100*${dt}
variable        tdamp      equal 100*1
variable        eqtemp     equal 298.00

# ------------------------------ Equilibriation -------------------------------------------- #
# we do not need to perform equilibriation since we are using a rigid framework
# and the (single) adsorbate has already been inserted into the material via GCMC
# which already included an equilibriation phase.
fix             1 xe langevin ${eqtemp} ${eqtemp} ${tdamp} 8646
fix             1 xe langevin 298 ${eqtemp} ${tdamp} 8646
fix             1 xe langevin 298 298 ${tdamp} 8646
fix             1 xe langevin 298 298 100 8646
fix             2 xe nve
#fix             3 fram langevin 298.00 298.00 ${tdamp} 965287
#fix             4 fram nve
thermo          0
run             50000
Neighbor list info ...
  update every 1 steps, delay 10 steps, check yes
  max neighbors/atom: 2000, page size: 100000
  master list distance cutoff = 16
  ghost atom cutoff = 16
  binsize = 8, bins = 4 5 4
  1 neighbor lists, perpetual/occasional/extra = 1 0 0
  (1) pair lj/cut, perpetual
      attributes: half, newton on
      pair build: half/bin/newton/tri
      stencil: half/bin/3d/newton/tri
      bin: standard
WARNING: Inconsistent image flags (src/domain.cpp:785)
Per MPI rank memory allocation (min/avg/max) = 31.08 | 31.08 | 31.08 Mbytes
Step Temp E_pair E_mol TotEng Press 
       0            0   -7.4059459    41619.617    41612.211   -78625.857 
   50000  0.065045573    -6.838085    41619.617     41613.25   -78616.306 
Loop time of 43.615 on 1 procs for 50000 steps with 2431 atoms

Performance: 99.048 ns/day, 0.242 hours/ns, 1146.394 timesteps/s
99.9% CPU use with 1 MPI tasks x no OpenMP threads

MPI task timing breakdown:
Section |  min time  |  avg time  |  max time  |%varavg| %total
---------------------------------------------------------------
Pair    | 0.94401    | 0.94401    | 0.94401    |   0.0 |  2.16
Bond    | 36.967     | 36.967     | 36.967     |   0.0 | 84.76
Neigh   | 1.4084     | 1.4084     | 1.4084     |   0.0 |  3.23
Comm    | 3.0098     | 3.0098     | 3.0098     |   0.0 |  6.90
Output  | 0.027645   | 0.027645   | 0.027645   |   0.0 |  0.06
Modify  | 0.2816     | 0.2816     | 0.2816     |   0.0 |  0.65
Other   |            | 0.9762     |            |       |  2.24

Nlocal:    2431 ave 2431 max 2431 min
Histogram: 1 0 0 0 0 0 0 0 0 0
Nghost:    16166 ave 16166 max 16166 min
Histogram: 1 0 0 0 0 0 0 0 0 0
Neighs:    1171 ave 1171 max 1171 min
Histogram: 1 0 0 0 0 0 0 0 0 0

Total # of neighbors = 1171
Ave neighs/atom = 0.481695
Ave special neighs/atom = 6.58988
Neighbor list builds = 20
Dangerous builds = 0
unfix           1
unfix           2
#unfix           3
#unfix           4

# --------------------- Production (data gathering) --------------------------------------- #
# A simple way to hold atoms stationary is to not include those atoms in your time integration.
reset_timestep  0

fix             3 xe nvt temp ${eqtemp} ${eqtemp} ${tdamp}
fix             3 xe nvt temp 298 ${eqtemp} ${tdamp}
fix             3 xe nvt temp 298 298 ${tdamp}
fix             3 xe nvt temp 298 298 100
#fix             4 fram rigid/nvt group 1 fram temp ${eqtemp} ${eqtemp} ${tdamp} # hold MOF atoms fixed
#fix             6 fram nvt temp 298.00 298.00 ${tdamp}

###
#  mean-squared disp of grp 1
#
# A vector of four quantities is calculated by this compute:
# The first 3 elements of the vector are the squared dx,dy,dz displacements, summed and averaged over atoms in the group.
# The fourth element is the total squared displacement, i.e. (dx*dx + dy*dy + dz*dz),
#  summed and averaged over atoms in the group.
#
# The slope of the MSD versus time is proportional to the diffusion coefficient.
# MSD values can be accumulated in a vector via the fix vector command,
#   and a line fit to the vector to compute its slope via the variable slope function,
#   and thus extract D.
#
# fix ID group-ID vector Nevery value1 value2 ...
#
# c_ID[I] = Ith component of global vector calculated by a compute with ID
# f_ID = global scalar calculated by a fix with ID
# v_name = value calculated by an equal-style variable with name
#
# variable name style args...
#
# The slope() function uses linear regression to fit a line to the set of points,
#   equally spaced by 1 in their x coordinate: (1,V1), (2,V2), …, (N,VN),
#   where the Vi are the values in the global vector of length N.
#   The returned value is the slope of the line.
#   If the line has a single point or is vertical, it returns 1.0e20.
###
compute         msd all msd average yes
#variable        twopoint equal c_msd[4]/6/(step*dt+1.0e-6) # scaled r_sqr(t)... not used? idk what this is for...
fix             5 xe vector 5 c_msd[4]
variable        fitslope equal slope(f_5)/6/(5*dt) # why dividing slope?

thermo_style    custom step v_eqtemp c_msd[4] v_fitslope # prints this info to log file

thermo          1000
run             1000000
WARNING: Inconsistent image flags (src/domain.cpp:785)
Per MPI rank memory allocation (min/avg/max) = 31.83 | 31.83 | 31.83 Mbytes
Step v_eqtemp c_msd[4] v_fitslope 
       0          298    374.96183 3.3333333e+18 
    1000          298    374.95772 -8.9665466e-07 
    2000          298    374.96499 9.4574939e-07 
    3000          298    374.96786 6.7468676e-07 
    4000          298    374.96722 4.375178e-07 
    5000          298    374.96139 2.5413001e-07 
    6000          298    374.97296 2.4589618e-07 
    7000          298    374.96234 2.1382684e-07 
    8000          298    374.96894 1.3420693e-07 
    9000          298    374.97364 1.5111343e-07 
   10000          298    374.96527 1.5066043e-07 
   11000          298    374.96992 1.1898337e-07 
   12000          298    374.97089 1.0564638e-07 
   13000          298    374.96805 9.7603761e-08 
   14000          298    374.96397 8.5717151e-08 
   15000          298    374.97225 6.9769591e-08 
   16000          298    374.96642 6.5869216e-08 
   17000          298    374.97217 6.9723812e-08 
   18000          298    374.96542 5.6931413e-08 
   19000          298    374.96522 5.0013516e-08 
   20000          298      374.969 4.3053073e-08 
   21000          298    374.96657 3.4465845e-08 
   22000          298    374.97039 3.893652e-08 
   23000          298    374.96966 3.6412093e-08 
   24000          298    374.96285 3.2126933e-08 
   25000          298    374.96621 2.7143969e-08 
   26000          298    374.96942 2.0788282e-08 
   27000          298    374.96971 2.5874805e-08 
   28000          298    374.97454 2.6749737e-08 
   29000          298    374.96184 2.5837244e-08 
   30000          298    374.96984 2.1488945e-08 
   31000          298    374.96755 1.651687e-08 
   32000          298    374.96295 1.5385223e-08 
   33000          298    374.97402 1.4424159e-08 
   34000          298    374.96903 1.5669066e-08 
   35000          298    374.96783 1.7247357e-08 
   36000          298    374.96709 1.4552629e-08 
   37000          298    374.96497 1.3102654e-08 
   38000          298     374.9646 1.1891944e-08 
   39000          298    374.97179 9.8325136e-09 
   40000          298    374.96628 1.2129709e-08 
   41000          298    374.97332 1.1434612e-08 
   42000          298    374.96634 1.1709011e-08 
   43000          298    374.97176 1.3362878e-08 
   44000          298    374.96244 1.0850625e-08 
   45000          298     374.9703 1.0481317e-08 
   46000          298    374.97118 1.0764014e-08 
   47000          298    374.96305 1.0379459e-08 
   48000          298    374.96682 8.9753474e-09 
   49000          298     374.9668 6.7172307e-09 
   50000          298    374.97152 8.4303112e-09 
   51000          298    374.97219 8.0447017e-09 
   52000          298    374.96578 9.1935536e-09 
   53000          298    374.97245 8.1627723e-09 
   54000          298    374.96567 8.0720034e-09 
   55000          298    374.97256 8.6921054e-09 
   56000          298    374.96118 7.1421477e-09 
   57000          298    374.97505 7.3846578e-09 
   58000          298    374.96161 6.7946832e-09 
   59000          298    374.97075 6.1024812e-09 
   60000          298    374.96965 5.8542257e-09 
   61000          298    374.96688 5.9304795e-09 
   62000          298     374.9704 5.1782965e-09 
   63000          298    374.96841 5.2519583e-09 
   64000          298    374.96614 4.6303081e-09 
   65000          298    374.96799 4.3188185e-09 
   66000          298    374.96639 4.2432802e-09 
   67000          298    374.96771 4.0242317e-09 
   68000          298     374.9685 3.6196611e-09 
   69000          298    374.96682 3.2703415e-09 
   70000          298    374.96654 3.0905877e-09 
   71000          298    374.97097 2.9326441e-09 
   72000          298    374.96877 3.0021735e-09 
   73000          298    374.96458 2.8785171e-09 
   74000          298    374.97149 2.5233744e-09 
   75000          298    374.96567 2.8724403e-09 
   76000          298    374.96705 2.8275975e-09 
   77000          298    374.97087 2.3211438e-09 
   78000          298    374.96071 2.0362951e-09 
   79000          298    374.97512 2.0043007e-09 
   80000          298     374.9682 2.3886124e-09 
   81000          298    374.97034 2.9339177e-09 
   82000          298    374.96764  2.73986e-09 
   83000          298    374.97266 2.8332024e-09 
   84000          298    374.96624 3.0687347e-09 
   85000          298    374.96983 2.7323159e-09 
   86000          298    374.97014 3.086785e-09 
   87000          298    374.96676 2.9679514e-09 
   88000          298    374.96603 2.3429373e-09 
   89000          298     374.9716 2.5552823e-09 
   90000          298    374.96402 2.1284302e-09 
   91000          298    374.96644 2.137699e-09 
   92000          298    374.96973 1.9312101e-09 
   93000          298     374.9692 1.9583818e-09 
   94000          298    374.96869 2.0012956e-09 
   95000          298    374.96499 1.8857414e-09 
   96000          298    374.97332 1.7680821e-09 
   97000          298     374.9676 2.0546655e-09 
   98000          298    374.96723 2.1230187e-09 
   99000          298     374.9678 1.8542997e-09 
  100000          298    374.96475 1.5361779e-09 
  101000          298    374.96874 1.5398719e-09 
  102000          298    374.96689 1.4066873e-09 
  103000          298    374.96449 1.0827384e-09 
  104000          298    374.96915 1.0911631e-09 
  105000          298    374.96442 8.5594091e-10 
  106000          298    374.96823 6.7615683e-10 
  107000          298    374.96924 8.8634412e-10 
  108000          298    374.96586 6.5702763e-10 
  109000          298    374.96828 6.2401841e-10 
  110000          298    374.96802 7.9533725e-10 
  111000          298    374.96621 4.1181339e-10 
  112000          298    374.96094 3.2932877e-10 
  113000          298    374.97252 2.0897842e-10 
  114000          298    374.96883 4.1658143e-10 
  115000          298    374.96457 4.8501701e-10 
  116000          298     374.9689 3.0112115e-10 
  117000          298    374.96949 4.7395012e-10 
  118000          298    374.96515 2.866057e-10 
  119000          298    374.97095 3.967347e-10 
  120000          298    374.96304 2.5482215e-10 
  121000          298    374.96933 1.7794797e-10 
  122000          298    374.97004 4.2042624e-10 
  123000          298    374.96682 3.5472976e-10 
  124000          298    374.97129 4.5836652e-10 
  125000          298    374.97026 6.4754265e-10 
  126000          298    374.96523 5.1549006e-10 
  127000          298    374.96817 5.5875558e-10 
  128000          298     374.9694 6.5496529e-10 
  129000          298    374.96931 6.303349e-10 
  130000          298    374.96871 6.7771249e-10 
  131000          298    374.96894 7.6568208e-10 
  132000          298      374.965 7.0995134e-10 
  133000          298    374.97012 6.8563337e-10 
  134000          298    374.96728 7.566969e-10 
  135000          298    374.96814 6.6236571e-10 
  136000          298    374.96844 7.2837325e-10 
  137000          298    374.96569 6.2089799e-10 
  138000          298    374.96993 5.5544888e-10 
  139000          298    374.96717 6.0551542e-10 
  140000          298    374.96941 5.3129076e-10 
  141000          298    374.97021 6.2585844e-10 
  142000          298    374.96532 5.6253383e-10 
  143000          298     374.9693 5.6028642e-10 
  144000          298    374.96887 6.5240137e-10 
  145000          298    374.96822 6.944996e-10 
  146000          298    374.97034 6.7030036e-10 
  147000          298    374.96998 7.3182312e-10 
  148000          298    374.96403 7.2581355e-10 
  149000          298    374.97384 6.9461952e-10 
  150000          298    374.96866 8.8912684e-10 
  151000          298    374.96916 9.9960138e-10 
  152000          298    374.96959 9.6397368e-10 
  153000          298    374.97083 1.0199937e-09 
  154000          298    374.96769 1.1038319e-09 
  155000          298    374.96783 1.0667388e-09 
  156000          298    374.97282 1.1171401e-09 
  157000          298    374.96425 1.1759033e-09 
  158000          298     374.9715 1.0469176e-09 
  159000          298    374.96685 1.2212067e-09 
  160000          298    374.96982 1.1494468e-09 
  161000          298    374.97021  1.14442e-09 
  162000          298    374.96872 1.3171126e-09 
  163000          298    374.96531 1.126569e-09 
  164000          298     374.9733 1.2878856e-09 
  165000          298    374.96347 1.1730471e-09 
  166000          298    374.97436 1.2243667e-09 
  167000          298    374.96942 1.278614e-09 
  168000          298    374.96494 1.2671745e-09 
  169000          298    374.97636 1.2653824e-09 
  170000          298    374.96347 1.3281545e-09 
  171000          298    374.97217 1.234862e-09 
  172000          298    374.96835 1.3394612e-09 
  173000          298    374.96819 1.3410034e-09 
  174000          298     374.9704 1.2768304e-09 
  175000          298    374.96585 1.2063897e-09 
  176000          298    374.97003 1.1937552e-09 
  177000          298    374.96657 1.2103054e-09 
  178000          298    374.96948 1.0928482e-09 
  179000          298    374.96802 1.1745898e-09 
  180000          298    374.96616 1.0566522e-09 
  181000          298    374.97304 1.0977474e-09 
  182000          298      374.966 1.1008095e-09 
  183000          298    374.96942 1.0362798e-09 
  184000          298    374.96829 1.084495e-09 
  185000          298    374.96501 9.8944513e-10 
  186000          298     374.9722 1.0241102e-09 
  187000          298    374.96264 9.410924e-10 
  188000          298    374.96533 9.0146921e-10 
  189000          298    374.97101 8.1609298e-10 
  190000          298    374.97118 8.9346429e-10 
  191000          298    374.96941 9.8650209e-10 
  192000          298    374.96971 9.4945311e-10 
  193000          298    374.97229 1.0431134e-09 
  194000          298    374.96988 1.093598e-09 
  195000          298    374.96445 1.0051083e-09 
  196000          298    374.97519 1.056192e-09 
  197000          298    374.96773 1.0612148e-09 
  198000          298    374.96931 1.1271324e-09 
  199000          298    374.97378 1.1105353e-09 
  200000          298    374.96549 1.1933703e-09 
  201000          298    374.96946 1.1069909e-09 
  202000          298    374.96763 1.0715505e-09 
  203000          298    374.96613 1.0508035e-09 
  204000          298    374.97154 1.0223859e-09 
  205000          298    374.96855 1.0628695e-09 
  206000          298    374.97158  1.15238e-09 
  207000          298    374.96586 1.0755903e-09 
  208000          298    374.96369 1.0547912e-09 
  209000          298    374.96909 1.0211864e-09 
  210000          298     374.9668 9.2041282e-10 
  211000          298     374.9712 9.9680853e-10 
  212000          298     374.9716 1.0287153e-09 
  213000          298    374.96848 1.0084305e-09 
  214000          298     374.9695 1.0044959e-09 
  215000          298    374.96863 1.0333842e-09 
  216000          298    374.96567 1.0130516e-09 
  217000          298    374.96989 9.5624897e-10 
  218000          298    374.96979 1.0149345e-09 
  219000          298    374.96486 9.4456404e-10 
  220000          298    374.97226 9.6833757e-10 
  221000          298    374.96237 9.1136214e-10 
  222000          298    374.96593 8.6595528e-10 
  223000          298    374.97096 8.4182761e-10 
  224000          298    374.96738 8.3689889e-10 
  225000          298     374.9655 8.0414451e-10 
  226000          298    374.97105 8.0505042e-10 
  227000          298     374.9688 8.1306237e-10 
  228000          298    374.96624 7.7866286e-10 
  229000          298     374.9695 7.5654745e-10 
  230000          298    374.96754 8.0147432e-10 
  231000          298    374.96634 7.0853362e-10 
  232000          298    374.96164 6.7954073e-10 
  233000          298    374.97294 7.2969024e-10 
  234000          298    374.96353 8.1590538e-10 
  235000          298    374.97032 8.653454e-10 
  236000          298    374.96804 1.0867792e-09 
  237000          298    374.96728 1.1903876e-09 
  238000          298    374.97373 1.5567086e-09 
  239000          298    374.96655 2.1071866e-09 
  240000          298    374.96901 2.6256352e-09 
  241000          298    374.96838 4.6892742e-09 
  242000          298    374.96854 9.9845263e-09 
  243000          298    374.96703 -4.1293504e-08 
  244000          298    374.97105 -7.322761e-09 
  245000          298    374.96886 -3.9040074e-09 
  246000          298    374.96415 -2.6218366e-09 
  247000          298    374.96793 -1.9611799e-09 
  248000          298    374.96902 -1.4217174e-09 
  249000          298    374.97061 -1.3728475e-09 
  250000          298    374.96461 -1.0870524e-09 
  251000          298    374.97094 -9.7573734e-10 
  252000          298    374.96763 -9.224301e-10 
  253000          298    374.96798 -8.1583017e-10 
  254000          298    374.97172 -7.9763458e-10 
  255000          298    374.96493 -7.3657041e-10 
  256000          298    374.97133 -6.5977535e-10 
  257000          298      374.969 -6.8878188e-10 
  258000          298    374.96589 -6.0422508e-10 
  259000          298    374.97325 -5.980643e-10 
  260000          298    374.96881 -5.895041e-10 
  261000          298    374.96843 -5.4481898e-10 
  262000          298    374.97087 -5.5233651e-10 
  263000          298    374.96313 -5.1290277e-10 
  264000          298    374.97488 -4.8836871e-10 
  265000          298    374.96429 -5.0096134e-10 
  266000          298    374.97085 -4.5120671e-10 
  267000          298    374.96843 -4.3382924e-10 
  268000          298    374.96842 -4.2177754e-10 
  269000          298    374.97007 -3.9439097e-10 
  270000          298    374.96638 -3.800636e-10 
  271000          298    374.96664 -3.6828203e-10 
  272000          298    374.97411 -3.4831767e-10 
  273000          298    374.96506 -3.6358059e-10 
  274000          298    374.96858 -3.2142845e-10 
  275000          298    374.96915 -3.1075656e-10 
  276000          298    374.96488 -3.0005291e-10 
  277000          298    374.97276 -2.8458506e-10 
  278000          298    374.96886 -3.0333295e-10 
  279000          298    374.96981 -3.1760237e-10 
  280000          298    374.96743 -2.9125587e-10 
  281000          298     374.9626 -2.7834671e-10 
  282000          298    374.97563 -2.7295773e-10 
  283000          298    374.96435 -2.8195369e-10 
  284000          298    374.96869 -2.681456e-10 
  285000          298    374.96916 -2.4991002e-10 
  286000          298    374.96856 -2.6470959e-10 
  287000          298     374.9681 -2.4110058e-10 
  288000          298    374.97044 -2.462206e-10 
  289000          298    374.96446 -2.3638236e-10 
  290000          298     374.9669 -2.2324606e-10 
  291000          298    374.96924 -2.0115787e-10 
  292000          298     374.9714 -2.2251485e-10 
  293000          298    374.96481 -2.0879519e-10 
  294000          298    374.97265 -2.0833304e-10 
  295000          298    374.96267 -2.0139743e-10 
  296000          298    374.96679 -1.864928e-10 
  297000          298    374.96715 -1.6242723e-10 
  298000          298    374.96899 -1.7224285e-10 
  299000          298    374.96509 -1.5646603e-10 
  300000          298    374.97505 -1.6466066e-10 
  301000          298    374.96168 -1.644623e-10 
  302000          298    374.96766 -1.5103908e-10 
  303000          298    374.96664 -1.2866638e-10 
  304000          298    374.97121 -1.4124334e-10 
  305000          298    374.96894 -1.4626039e-10 
  306000          298    374.96676  -1.3944e-10 
  307000          298    374.97099 -1.4198324e-10 
  308000          298    374.96829 -1.4304616e-10 
  309000          298    374.96659 -1.2756445e-10 
  310000          298    374.96974 -1.3507157e-10 
  311000          298     374.9652 -1.2307463e-10 
  312000          298    374.97128 -1.2367563e-10 
  313000          298    374.96676 -1.3067884e-10 
  314000          298    374.96845 -1.2341234e-10 
  315000          298    374.97319 -1.3592014e-10 
  316000          298    374.96494 -1.3681895e-10 
  317000          298    374.97157 -1.3030341e-10 
  318000          298    374.96697 -1.4487075e-10 
  319000          298    374.96772 -1.3000726e-10 
  320000          298    374.97273 -1.4626866e-10 
  321000          298    374.96795 -1.4737315e-10 
  322000          298    374.96709 -1.3523008e-10 
  323000          298    374.96964 -1.3873032e-10 
  324000          298    374.96336 -1.2828316e-10 
  325000          298    374.97338 -1.3032364e-10 
  326000          298    374.96211 -1.2461879e-10 
  327000          298     374.9673 -1.1707178e-10 
  328000          298    374.97015 -1.1304678e-10 
  329000          298    374.96342 -1.1204594e-10 
  330000          298    374.96705 -1.0549934e-10 
  331000          298     374.9684 -9.3541939e-11 
  332000          298     374.9694 -1.0847339e-10 
  333000          298    374.97192 -1.0679159e-10 
  334000          298      374.963 -1.1441732e-10 
  335000          298     374.9725 -1.0070281e-10 
  336000          298    374.96783 -1.1405331e-10 
  337000          298     374.9737 -1.2152484e-10 
  338000          298    374.96541 -1.1858433e-10 
  339000          298      374.965 -1.1595826e-10 
  340000          298    374.97138 -1.0836635e-10 
  341000          298    374.96785 -1.0660115e-10 
  342000          298     374.9702 -1.1502113e-10 
  343000          298    374.96596 -1.0040932e-10 
  344000          298    374.97101 -1.1057337e-10 
  345000          298    374.96498 -1.0149353e-10 
  346000          298    374.96628 -1.0135414e-10 
  347000          298    374.97413 -1.0501991e-10 
  348000          298    374.96514 -1.0828641e-10 
  349000          298    374.96766 -1.01004e-10 
  350000          298     374.9712 -1.0144706e-10 
  351000          298    374.96849 -1.0726902e-10 
  352000          298    374.96851 -1.0339196e-10 
  353000          298    374.97077 -1.1227644e-10 
  354000          298    374.96792 -1.142599e-10 
  355000          298    374.96821 -1.0679375e-10 
  356000          298    374.97034 -1.1888164e-10 
  357000          298     374.9689 -1.1904126e-10 
  358000          298    374.97094 -1.1768504e-10 
  359000          298    374.96725 -1.2523967e-10 
  360000          298      374.975 -1.379203e-10 
  361000          298    374.96148 -1.3106259e-10 
  362000          298    374.96685 -1.2785538e-10 
  363000          298    374.96991 -1.1437268e-10 
  364000          298    374.96977 -1.276172e-10 
  365000          298    374.96896 -1.2468639e-10 
  366000          298    374.96623 -1.1756925e-10 
  367000          298     374.9701 -1.2004767e-10 
  368000          298     374.9632 -1.1268692e-10 
  369000          298    374.97627 -1.184562e-10 
  370000          298    374.96252 -1.1990314e-10 
  371000          298    374.96945 -1.1394348e-10 
  372000          298     374.9669 -1.1458853e-10 
  373000          298     374.9686 -1.1175244e-10 
  374000          298    374.97085 -1.0841429e-10 
  375000          298    374.96869 -1.2296216e-10 
  376000          298    374.96605 -1.0934517e-10 
  377000          298    374.97213 -1.2162187e-10 
  378000          298    374.96251 -1.1128706e-10 
  379000          298    374.97016 -1.1202824e-10 
  380000          298    374.97037 -1.1589056e-10 
  381000          298    374.96579 -1.1603003e-10 
  382000          298    374.96776 -1.1331458e-10 
  383000          298    374.97362 -1.1717698e-10 
  384000          298    374.96258 -1.1546694e-10 
  385000          298    374.96754 -1.0756584e-10 
  386000          298    374.97097 -1.0421817e-10 
  387000          298    374.96325 -1.0596752e-10 
  388000          298    374.96882 -9.634035e-11 
  389000          298    374.96505 -8.6993649e-11 
  390000          298    374.96836 -8.8660493e-11 
  391000          298    374.96707 -8.4490832e-11 
  392000          298     374.9665 -7.6920364e-11 
  393000          298    374.96909 -7.9108488e-11 
  394000          298     374.9655 -7.4389176e-11 
  395000          298    374.96798 -6.9602687e-11 
  396000          298    374.96985 -7.6518194e-11 
  397000          298    374.96451 -6.4893147e-11 
  398000          298    374.96164 -6.0729896e-11 
  399000          298    374.97255 -5.4079481e-11 
  400000          298    374.96444 -5.6837164e-11 
  401000          298    374.96852 -4.9184036e-11 
  402000          298    374.96965 -5.5606978e-11 
  403000          298    374.96649 -5.1398169e-11 
  404000          298    374.97383 -5.5544391e-11 
  405000          298    374.96548 -5.9598239e-11 
  406000          298    374.96987 -5.3400281e-11 
  407000          298    374.96905 -6.4594757e-11 
  408000          298    374.96454 -5.4409952e-11 
  409000          298    374.97425 6.0043264e-11 
  410000          298    374.96921 6.5322525e-11 
  411000          298    374.96719 6.3623048e-11 
  412000          298    374.97073 6.9668286e-11 
  413000          298    374.96276 6.9345175e-11 
  414000          298    374.97464 6.868285e-11 
  415000          298    374.96507 8.0635118e-11 
  416000          298    374.97059 7.3183895e-11 
  417000          298     374.9685 7.3694699e-11 
  418000          298    374.96567 7.9070608e-11 
  419000          298    374.97026 6.963909e-11 
  420000          298    374.96296 6.4374975e-11 
  421000          298    374.97009 6.8423347e-11 
  422000          298    374.97241 7.5524232e-11 
  423000          298    374.96436 8.4630677e-11 
  424000          298     374.9714 7.4974035e-11 
  425000          298    374.96668 9.3789995e-11 
  426000          298    374.97071 9.335145e-11 
  427000          298    374.96634 8.8628868e-11 
  428000          298    374.97009 1.041589e-10 
  429000          298    374.96883 1.008077e-10 
  430000          298    374.96268 1.0406422e-10 
  431000          298    374.96875 1.0167806e-10 
  432000          298    374.96985 9.9136228e-11 
  433000          298    374.96673 1.1251108e-10 
  434000          298    374.96744 1.1876307e-10 
  435000          298    374.96725 1.033089e-10 
  436000          298    374.97174 1.3122309e-10 
  437000          298    374.97092 1.327096e-10 
  438000          298    374.96648 1.494346e-10 
  439000          298    374.97572 1.6732996e-10 
  440000          298    374.96297 1.7263087e-10 
  441000          298    374.96953 1.7424967e-10 
  442000          298    374.96949 1.6826129e-10 
  443000          298     374.9654 1.7140594e-10 
  444000          298    374.97298 1.8543339e-10 
  445000          298    374.96273 1.7893356e-10 
  446000          298    374.97528 1.977351e-10 
  447000          298    374.96661 2.1695655e-10 
  448000          298    374.96696 2.2092182e-10 
  449000          298    374.96796 2.276079e-10 
  450000          298     374.9647 2.4016332e-10 
  451000          298    374.97146 2.2384981e-10 
  452000          298    374.96826 2.8638149e-10 
  453000          298     374.9677 2.642584e-10 
  454000          298    374.96868 2.8704263e-10 
  455000          298    374.96722 2.974708e-10 
  456000          298    374.96611 3.0832699e-10 
  457000          298    374.97477 3.688472e-10 
  458000          298    374.96199 3.9118403e-10 
  459000          298    374.97282 4.2075279e-10 
  460000          298    374.96474 4.6098453e-10 
  461000          298    374.96879 4.9138771e-10 
  462000          298     374.9713 5.1645658e-10 
  463000          298    374.96315 5.8881364e-10 
  464000          298    374.96998 6.4201274e-10 
  465000          298    374.96771 6.3680218e-10 
  466000          298    374.96807 8.5516069e-10 
  467000          298    374.97331 1.060698e-09 
  468000          298    374.96421 1.5149613e-09 
  469000          298    374.97013 2.1277278e-09 
  470000          298    374.96841 3.824607e-09 
  471000          298    374.96447 9.2763429e-08 
  472000          298    374.97484 -4.1578412e-09 
  473000          298     374.9666 -2.1692305e-09 
  474000          298    374.97034 -1.5486016e-09 
  475000          298    374.96755 -1.0092952e-09 
  476000          298    374.96724 -8.2936317e-10 
  477000          298    374.96941 -7.2251219e-10 
  478000          298    374.96746 -5.8322115e-10 
  479000          298    374.96883 -5.0126571e-10 
  480000          298    374.96766 -4.6478063e-10 
  481000          298    374.96834 -4.0702294e-10 
  482000          298    374.96868 -3.5594196e-10 
  483000          298    374.96656 -3.2289463e-10 
  484000          298    374.97272 -3.3607643e-10 
  485000          298     374.9737 -3.3919288e-10 
  486000          298    374.96634 -3.6480071e-10 
  487000          298    374.96847 -3.0491439e-10 
  488000          298    374.97131 -3.3597582e-10 
  489000          298      374.966 -3.1413854e-10 
  490000          298    374.97222 -3.0079751e-10 
  491000          298     374.9699 -3.1646777e-10 
  492000          298    374.96856 -3.2611234e-10 
  493000          298    374.97035 -3.1151095e-10 
  494000          298    374.97267 -3.2259874e-10 
  495000          298    374.96537 -3.1724564e-10 
  496000          298    374.97089 -2.9344144e-10 
  497000          298    374.96972 -3.0731298e-10 
  498000          298    374.96541 -2.8855225e-10 
  499000          298    374.97073 -2.7258701e-10 
  500000          298     374.9672 -2.7155122e-10 
  501000          298    374.97087 -2.5071777e-10 
  502000          298    374.96905 -2.6953142e-10 
  503000          298    374.96502 -2.4036068e-10 
  504000          298    374.97116 -2.4742527e-10 
  505000          298    374.96677 -2.4297796e-10 
  506000          298    374.96832 -2.2803478e-10 
  507000          298     374.9722 -2.4483427e-10 
  508000          298    374.96236 -2.2274137e-10 
  509000          298    374.97551 -2.2094401e-10 
  510000          298    374.96884 -2.2924516e-10 
  511000          298    374.96479 -2.316231e-10 
  512000          298    374.97143 -2.0721351e-10 
  513000          298    374.96475 -2.1330925e-10 
  514000          298    374.97462 -2.0971274e-10 
  515000          298    374.96274 -2.0345275e-10 
  516000          298    374.96858 -1.9458168e-10 
  517000          298    374.97013 -1.7598291e-10 
  518000          298    374.96368 -1.6984135e-10 
  519000          298    374.97586 -1.7317307e-10 
  520000          298    374.96385 -1.6796895e-10 
  521000          298    374.96926 -1.6709174e-10 
  522000          298    374.96893 -1.4981561e-10 
  523000          298    374.96328 -1.4105748e-10 
  524000          298    374.97526 1.4656323e-10 
  525000          298    374.96921 1.6077187e-10 
  526000          298    374.97068 1.8763299e-10 
  527000          298    374.96584 1.7948687e-10 
  528000          298    374.96302 1.8318797e-10 
  529000          298    374.97135 1.8531888e-10 
  530000          298    374.96556 1.9514067e-10 
  531000          298    374.96756 2.0388862e-10 
  532000          298     374.9702 1.9645425e-10 
  533000          298    374.96915 2.3353206e-10 
  534000          298    374.96452 2.1820298e-10 
  535000          298    374.96914 2.3947738e-10 
  536000          298    374.96767 2.4818947e-10 
  537000          298    374.96661 2.5980138e-10 
  538000          298    374.96794 2.7098344e-10 
  539000          298    374.96742 2.6772164e-10 
  540000          298    374.96846 2.8857395e-10 
  541000          298    374.96712 3.1218076e-10 
  542000          298    374.96575 3.2142152e-10 
  543000          298     374.9707 3.3417333e-10 
  544000          298    374.96576 3.8876152e-10 
  545000          298    374.97055 3.8524529e-10 
  546000          298     374.9684 4.5616672e-10 
  547000          298    374.96563 4.5844966e-10 
  548000          298    374.96834 5.042068e-10 
  549000          298    374.96631 5.7342419e-10 
  550000          298    374.97352 6.5793727e-10 
  551000          298    374.96769 8.5586001e-10 
  552000          298    374.97394 1.1692019e-09 
  553000          298    374.96342 1.4024223e-09 
  554000          298    374.96584 1.8359741e-09 
  555000          298    374.97046 2.6614914e-09 
  556000          298    374.96737 5.5679398e-09 
  557000          298    374.97137 -7.6768228e-08 
  558000          298    374.96328 -4.6229951e-09 
  559000          298     374.9745 -2.596704e-09 
  560000          298    374.96806 -1.7605458e-09 
  561000          298    374.96587 -1.3914774e-09 
  562000          298    374.97596 -1.1183194e-09 
  563000          298    374.96294 -1.0108873e-09 
  564000          298    374.97101 -8.0746627e-10 
  565000          298    374.96979 -7.2090292e-10 
  566000          298    374.96894 -7.2164674e-10 
  567000          298     374.9644 -5.8537542e-10 
  568000          298    374.97375 -5.7223097e-10 
  569000          298    374.96616 -5.2722499e-10 
  570000          298    374.96995 -4.7853623e-10 
  571000          298    374.97073 -4.822092e-10 
  572000          298    374.96455 -4.1893871e-10 
  573000          298    374.97431 -4.19526e-10 
  574000          298    374.96537 -3.9723726e-10 
  575000          298    374.96899 -3.7395877e-10 
  576000          298    374.97407 -3.8628175e-10 
  577000          298    374.96243 -3.6482796e-10 
  578000          298    374.97619 -3.4206228e-10 
  579000          298     374.9629 -3.4506249e-10 
  580000          298    374.97146 -3.1162355e-10 
  581000          298    374.96976 -3.3003856e-10 
  582000          298    374.96615 -3.2036862e-10 
  583000          298    374.97119 -3.0020042e-10 
  584000          298    374.96772 -3.1388116e-10 
  585000          298    374.96768 -2.8222671e-10 
  586000          298    374.97171 -2.888914e-10 
  587000          298    374.96684 -2.843243e-10 
  588000          298    374.96998 -2.647252e-10 
  589000          298    374.96761 2.9055376e-10 
  590000          298    374.96718 2.848193e-10 
  591000          298    374.97225 3.0914784e-10 
  592000          298    374.96819 3.316533e-10 
  593000          298    374.96658 3.3061604e-10 
  594000          298    374.97088 3.5737649e-10 
  595000          298    374.96342 3.6577532e-10 
  596000          298    374.97588 3.8731072e-10 
  597000          298    374.96272 4.2283731e-10 
  598000          298    374.97032 4.1891797e-10 
  599000          298     374.9641 4.1052743e-10 
  600000          298    374.97202 4.488138e-10 
  601000          298    374.96408 4.7345838e-10 
  602000          298    374.97122 4.8850063e-10 
  603000          298    374.96539 5.3015712e-10 
  604000          298    374.96774 5.3551361e-10 
  605000          298     374.9743 6.009812e-10 
  606000          298    374.96575 6.7486673e-10 
  607000          298    374.97022 7.1852007e-10 
  608000          298    374.97138 8.2532579e-10 
  609000          298    374.96682 9.5069116e-10 
  610000          298    374.97068 1.0465157e-09 
  611000          298    374.97072 1.2108897e-09 
  612000          298    374.96346 1.3754805e-09 
  613000          298    374.97499 1.631023e-09 
  614000          298    374.96828 2.2931173e-09 
  615000          298    374.97089 3.571422e-09 
  616000          298    374.96782 6.7191395e-09 
  617000          298    374.97224 5.7633133e-08 
  618000          298    374.96661 -9.3023809e-09 
  619000          298    374.96902 -4.188574e-09 
  620000          298    374.97086 -2.8146454e-09 
  621000          298    374.96889 -2.1394939e-09 
  622000          298    374.96648 -1.6458102e-09 
  623000          298    374.97241 -1.4216701e-09 
  624000          298    374.96537 -1.2127271e-09 
  625000          298    374.96973 -1.0408022e-09 
  626000          298    374.96638 -9.3813629e-10 
  627000          298    374.96799 -8.0474731e-10 
  628000          298    374.96851 -7.2203331e-10 
  629000          298      374.965 -6.6819134e-10 
  630000          298    374.97052 -5.828171e-10 
  631000          298      374.963 -5.1744452e-10 
  632000          298    374.97312 -4.9916247e-10 
  633000          298    374.97084 -4.7909001e-10 
  634000          298    374.96359 -4.5228251e-10 
  635000          298    374.97143 -4.1485397e-10 
  636000          298    374.97046 -4.1550638e-10 
  637000          298     374.9664 -3.9862606e-10 
  638000          298    374.97041 -3.7038921e-10 
  639000          298    374.96977 3.8823386e-10 
  640000          298     374.9657 3.9684696e-10 
  641000          298    374.97038 4.1547935e-10 
  642000          298    374.96325 4.3701753e-10 
  643000          298    374.96781 4.4418653e-10 
  644000          298     374.9669 4.4747166e-10 
  645000          298    374.97138 5.0410015e-10 
  646000          298    374.97242 5.7454311e-10 
  647000          298    374.96642 6.2380171e-10 
  648000          298    374.97288 7.0210444e-10 
  649000          298    374.97079 8.0898746e-10 
  650000          298    374.96458 8.8133334e-10 
  651000          298    374.97043 9.7459431e-10 
  652000          298     374.9665 1.1370178e-09 
  653000          298    374.96922 1.2919199e-09 
  654000          298     374.9684 1.5622625e-09 
  655000          298    374.96792 1.9335071e-09 
  656000          298      374.968 2.3380138e-09 
  657000          298    374.97114 3.5508411e-09 
  658000          298    374.96349 5.5735805e-09 
  659000          298    374.96767 1.6825162e-08 
  660000          298    374.96975 -1.6958681e-08 
  661000          298      374.963 -5.6430942e-09 
  662000          298    374.96885 -3.3162835e-09 
  663000          298    374.96916 -2.2930955e-09 
  664000          298    374.97003 -1.8971901e-09 
  665000          298    374.97468 -1.6279396e-09 
  666000          298    374.96153 -1.3814073e-09 
  667000          298    374.96933 -1.164345e-09 
  668000          298     374.9681 -9.6423595e-10 
  669000          298    374.96989 -9.067862e-10 
  670000          298    374.97437 -8.3768769e-10 
  671000          298    374.96546 -7.8634955e-10 
  672000          298    374.97015 -7.2340515e-10 
  673000          298    374.96979 -6.7913279e-10 
  674000          298    374.96778 -6.2346565e-10 
  675000          298    374.96743 -5.7503372e-10 
  676000          298    374.97219 -5.6349352e-10 
  677000          298    374.96928 -5.3225909e-10 
  678000          298     374.9638 -5.0025971e-10 
  679000          298    374.96849 -4.6197297e-10 
  680000          298     374.9669 4.2475651e-10 
  681000          298    374.97061 4.7307403e-10 
  682000          298    374.96408 4.8281543e-10 
  683000          298    374.97502 5.2161651e-10 
  684000          298    374.96278 5.7009798e-10 
  685000          298    374.96885 5.8418122e-10 
  686000          298    374.96682 6.0296327e-10 
  687000          298    374.96684 6.6077319e-10 
  688000          298    374.97597 7.5021202e-10 
  689000          298    374.96359 8.2079042e-10 
  690000          298    374.97103 8.9624877e-10 
  691000          298    374.97102 1.0735636e-09 
  692000          298    374.96546 1.1923997e-09 
  693000          298    374.97413 1.422003e-09 
  694000          298    374.96729 1.7567296e-09 
  695000          298    374.96733 2.0806326e-09 
  696000          298    374.97086 3.0653329e-09 
  697000          298    374.96803 5.0401264e-09 
  698000          298    374.96904 1.5853415e-08 
  699000          298     374.9719 -1.5248811e-08 
  700000          298    374.96555 -5.1450713e-09 
  701000          298    374.97511 -3.2411715e-09 
  702000          298     374.9691 -2.3830765e-09 
  703000          298    374.96456 -1.8380207e-09 
  704000          298    374.97258 -1.5346477e-09 
  705000          298    374.96441 -1.2858584e-09 
  706000          298    374.96901 -1.1056977e-09 
  707000          298    374.97038 -9.6811827e-10 
  708000          298      374.964 -8.355515e-10 
  709000          298    374.97525 -7.7779592e-10 
  710000          298    374.97032 -7.2698889e-10 
  711000          298    374.96625 -6.9477862e-10 
  712000          298     374.9733 -6.2923512e-10 
  713000          298    374.96569 -6.0667878e-10 
  714000          298    374.97553 5.9865635e-10 
  715000          298    374.96385 6.444403e-10 
  716000          298    374.96766 6.8573804e-10 
  717000          298     374.9706 7.2096599e-10 
  718000          298    374.96583 7.8234107e-10 
  719000          298    374.97236 8.8623436e-10 
  720000          298    374.96292 9.433698e-10 
  721000          298     374.9739 1.101255e-09 
  722000          298    374.96244 1.2440542e-09 
  723000          298    374.96968 1.4412204e-09 
  724000          298     374.9752 1.7895061e-09 
  725000          298    374.96269 2.3461417e-09 
  726000          298    374.97279 3.0544117e-09 
  727000          298    374.96479 4.891657e-09 
  728000          298    374.97265 1.1697897e-08 
  729000          298    374.96264 -3.1045109e-08 
  730000          298    374.97321 -6.6756625e-09 
  731000          298    374.96967 -3.7806362e-09 
  732000          298    374.96736 -2.7473769e-09 
  733000          298    374.97099 -2.0285736e-09 
  734000          298    374.96916 -1.7147511e-09 
  735000          298    374.97313 -1.5134196e-09 
  736000          298     374.9667 -1.2983547e-09 
  737000          298    374.97374 -1.1839186e-09 
  738000          298    374.97056 -1.0914001e-09 
  739000          298    374.96182 -9.7371184e-10 
  740000          298     374.9749 -8.8455066e-10 
  741000          298     374.9673 -8.32783e-10 
  742000          298    374.97243 -8.0894233e-10 
  743000          298    374.96602 -7.3971255e-10 
  744000          298    374.96492 7.4797939e-10 
  745000          298    374.96769 7.9845183e-10 
  746000          298    374.96864 8.4969024e-10 
  747000          298    374.96754 9.5687213e-10 
  748000          298    374.97598 1.0905843e-09 
  749000          298    374.96203 1.2149938e-09 
  750000          298    374.96976 1.3546542e-09 
  751000          298    374.97027 1.5274813e-09 
  752000          298    374.96322 1.7567924e-09 
  753000          298    374.97512 2.1520451e-09 
  754000          298     374.9606 2.7136839e-09 
  755000          298     374.9748 3.6472222e-09 
  756000          298    374.96636 5.902668e-09 
  757000          298    374.96668 1.3691106e-08 
  758000          298    374.96968 -4.3973661e-08 
  759000          298    374.96905 -8.7792411e-09 
  760000          298    374.96572 -4.5722801e-09 
  761000          298    374.96899 -3.2483074e-09 
  762000          298    374.97068 -2.4559355e-09 
  763000          298    374.96205 -2.0131449e-09 
  764000          298    374.97346 -1.6263717e-09 
  765000          298    374.96608 -1.4586048e-09 
  766000          298    374.97486 -1.3042335e-09 
  767000          298    374.96481 -1.1653332e-09 
  768000          298     374.9726 -1.085854e-09 
  769000          298    374.96505 -9.6310979e-10 
  770000          298    374.96463 -8.584157e-10 
  771000          298    374.97081 -7.7668763e-10 
  772000          298    374.96676 7.792494e-10 
  773000          298    374.97165 9.0661489e-10 
  774000          298    374.96783 9.8234946e-10 
  775000          298    374.96789 1.1367952e-09 
  776000          298    374.97585 1.3431708e-09 
  777000          298    374.96196 1.5683936e-09 
  778000          298    374.97304 1.8629095e-09 
  779000          298    374.96978 2.3992269e-09 
  780000          298    374.96579 3.253002e-09 
  781000          298    374.96983 4.8311853e-09 
  782000          298    374.96349 9.7619291e-09 
  783000          298    374.97375 -8.3877978e-08 
  784000          298    374.96847 -8.1644371e-09 
  785000          298    374.96232 -4.1646772e-09 
  786000          298    374.97379 -2.8217254e-09 
  787000          298    374.96272 -2.172756e-09 
  788000          298     374.9699 -1.7024885e-09 
  789000          298    374.96688 -1.3919939e-09 
  790000          298    374.96712 -1.2069488e-09 
  791000          298    374.96596 -1.0408992e-09 
  792000          298    374.96781 -9.0385753e-10 
  793000          298    374.97045 -8.3209415e-10 
  794000          298    374.96547 -7.472644e-10 
  795000          298    374.96954 7.7741557e-10 
  796000          298    374.96936 8.6620327e-10 
  797000          298    374.96585 9.5077908e-10 
  798000          298    374.97112 1.0793881e-09 
  799000          298     374.9648 1.2627356e-09 
  800000          298    374.96887 1.4447812e-09 
  801000          298    374.96871 1.7433645e-09 
  802000          298    374.96528 2.2088177e-09 
  803000          298    374.97414 3.1104329e-09 
  804000          298    374.96999 5.3252109e-09 
  805000          298    374.96561  1.61796e-08 
  806000          298    374.96849 -1.6183211e-08 
  807000          298    374.96328 -5.1194595e-09 
  808000          298    374.97026 -3.0736738e-09 
  809000          298    374.96411 -2.1062034e-09 
  810000          298     374.9669 -1.5995397e-09 
  811000          298    374.96895 -1.3002205e-09 
  812000          298    374.96422 -1.0906203e-09 
  813000          298    374.96987 -9.4455554e-10 
  814000          298    374.96934 -8.3083839e-10 
  815000          298    374.96689 -7.295517e-10 
  816000          298       374.97 -6.9177274e-10 
  817000          298    374.96686 6.7352642e-10 
  818000          298    374.96762 7.2853731e-10 
  819000          298    374.97196 8.669788e-10 
  820000          298    374.96352 9.4322453e-10 
  821000          298    374.97485 1.1194299e-09 
  822000          298    374.96977 1.3641919e-09 
  823000          298    374.96294 1.6880458e-09 
  824000          298    374.97205 2.065163e-09 
  825000          298    374.96985 2.9863762e-09 
  826000          298    374.97094 5.2315137e-09 
  827000          298    374.96385 1.4608331e-08 
  828000          298    374.96999 -1.5870494e-08 
  829000          298    374.96815 -5.0620532e-09 
  830000          298    374.96244 -3.0432458e-09 
  831000          298    374.97244 -2.0985295e-09 
  832000          298    374.96376 -1.5868895e-09 
  833000          298    374.96653 -1.2958197e-09 
  834000          298    374.97112 -1.0378814e-09 
  835000          298    374.96248 -8.7582547e-10 
  836000          298      374.971 -7.686837e-10 
  837000          298    374.96613 -6.386963e-10 
  838000          298    374.96847 5.9534161e-10 
  839000          298    374.97402 7.1158533e-10 
  840000          298    374.96278 8.0230943e-10 
  841000          298    374.97512 9.2921494e-10 
  842000          298     374.9666 1.1659501e-09 
  843000          298    374.96677 1.4202492e-09 
  844000          298    374.97207 1.891226e-09 
  845000          298     374.9656 2.9173659e-09 
  846000          298    374.96825 5.6622668e-09 
  847000          298    374.96991 1.7933453e-07 
  848000          298    374.96653 -5.8901375e-09 
  849000          298    374.96778 -2.8787881e-09 
  850000          298    374.96898 -1.8984126e-09 
  851000          298    374.96229 -1.3645538e-09 
  852000          298    374.97402 -1.0966427e-09 
  853000          298    374.96407 -9.2433506e-10 
  854000          298    374.96977 -7.5488199e-10 
  855000          298    374.97002 -7.0769887e-10 
  856000          298    374.96634 -6.0082781e-10 
  857000          298    374.96897 6.6895052e-10 
  858000          298    374.96797 7.8253937e-10 
  859000          298     374.9677 8.7612115e-10 
  860000          298    374.96943 1.0428604e-09 
  861000          298    374.96631 1.3341357e-09 
  862000          298    374.96936 1.762076e-09 
  863000          298    374.96725 2.4708726e-09 
  864000          298    374.96828 5.107287e-09 
  865000          298    374.97407 7.429135e-07 
  866000          298    374.96432 -5.4061452e-09 
  867000          298    374.97044 -2.6304546e-09 
  868000          298    374.96874 -1.7191383e-09 
  869000          298    374.96528 -1.241594e-09 
  870000          298    374.97351 -1.0109741e-09 
  871000          298    374.96493 -8.2932864e-10 
  872000          298    374.96744 -7.0062803e-10 
  873000          298    374.97315 -6.271009e-10 
  874000          298    374.96163 5.7861167e-10 
  875000          298    374.97314 6.1589892e-10 
  876000          298    374.96547 7.7090465e-10 
  877000          298    374.96902 8.8900026e-10 
  878000          298     374.9695 1.0337368e-09 
  879000          298    374.96865 1.4175244e-09 
  880000          298    374.96721 1.8942453e-09 
  881000          298    374.96909 3.0864961e-09 
  882000          298    374.96728 8.1472318e-09 
  883000          298    374.96639 -1.2577656e-08 
  884000          298    374.97291 -3.5790931e-09 
  885000          298    374.97114 -2.1717002e-09 
  886000          298    374.96465 -1.5526579e-09 
  887000          298    374.97076 -1.1926528e-09 
  888000          298     374.9669 -9.0860142e-10 
  889000          298    374.96897 -7.9386126e-10 
  890000          298    374.96521 -6.5691153e-10 
  891000          298    374.96738 -5.6135847e-10 
  892000          298    374.97232 6.3842452e-10 
  893000          298    374.96394 7.0226569e-10 
  894000          298    374.96848 8.2638251e-10 
  895000          298    374.97063 1.0371144e-09 
  896000          298      374.964 1.2616307e-09 
  897000          298    374.96474 1.6460885e-09 
  898000          298    374.97001 2.515872e-09 
  899000          298    374.96755 7.0472515e-09 
  900000          298    374.96481 -8.9213553e-09 
  901000          298    374.97022 -2.6926414e-09 
  902000          298    374.96629 -1.5639621e-09 
  903000          298    374.96828 -1.0572812e-09 
  904000          298    374.97129 -8.8148064e-10 
  905000          298    374.96475 -6.9373933e-10 
  906000          298    374.96885 -5.8342454e-10 
  907000          298    374.97259 -5.3718667e-10 
  908000          298    374.96503 6.2586958e-10 
  909000          298    374.97048 7.3670196e-10 
  910000          298    374.96927 9.2571536e-10 
  911000          298    374.96522 1.1278592e-09 
  912000          298    374.97212 1.6692976e-09 
  913000          298     374.9684 2.9351541e-09 
  914000          298    374.96408 9.5450551e-09 
  915000          298    374.97245 -6.803463e-09 
  916000          298    374.96406 -2.5616308e-09 
  917000          298    374.97284 -1.5158177e-09 
  918000          298    374.96602 -1.1683646e-09 
  919000          298    374.96743 -8.3565658e-10 
  920000          298    374.96789 -6.9171613e-10 
  921000          298    374.96907 -6.2255534e-10 
  922000          298    374.96782 5.5900692e-10 
  923000          298    374.96363 6.1899375e-10 
  924000          298     374.9709 7.5491129e-10 
  925000          298    374.96571 9.0875576e-10 
  926000          298    374.96434 1.1672407e-09 
  927000          298    374.97154 1.6551929e-09 
  928000          298    374.96616 3.5574533e-09 
  929000          298    374.96732 3.4347454e-07 
  930000          298     374.9665 -3.2077805e-09 
  931000          298    374.97166 -1.7623204e-09 
  932000          298     374.9633 -1.0397077e-09 
  933000          298    374.97454 -8.5135611e-10 
  934000          298    374.96261 -6.5511933e-10 
  935000          298    374.96794 -5.3172333e-10 
  936000          298    374.97481 -4.7137266e-10 
  937000          298    374.96188 5.3974021e-10 
  938000          298    374.97208 5.887966e-10 
  939000          298    374.96451 6.8531093e-10 
  940000          298    374.97123 9.3964154e-10 
  941000          298    374.97454 1.4286378e-09 
  942000          298    374.96605 2.6387302e-09 
  943000          298    374.97124 9.3818907e-09 
  944000          298       374.97 -6.4520483e-09 
  945000          298    374.96695 -2.4117635e-09 
  946000          298    374.97257 -1.5518961e-09 
  947000          298    374.96818 -1.1849858e-09 
  948000          298    374.96849 -9.026292e-10 
  949000          298    374.97052 -7.9293139e-10 
  950000          298    374.96701 -6.8132497e-10 
  951000          298    374.97168 6.7797527e-10 
  952000          298    374.96982 8.6141234e-10 
  953000          298    374.96657 1.0831545e-09 
  954000          298     374.9689 1.2873434e-09 
  955000          298    374.96051 1.7461628e-09 
  956000          298    374.97482 3.0021021e-09 
  957000          298    374.96404 1.3492688e-08 
  958000          298    374.96898 -5.6023252e-09 
  959000          298    374.97006 -2.2106884e-09 
  960000          298    374.96847 -1.536731e-09 
  961000          298    374.96977 -1.0812923e-09 
  962000          298    374.96483 -8.1348444e-10 
  963000          298    374.97373 -7.0772203e-10 
  964000          298    374.96146 6.7077199e-10 
  965000          298    374.96584 8.0210076e-10 
  966000          298    374.96924 9.1338368e-10 
  967000          298    374.96944 1.3904935e-09 
  968000          298    374.97462 2.2474727e-09 
  969000          298    374.96377 5.6698914e-09 
  970000          298    374.97132 -1.3722067e-08 
  971000          298    374.96582 -2.8301246e-09 
  972000          298    374.96239 -1.5765516e-09 
  973000          298     374.9728 -1.0296953e-09 
  974000          298    374.97061 -8.6522716e-10 
  975000          298     374.9666 -7.3314172e-10 
  976000          298    374.96719 5.9576117e-10 
  977000          298     374.9713 7.6989763e-10 
  978000          298    374.96985 9.7468109e-10 
  979000          298    374.96429 1.2409539e-09 
  980000          298    374.97507 2.0278173e-09 
  981000          298    374.96085 3.9368682e-09 
  982000          298    374.97131 -1.0397696e-07 
  983000          298    374.96787 -3.524091e-09 
  984000          298    374.96705 -1.9036237e-09 
  985000          298    374.96859 -1.1372122e-09 
  986000          298    374.96917 -9.2947385e-10 
  987000          298     374.9727 -7.3934536e-10 
  988000          298    374.96222 -6.238165e-10 
  989000          298    374.97147 7.2337013e-10 
  990000          298     374.9695 8.8401791e-10 
  991000          298    374.96175 1.1292903e-09 
  992000          298    374.97456 1.6182394e-09 
  993000          298    374.96297 3.3422887e-09 
  994000          298    374.97007 5.2021921e-08 
  995000          298    374.97212 -3.8404656e-09 
  996000          298    374.96369 -1.8627687e-09 
  997000          298    374.97269 -1.1916578e-09 
  998000          298    374.96721 -9.6521902e-10 
  999000          298    374.96894 -7.3096394e-10 
 1000000          298    374.97379 -6.4925516e-10 
Loop time of 923.804 on 1 procs for 1000000 steps with 2431 atoms

Performance: 93.526 ns/day, 0.257 hours/ns, 1082.481 timesteps/s
99.9% CPU use with 1 MPI tasks x no OpenMP threads

MPI task timing breakdown:
Section |  min time  |  avg time  |  max time  |%varavg| %total
---------------------------------------------------------------
Pair    | 18.41      | 18.41      | 18.41      |   0.0 |  1.99
Bond    | 723.5      | 723.5      | 723.5      |   0.0 | 78.32
Neigh   | 90.803     | 90.803     | 90.803     |   0.0 |  9.83
Comm    | 58.896     | 58.896     | 58.896     |   0.0 |  6.38
Output  | 1.015      | 1.015      | 1.015      |   0.0 |  0.11
Modify  | 13.013     | 13.013     | 13.013     |   0.0 |  1.41
Other   |            | 18.17      |            |       |  1.97

Nlocal:    2431 ave 2431 max 2431 min
Histogram: 1 0 0 0 0 0 0 0 0 0
Nghost:    16166 ave 16166 max 16166 min
Histogram: 1 0 0 0 0 0 0 0 0 0
Neighs:    1170 ave 1170 max 1170 min
Histogram: 1 0 0 0 0 0 0 0 0 0

Total # of neighbors = 1170
Ave neighs/atom = 0.481283
Ave special neighs/atom = 6.58988
Neighbor list builds = 1326
Dangerous builds = 0
unfix           3
#unfix           4
unfix           5
undump          NiPyC2_experiment_with_Xe_xyzmov


### NOTE:
# These fixes are overkill if you simply want to hold a collection of atoms stationary.
# A simpler way to hold atoms stationary is to not include those atoms in your time integration.
#
# The force and torque keywords discussed next are only allowed for the rigid styles
# An xflag, yflag, or zflag set to off means turn off the component of force of torque in that dimension.
#  if you expect a rigid body not to move or rotate by using these keywords, you must insure its initial
# center-of-mass translational or angular velocity is 0.0.
# Otherwise the initial translational or angular momentum the body has will persist.
###
Total wall time: 0:16:07
