Created on Wed Jul 29 16:09:19 2020 

        2448 atoms
        2484 bonds
        4812 angles
        5592 dihedrals
        2016 impropers

           9 atom types
          12 bond types
          22 angle types
           5 dihedral types
           1 improper types
           0.000000  25.011200 xlo xhi
           0.000000  25.046800 ylo yhi
           0.000000  30.822838 zlo zhi
           0.000000  -0.682783   0.000000 xy xz yz

Masses

    1    58.693400000 # Ni4+2
    2    15.999400000 # O_R
    3    14.006700000 # N_R
    4    12.010700000 # C_R
    5     1.007940000 # H_
    6    12.010700000 # C_3
    7    12.010700000 # C_2
    8    12.010700000 # C_1
    9     1.007940000 # H_

Bond Coeffs

    1      321.720028        1.793457  # Ni4+2 O_R
    2      328.673665        1.841585  # Ni4+2 N_R
    3      646.680887        1.311940  # O_R C_R
    4      663.718927        1.345073  # N_R C_R
    5      462.655054        1.379256  # C_R C_R
    6      369.943935        1.486000  # C_R C_3
    7      357.440381        1.081418  # C_R H_
    8      391.669513        1.458000  # C_R C_R
    9      389.261715        1.461000  # C_R C_2
   10      349.795899        1.514000  # C_3 C_3
   11      331.069389        1.109401  # C_3 H_
   12      367.712375        1.489000  # C_2 C_3

Angle Coeffs

    1              cosine/periodic      322.980216               1               4 # O_R Ni4+2 O_R
    2              cosine/periodic      343.030950               1               4 # O_R Ni4+2 N_R
    3              cosine/periodic      364.965660               1               4 # N_R Ni4+2 N_R
    4              cosine/periodic      238.346347              -1               3 # C_R O_R Ni4+2
    5              cosine/periodic      177.809033              -1               3 # Ni4+2 N_R C_R
    6              cosine/periodic      240.001032              -1               3 # C_R N_R C_R
    7              cosine/periodic      222.595017              -1               3 # C_R C_R C_R
    8              cosine/periodic      198.274298              -1               3 # C_R C_R C_3
    9              cosine/periodic      114.578032              -1               3 # C_R C_R H_
   10              cosine/periodic      204.366560              -1               3 # C_R C_R C_R
   11              cosine/periodic      307.398705              -1               3 # N_R C_R C_R
   12              cosine/periodic      159.573934              -1               3 # N_R C_R H_
   13              cosine/periodic      263.511421              -1               3 # O_R C_R C_R
   14              cosine/periodic      374.272657              -1               3 # O_R C_R O_R
   15              cosine/periodic      203.704287              -1               3 # C_R C_R C_2
   16                      fourier      220.229931        0.343737        0.374972        0.281246 # C_R C_3 C_3
   17                      fourier      214.211821        0.343737        0.374972        0.281246 # C_3 C_3 C_3
   18                      fourier      117.318683        0.343737        0.374972        0.281246 # C_3 C_3 H_
   19                      fourier       75.498766        0.343737        0.374972        0.281246 # H_ C_3 H_
   20              cosine/periodic      181.979950              -1               3 # C_R C_2 C_3
   21              cosine/periodic      176.915699              -1               3 # C_3 C_2 C_3
   22                      fourier      121.290688        0.343737        0.374972        0.281246 # C_2 C_3 H_

Dihedral Coeffs

    1        2.245703              -1               2 # Ni4+2 O_R C_R C_R
    2        1.497136              -1               2 # Ni4+2 N_R C_R C_R
    3        0.083333               1               3 # C_R C_R C_3 C_3
    4        0.555556              -1               2 # C_R C_R C_R O_R
    5        0.066219               1               3 # C_R C_3 C_3 H_

Improper Coeffs

    1        2.000000        1.000000       -1.000000        0.000000               0 # Ni4+2 N_R C_R C_R

Pair Coeffs

    1        0.015000        2.524807 # Ni4+2 Ni4+2
    2        0.060000        3.118146 # O_R O_R
    3        0.069000        3.260689 # N_R N_R
    4        0.105000        3.430851 # C_R C_R
    5        0.044000        2.571134 # H_ H_
    6        0.105000        3.430851 # C_3 C_3
    7        0.105000        3.430851 # C_2 C_2
    8        0.105000        3.430851 # C_1 C_1
    9        0.044000        2.571134 # H_ H_

Atoms

       1      444        1     0.00000    2.89857    9.41116    8.59265
       2      444        1     0.00000    6.17525    3.10579    3.48481
       3      444        2     0.00000    1.44827    4.35425    3.93374
       4      444        2     0.00000    4.44160    8.15245    9.05464
       5      444        2     0.00000    4.63665    1.84729    3.87523
       6      444        2     0.00000    1.36499   10.67435    9.00295
       7      444        2     0.00000    5.80609    4.46033    4.96242
       8      444        2     0.00000    2.54244    8.03270   10.06753
       9      444        2     0.00000    0.25117    1.69264    4.94273
      10      444        2     0.00000    3.23722   10.80466   10.06262
      11      444        3     0.00000    3.69677   10.66058    7.24160
      12      444        3     0.00000    0.71256    1.86420    2.11704
      13      444        3     0.00000    2.17217    8.14409    7.25198
      14      444        3     0.00000    5.44023    4.39481    2.13747
      15      444        4     0.00000    3.48546   12.14832    5.36301
      16      444        4     0.00000    0.47488    0.38955    0.22920
      17      444        5     0.00000    5.86971    0.03371    9.69377
      18      444        4     0.00000    4.76073    0.14740    5.61481
      19      444        4     0.00000    1.74333   12.36991    0.47412
      20      444        4     0.00000    5.50345   12.15023    6.68209
      21      444        4     0.00000    2.49852    0.35508    1.54004
      22      444        5     0.00000    0.24768   12.50843    6.91993
      23      444        4     0.00000    2.48363    6.63370    5.40822
      24      444        4     0.00000    5.72803    5.90364    0.28669
      25      444        5     0.00000   -0.10828    6.26667    9.76620
      26      444        4     0.00000    2.92756    7.68099    6.23068
      27      444        4     0.00000    6.18830    4.86756    1.11596
      28      444        5     0.00000    3.89994    8.14655    6.08890
      29      444        5     0.00000    0.91589    4.41889    0.97634
      30      444        4     0.00000    2.98256   11.13588    6.19748
      31      444        4     0.00000   -0.01036    1.40553    1.07106
      32      444        5     0.00000    1.99392   10.70905    6.04703
      33      444        5     0.00000    5.26093    1.85011    0.92351
      34      444        4     0.00000    4.93641   11.13810    7.47507
      35      444        4     0.00000    1.94823    1.37190    2.34060
      36      444        5     0.00000    5.48559   10.70967    8.30944
      37      444        5     0.00000    2.50886    1.79214    3.17267
      38      444        4     0.00000    0.94573    7.62654    7.47302
      39      444        4     0.00000    4.21083    4.90458    2.35686
      40      444        5     0.00000    0.36328    8.05184    8.28732
      41      444        5     0.00000    3.63605    4.47744    3.17528
      42      444        4     0.00000    0.43859    6.57577    6.69176
      43      444        4     0.00000    3.68763    5.94500    1.56944
      44      444        5     0.00000    5.70774    6.17693    6.91975
      45      444        4     0.00000    1.22745    6.06471    5.65205
      46      444        4     0.00000    4.46338    6.45777    0.52027
      47      444        4     0.00000    5.31260    1.24381    4.79419
      48      444        4     0.00000    2.05020   11.26755    9.92158
      49      444        4     0.00000    0.73548    4.94016    4.83586
      50      444        4     0.00000    3.73174    7.56629    9.95688
      51      444        1     0.00000    9.15137    9.41116    8.59265
      52      444        1     0.00000   12.42805    3.10579    3.48481
      53      444        2     0.00000    7.70109    4.35425    3.93374
      54      444        2     0.00000   10.69440    8.15245    9.05464
      55      444        2     0.00000   10.88945    1.84729    3.87523
      56      444        2     0.00000    7.61779   10.67435    9.00295
      57      444        2     0.00000   12.05889    4.46033    4.96242
      58      444        2     0.00000    8.79524    8.03270   10.06753
      59      444        2     0.00000    6.50397    1.69264    4.94273
      60      444        2     0.00000    9.49002   10.80466   10.06262
      61      444        3     0.00000    9.94957   10.66058    7.24160
      62      444        3     0.00000    6.96536    1.86420    2.11704
      63      444        3     0.00000    8.42499    8.14409    7.25198
      64      444        3     0.00000   11.69303    4.39481    2.13747
      65      444        4     0.00000    9.73826   12.14832    5.36301
      66      444        4     0.00000    6.72768    0.38955    0.22920
      67      444        5     0.00000   12.12251    0.03371    9.69377
      68      444        4     0.00000   11.01353    0.14740    5.61481
      69      444        4     0.00000    7.99613   12.36991    0.47412
      70      444        4     0.00000   11.75625   12.15023    6.68209
      71      444        4     0.00000    8.75132    0.35508    1.54004
      72      444        5     0.00000    6.50047   12.50843    6.91993
      73      444        4     0.00000    8.73644    6.63370    5.40822
      74      444        4     0.00000   11.98084    5.90364    0.28669
      75      444        5     0.00000    6.14452    6.26667    9.76620
      76      444        4     0.00000    9.18036    7.68099    6.23068
      77      444        4     0.00000   12.44110    4.86756    1.11596
      78      444        5     0.00000   10.15274    8.14655    6.08890
      79      444        5     0.00000    7.16869    4.41889    0.97634
      80      444        4     0.00000    9.23536   11.13588    6.19748
      81      444        4     0.00000    6.24244    1.40553    1.07106
      82      444        5     0.00000    8.24672   10.70905    6.04703
      83      444        5     0.00000   11.51373    1.85011    0.92351
      84      444        4     0.00000   11.18921   11.13810    7.47507
      85      444        4     0.00000    8.20102    1.37190    2.34060
      86      444        5     0.00000   11.73839   10.70967    8.30944
      87      444        5     0.00000    8.76167    1.79214    3.17267
      88      444        4     0.00000    7.19853    7.62654    7.47302
      89      444        4     0.00000   10.46363    4.90458    2.35686
      90      444        5     0.00000    6.61608    8.05184    8.28732
      91      444        5     0.00000    9.88885    4.47744    3.17528
      92      444        4     0.00000    6.69139    6.57577    6.69176
      93      444        4     0.00000    9.94043    5.94500    1.56944
      94      444        5     0.00000   11.96054    6.17693    6.91975
      95      444        4     0.00000    7.48025    6.06471    5.65205
      96      444        4     0.00000   10.71618    6.45777    0.52027
      97      444        4     0.00000   11.56540    1.24381    4.79419
      98      444        4     0.00000    8.30300   11.26755    9.92158
      99      444        4     0.00000    6.98827    4.94016    4.83586
     100      444        4     0.00000    9.98454    7.56629    9.95688
     101      444        6     0.00000    2.52523    0.09716    4.17107
     102      444        6     0.00000    1.15820   11.87024    4.12154
     103      444        5     0.00000    1.29703   10.77796    3.96523
     104      444        5     0.00000    0.53131   12.23517    3.27783
     105      444        5     0.00000    0.56833   12.03405    5.04997
     106      444        6     0.00000    2.13105    1.58671    4.35345
     107      444        5     0.00000    1.56668    1.70879    5.30361
     108      444        5     0.00000    1.47501    1.92242    3.52102
     109      444        5     0.00000    2.95030    2.30845    4.41797
     110      444        6     0.00000    3.17624   12.30855    2.79767
     111      444        5     0.00000    3.31954   11.21081    2.69443
     112      444        5     0.00000    4.16386    0.21668    2.61157
     113      444        5     0.00000    2.51877    0.12333    1.96736
     114      444        6     0.00000    3.96988   12.38849    1.93334
     115      444        6     0.00000    4.57739    0.60400    3.16585
     116      444        5     0.00000    4.67673    1.69587    2.97952
     117      444        5     0.00000    5.59837    0.22639    3.39604
     118      444        5     0.00000    3.96549    0.44402    4.08059
     119      444        6     0.00000    3.94547   10.89756    2.36227
     120      444        5     0.00000    3.30386   10.77969    3.26265
     121      444        5     0.00000    4.96832   10.54905    2.62378
     122      444        5     0.00000    3.54640   10.18299    1.63676
     123      444        6     0.00000    4.96556    0.16968    0.78301
     124      444        5     0.00000    5.01465    1.26753    0.61411
     125      444        5     0.00000    4.50322   12.26775   10.07738
     126      444        5     0.00000    5.98701   12.34210    1.04669
     127      444        6     0.00000    3.48131    6.17957    4.24170
     128      444        6     0.00000    4.81653    6.98549    4.19860
     129      444        5     0.00000    4.63490    8.06777    4.01852
     130      444        5     0.00000    5.47182    6.63108    3.37217
     131      444        5     0.00000    5.39740    6.86443    5.13917
     132      444        6     0.00000    3.93415    4.71163    4.45972
     133      444        5     0.00000    4.48746    4.63158    5.42079
     134      444        5     0.00000    4.61716    4.38786    3.64443
     135      444        5     0.00000    3.14471    3.95752    4.52577
     136      444        6     0.00000    2.84048    6.43758    2.85240
     137      444        5     0.00000    2.65330    7.52616    2.72518
     138      444        5     0.00000    1.87486    5.96151    2.65953
     139      444        5     0.00000    3.52499    6.11144    2.03931
     140      444        6     0.00000    2.22175    6.45559    1.95634
     141      444        6     0.00000    1.58785    5.70666    3.16936
     142      444        5     0.00000    2.19303    5.83910    4.09293
     143      444        5     0.00000    0.57169    6.09922    3.39590
     144      444        5     0.00000    1.47023    4.62028    2.96270
     145      444        6     0.00000    1.23260    6.18992    0.79081
     146      444        5     0.00000    1.16493    5.09630    0.60196
     147      444        5     0.00000    0.21516    6.55527    1.05036
     148      444        5     0.00000    1.25781    6.62791   10.09529
     149      444        6     0.00000    2.26934    7.93803    2.41186
     150      444        5     0.00000    2.90361    8.02804    3.32061
     151      444        5     0.00000    2.68914    8.65761    1.70320
     152      444        5     0.00000    1.25047    8.30100    2.66919
     153      444        6     0.00000    8.77803    0.09716    4.17107
     154      444        6     0.00000    7.41100   11.87024    4.12154
     155      444        5     0.00000    7.54983   10.77796    3.96523
     156      444        5     0.00000    6.78411   12.23517    3.27783
     157      444        5     0.00000    6.82113   12.03405    5.04997
     158      444        6     0.00000    8.38385    1.58671    4.35345
     159      444        5     0.00000    7.81948    1.70879    5.30361
     160      444        5     0.00000    7.72781    1.92242    3.52102
     161      444        5     0.00000    9.20310    2.30845    4.41797
     162      444        6     0.00000    9.42904   12.30855    2.79767
     163      444        5     0.00000    9.57234   11.21081    2.69443
     164      444        5     0.00000   10.41666    0.21668    2.61157
     165      444        5     0.00000    8.77157    0.12333    1.96736
     166      444        6     0.00000   10.22268   12.38850    1.93334
     167      444        6     0.00000   10.83018    0.60402    3.16587
     168      444        5     0.00000   10.92952    1.69588    2.97953
     169      444        5     0.00000   11.85117    0.22641    3.39605
     170      444        5     0.00000   10.21827    0.44402    4.08059
     171      444        6     0.00000   10.19829   10.89757    2.36227
     172      444        5     0.00000    9.55668   10.77970    3.26265
     173      444        5     0.00000   11.22112   10.54906    2.62379
     174      444        5     0.00000    9.79921   10.18300    1.63676
     175      444        6     0.00000   11.21836    0.16969    0.78302
     176      444        5     0.00000   11.26745    1.26756    0.61411
     177      444        5     0.00000   10.75602   12.26776   10.07738
     178      444        5     0.00000   12.23980   12.34212    1.04670
     179      444        7     0.00000    9.73413    6.17957    4.24170
     180      444        6     0.00000   11.06928    6.98558    4.19852
     181      444        5     0.00000   11.65022    6.86456    5.13908
     182      444        5     0.00000   11.72456    6.63118    3.37208
     183      444        5     0.00000   10.88757    8.06784    4.01844
     184      444        6     0.00000    9.09323    6.43750    2.85240
     185      444        5     0.00000    8.90596    7.52607    2.72515
     186      444        5     0.00000    9.77774    6.11138    2.03930
     187      444        5     0.00000    8.12764    5.96136    2.65958
     188        1        8     0.00000   10.18703    4.71167    4.45975
     189        2        9     0.00000   10.74038    4.63169    5.42080
     190        3        9     0.00000    9.39765    3.95751    4.52586
     191        4        9     0.00000   10.87004    4.38791    3.64444
     192        5        8     0.00000    8.47455    6.45560    1.95635
     193        6        8     0.00000    7.84070    5.70675    3.16945
     194        7        9     0.00000    7.72305    4.62036    2.96287
     195        8        9     0.00000    6.82455    6.09933    3.39601
     196        9        9     0.00000    8.44594    5.83924    4.09296
     197       10        8     0.00000    8.52216    7.93807    2.41178
     198       11        9     0.00000    9.15648    8.02814    3.32050
     199       12        9     0.00000    7.50331    8.30106    2.66913
     200       13        9     0.00000    8.94193    8.65761    1.70305
     201       14        8     0.00000    7.48538    6.18985    0.79087
     202       15        9     0.00000    7.41769    5.09623    0.60211
     203       16        9     0.00000    7.51053    6.62778   10.09532
     204       17        9     0.00000    6.46795    6.55525    1.05044
     205      444        1     0.00000    2.67097    9.41116   18.86693
     206      444        1     0.00000    5.94766    3.10579   13.75909
     207      444        2     0.00000    1.22068    4.35425   14.20802
     208      444        2     0.00000    4.21401    8.15245   19.32892
     209      444        2     0.00000    4.40905    1.84729   14.14951
     210      444        2     0.00000    1.13740   10.67435   19.27723
     211      444        2     0.00000    5.57849    4.46033   15.23669
     212      444        2     0.00000    2.31484    8.03270   20.34181
     213      444        2     0.00000    0.02358    1.69264   15.21701
     214      444        2     0.00000    3.00962   10.80466   20.33690
     215      444        3     0.00000    3.46918   10.66058   17.51588
     216      444        3     0.00000    0.48496    1.86420   12.39132
     217      444        3     0.00000    1.94458    8.14409   17.52626
     218      444        3     0.00000    5.21264    4.39481   12.41175
     219      444        4     0.00000    3.25787   12.14832   15.63729
     220      444        4     0.00000    0.24728    0.38955   10.50348
     221      444        5     0.00000    5.64212    0.03371   19.96805
     222      444        4     0.00000    4.53314    0.14740   15.88909
     223      444        4     0.00000    1.51574   12.36991   10.74840
     224      444        4     0.00000    5.27585   12.15023   16.95637
     225      444        4     0.00000    2.27093    0.35508   11.81432
     226      444        5     0.00000    0.02008   12.50843   17.19421
     227      444        4     0.00000    2.25603    6.63370   15.68250
     228      444        4     0.00000    5.50044    5.90364   10.56097
     229      444        5     0.00000   -0.33587    6.26667   20.04048
     230      444        4     0.00000    2.69997    7.68099   16.50496
     231      444        4     0.00000    5.96070    4.86756   11.39024
     232      444        5     0.00000    3.67234    8.14655   16.36318
     233      444        5     0.00000    0.68830    4.41889   11.25062
     234      444        4     0.00000    2.75497   11.13588   16.47176
     235      444        4     0.00000   -0.23795    1.40553   11.34534
     236      444        5     0.00000    1.76633   10.70905   16.32131
     237      444        5     0.00000    5.03334    1.85011   11.19779
     238      444        4     0.00000    4.70882   11.13810   17.74935
     239      444        4     0.00000    1.72064    1.37190   12.61488
     240      444        5     0.00000    5.25800   10.70967   18.58372
     241      444        5     0.00000    2.28127    1.79214   13.44695
     242      444        4     0.00000    0.71814    7.62654   17.74730
     243      444        4     0.00000    3.98323    4.90458   12.63114
     244      444        5     0.00000    0.13568    8.05184   18.56160
     245      444        5     0.00000    3.40845    4.47744   13.44956
     246      444        4     0.00000    0.21100    6.57577   16.96604
     247      444        4     0.00000    3.46003    5.94500   11.84372
     248      444        5     0.00000    5.48015    6.17693   17.19403
     249      444        4     0.00000    0.99986    6.06471   15.92633
     250      444        4     0.00000    4.23578    6.45777   10.79455
     251      444        4     0.00000    5.08501    1.24381   15.06847
     252      444        4     0.00000    1.82260   11.26755   20.19586
     253      444        4     0.00000    0.50788    4.94016   15.11014
     254      444        4     0.00000    3.50415    7.56629   20.23116
     255      444        1     0.00000    8.92377    9.41116   18.86693
     256      444        1     0.00000   12.20046    3.10579   13.75909
     257      444        2     0.00000    7.47349    4.35425   14.20802
     258      444        2     0.00000   10.46681    8.15245   19.32892
     259      444        2     0.00000   10.66185    1.84729   14.14951
     260      444        2     0.00000    7.39020   10.67435   19.27723
     261      444        2     0.00000   11.83129    4.46033   15.23669
     262      444        2     0.00000    8.56764    8.03270   20.34181
     263      444        2     0.00000    6.27638    1.69264   15.21701
     264      444        2     0.00000    9.26242   10.80466   20.33690
     265      444        3     0.00000    9.72198   10.66058   17.51588
     266      444        3     0.00000    6.73776    1.86420   12.39132
     267      444        3     0.00000    8.19739    8.14409   17.52626
     268      444        3     0.00000   11.46544    4.39481   12.41175
     269      444        4     0.00000    9.51067   12.14832   15.63729
     270      444        4     0.00000    6.50008    0.38955   10.50348
     271      444        5     0.00000   11.89492    0.03371   19.96805
     272      444        4     0.00000   10.78594    0.14740   15.88909
     273      444        4     0.00000    7.76854   12.36991   10.74840
     274      444        4     0.00000   11.52865   12.15023   16.95637
     275      444        4     0.00000    8.52373    0.35508   11.81432
     276      444        5     0.00000    6.27287   12.50843   17.19421
     277      444        4     0.00000    8.50884    6.63370   15.68250
     278      444        4     0.00000   11.75325    5.90364   10.56097
     279      444        5     0.00000    5.91693    6.26667   20.04048
     280      444        4     0.00000    8.95277    7.68099   16.50496
     281      444        4     0.00000   12.21350    4.86756   11.39024
     282      444        5     0.00000    9.92514    8.14655   16.36318
     283      444        5     0.00000    6.94110    4.41889   11.25062
     284      444        4     0.00000    9.00777   11.13588   16.47176
     285      444        4     0.00000    6.01485    1.40553   11.34534
     286      444        5     0.00000    8.01913   10.70905   16.32131
     287      444        5     0.00000   11.28614    1.85011   11.19779
     288      444        4     0.00000   10.96162   11.13810   17.74935
     289      444        4     0.00000    7.97343    1.37190   12.61488
     290      444        5     0.00000   11.51080   10.70967   18.58372
     291      444        5     0.00000    8.53408    1.79214   13.44695
     292      444        4     0.00000    6.97094    7.62654   17.74730
     293      444        4     0.00000   10.23603    4.90458   12.63114
     294      444        5     0.00000    6.38848    8.05184   18.56160
     295      444        5     0.00000    9.66125    4.47744   13.44956
     296      444        4     0.00000    6.46380    6.57577   16.96604
     297      444        4     0.00000    9.71283    5.94500   11.84372
     298      444        5     0.00000   11.73295    6.17693   17.19403
     299      444        4     0.00000    7.25266    6.06471   15.92633
     300      444        4     0.00000   10.48858    6.45777   10.79455
     301      444        4     0.00000   11.33781    1.24381   15.06847
     302      444        4     0.00000    8.07540   11.26755   20.19586
     303      444        4     0.00000    6.76067    4.94016   15.11014
     304      444        4     0.00000    9.75695    7.56629   20.23116
     305      444        6     0.00000    2.29763    0.09716   14.44535
     306      444        6     0.00000    0.93060   11.87024   14.39582
     307      444        5     0.00000    1.06944   10.77796   14.23951
     308      444        5     0.00000    0.30372   12.23517   13.55211
     309      444        5     0.00000    0.34073   12.03405   15.32425
     310      444        6     0.00000    1.90345    1.58671   14.62773
     311      444        5     0.00000    1.33909    1.70879   15.57789
     312      444        5     0.00000    1.24742    1.92242   13.79530
     313      444        5     0.00000    2.72270    2.30845   14.69225
     314      444        6     0.00000    2.94864   12.30855   13.07195
     315      444        5     0.00000    3.09194   11.21081   12.96871
     316      444        5     0.00000    3.93627    0.21668   12.88585
     317      444        5     0.00000    2.29117    0.12333   12.24164
     318      444        6     0.00000    3.74229   12.38849   12.20762
     319      444        6     0.00000    4.34979    0.60400   13.44013
     320      444        5     0.00000    4.44914    1.69587   13.25380
     321      444        5     0.00000    5.37078    0.22639   13.67032
     322      444        5     0.00000    3.73789    0.44402   14.35487
     323      444        6     0.00000    3.71788   10.89756   12.63655
     324      444        5     0.00000    3.07627   10.77969   13.53693
     325      444        5     0.00000    4.74072   10.54905   12.89806
     326      444        5     0.00000    3.31880   10.18299   11.91104
     327      444        6     0.00000    4.73797    0.16968   11.05729
     328      444        5     0.00000    4.78705    1.26753   10.88839
     329      444        5     0.00000    4.27563   12.26775   20.35166
     330      444        5     0.00000    5.75941   12.34210   11.32097
     331      444        6     0.00000    3.25372    6.17957   14.51597
     332      444        6     0.00000    4.58893    6.98549   14.47288
     333      444        5     0.00000    4.40730    8.06777   14.29280
     334      444        5     0.00000    5.24423    6.63108   13.64645
     335      444        5     0.00000    5.16981    6.86443   15.41345
     336      444        6     0.00000    3.70656    4.71163   14.73399
     337      444        5     0.00000    4.25986    4.63158   15.69507
     338      444        5     0.00000    4.38957    4.38786   13.91871
     339      444        5     0.00000    2.91712    3.95752   14.80005
     340      444        6     0.00000    2.61288    6.43758   13.12668
     341      444        5     0.00000    2.42570    7.52616   12.99946
     342      444        5     0.00000    1.64727    5.96151   12.93381
     343      444        5     0.00000    3.29739    6.11144   12.31359
     344      444        6     0.00000    1.99416    6.45559   12.23062
     345      444        6     0.00000    1.36025    5.70666   13.44364
     346      444        5     0.00000    1.96544    5.83910   14.36721
     347      444        5     0.00000    0.34410    6.09922   13.67018
     348      444        5     0.00000    1.24264    4.62028   13.23698
     349      444        6     0.00000    1.00501    6.18992   11.06509
     350      444        5     0.00000    0.93734    5.09630   10.87624
     351      444        5     0.00000   -0.01243    6.55527   11.32464
     352      444        5     0.00000    1.03021    6.62791   20.36957
     353      444        6     0.00000    2.04174    7.93803   12.68614
     354      444        5     0.00000    2.67602    8.02804   13.59489