Created on Wed Jul 22 14:55:35 2020 

        1296 atoms
        1536 bonds
        2928 angles
        3072 dihedrals
        2016 impropers

           6 atom types
           8 bond types
          15 angle types
           3 dihedral types
           1 improper types
           0.000000  25.011200 xlo xhi
           0.000000  25.046800 ylo yhi
           0.000000  30.822838 zlo zhi
           0.000000  -0.682783   0.000000 xy xz yz

Masses

    1    58.693400000 # Ni4+2
    2    15.999400000 # O_R
    3    14.006700000 # N_R
    4    12.010700000 # C_R
    5     1.007940000 # H_
    6    18.998403200 # F_

Bond Coeffs

    1      321.720028        1.793457  # Ni4+2 O_R
    2      328.673665        1.841585  # Ni4+2 N_R
    3      646.680887        1.311940  # O_R C_R
    4      663.718927        1.345073  # N_R C_R
    5      357.440381        1.081418  # C_R H_
    6      462.655054        1.379256  # C_R C_R
    7      391.669513        1.458000  # C_R C_R
    8      443.203299        1.354566  # C_R F_

Angle Coeffs

    1      322.980216               1               4 # O_R Ni4+2 O_R
    2      343.030950               1               4 # O_R Ni4+2 N_R
    3      364.965660               1               4 # N_R Ni4+2 N_R
    4      238.346347              -1               3 # C_R O_R Ni4+2
    5      177.809033              -1               3 # Ni4+2 N_R C_R
    6      240.001032              -1               3 # C_R N_R C_R
    7      114.578032              -1               3 # C_R C_R H_
    8      222.595017              -1               3 # C_R C_R C_R
    9      204.366560              -1               3 # C_R C_R C_R
   10      307.398705              -1               3 # N_R C_R C_R
   11      159.573934              -1               3 # N_R C_R H_
   12      286.719405              -1               3 # N_R C_R F_
   13      207.488907              -1               3 # C_R C_R F_
   14      263.511421              -1               3 # O_R C_R C_R
   15      374.272657              -1               3 # O_R C_R O_R

Dihedral Coeffs

    1        2.245703              -1               2 # Ni4+2 O_R C_R C_R
    2        1.497136              -1               2 # Ni4+2 N_R C_R C_R
    3        0.555556              -1               2 # C_R C_R C_R O_R

Improper Coeffs

    1        2.000000        1.000000       -1.000000        0.000000               0 # Ni4+2 N_R C_R C_R

Pair Coeffs

    1        0.015000        2.524807 # Ni4+2 Ni4+2
    2        0.060000        3.118146 # O_R O_R
    3        0.069000        3.260689 # N_R N_R
    4        0.105000        3.430851 # C_R C_R
    5        0.044000        2.571134 # H_ H_
    6        0.050000        2.996983 # F_ F_

Atoms

       1      444        1     0.00000    2.89857    9.41116    8.59265
       2      444        1     0.00000    6.17525    3.10579    3.48481
       3      444        2     0.00000    1.44827    4.35425    3.93374
       4      444        2     0.00000    4.44160    8.15245    9.05464
       5      444        2     0.00000    4.63665    1.84729    3.87523
       6      444        2     0.00000    1.36499   10.67435    9.00295
       7      444        2     0.00000    5.80609    4.46033    4.96242
       8      444        2     0.00000    2.54244    8.03270   10.06753
       9      444        2     0.00000    0.25117    1.69264    4.94273
      10      444        2     0.00000    3.23722   10.80466   10.06262
      11      444        3     0.00000    3.69677   10.66058    7.24160
      12      444        3     0.00000    0.71256    1.86420    2.11704
      13      444        3     0.00000    2.17217    8.14409    7.25198
      14      444        3     0.00000    5.44023    4.39481    2.13747
      15      444        4     0.00000    3.48546   12.14832    5.36301
      16      444        4     0.00000    0.47488    0.38955    0.22920
      17      444        5     0.00000    2.86453   12.51808    4.55267
      18      444        5     0.00000    5.86971    0.03371    9.69377
      19      444        4     0.00000    4.76073    0.14740    5.61481
      20      444        4     0.00000    1.74333   12.36991    0.47412
      21      444        4     0.00000    5.50345   12.15023    6.68209
      22      444        4     0.00000    2.49852    0.35508    1.54004
      23      444        5     0.00000    0.24768   12.50843    6.91993
      24      444        5     0.00000    3.49155   12.50668    1.77336
      25      444        4     0.00000    2.48363    6.63370    5.40822
      26      444        4     0.00000    5.72803    5.90364    0.28669
      27      444        5     0.00000    3.13294    6.27291    4.61605
      28      444        5     0.00000   -0.10828    6.26667    9.76620
      29      444        4     0.00000    2.92756    7.68099    6.23068
      30      444        4     0.00000    6.18830    4.86756    1.11596
      31      444        5     0.00000    3.89994    8.14655    6.08890
      32      444        5     0.00000    0.91589    4.41889    0.97634
      33      444        4     0.00000    2.98256   11.13588    6.19748
      34      444        4     0.00000   -0.01036    1.40553    1.07106
      35      444        5     0.00000    5.26093    1.85011    0.92351
      36      444        4     0.00000    4.93641   11.13810    7.47507
      37      444        4     0.00000    1.94823    1.37190    2.34060
      38      444        5     0.00000    5.48559   10.70967    8.30944
      39      444        4     0.00000    0.94573    7.62654    7.47302
      40      444        4     0.00000    4.21083    4.90458    2.35686
      41      444        5     0.00000    3.63605    4.47744    3.17528
      42      444        4     0.00000    0.43859    6.57577    6.69176
      43      444        4     0.00000    3.68763    5.94500    1.56944
      44      444        5     0.00000    5.70774    6.17693    6.91975
      45      444        5     0.00000    2.69824    6.32683    1.80071
      46      444        4     0.00000    1.22745    6.06471    5.65205
      47      444        4     0.00000    4.46338    6.45777    0.52027
      48      444        4     0.00000    5.31260    1.24381    4.79419
      49      444        4     0.00000    2.05020   11.26755    9.92158
      50      444        4     0.00000    0.73548    4.94016    4.83586
      51      444        4     0.00000    3.73174    7.56629    9.95688
      52      444        1     0.00000    9.15137    9.41116    8.59265
      53      444        1     0.00000   12.42805    3.10579    3.48481
      54      444        2     0.00000    7.70109    4.35425    3.93374
      55      444        2     0.00000   10.69440    8.15245    9.05464
      56      444        2     0.00000   10.88945    1.84729    3.87523
      57      444        2     0.00000    7.61779   10.67435    9.00295
      58      444        2     0.00000   12.05889    4.46033    4.96242
      59      444        2     0.00000    8.79524    8.03270   10.06753
      60      444        2     0.00000    6.50397    1.69264    4.94273
      61      444        2     0.00000    9.49002   10.80466   10.06262
      62      444        3     0.00000    9.94957   10.66058    7.24160
      63      444        3     0.00000    6.96536    1.86420    2.11704
      64      444        3     0.00000    8.42499    8.14409    7.25198
      65      444        3     0.00000   11.69303    4.39481    2.13747
      66      444        4     0.00000    9.73826   12.14832    5.36301
      67      444        4     0.00000    6.72768    0.38955    0.22920
      68      444        5     0.00000    9.11733   12.51808    4.55267
      69      444        5     0.00000   12.12251    0.03371    9.69377
      70      444        4     0.00000   11.01353    0.14740    5.61481
      71      444        4     0.00000    7.99613   12.36991    0.47412
      72      444        4     0.00000   11.75625   12.15023    6.68209
      73      444        4     0.00000    8.75132    0.35508    1.54004
      74      444        5     0.00000    6.50047   12.50843    6.91993
      75      444        5     0.00000    9.74435   12.50668    1.77336
      76      444        4     0.00000    8.73644    6.63370    5.40822
      77      444        4     0.00000   11.98084    5.90364    0.28669
      78      444        5     0.00000    9.38574    6.27291    4.61605
      79      444        5     0.00000    6.14452    6.26667    9.76620
      80      444        4     0.00000    9.18036    7.68099    6.23068
      81      444        4     0.00000   12.44110    4.86756    1.11596
      82      444        5     0.00000   10.15274    8.14655    6.08890
      83      444        4     0.00000    9.23536   11.13588    6.19748
      84      444        4     0.00000    6.24244    1.40553    1.07106
      85      444        5     0.00000    8.24672   10.70905    6.04703
      86      444        5     0.00000   11.51373    1.85011    0.92351
      87      444        4     0.00000   11.18921   11.13810    7.47507
      88      444        4     0.00000    8.20102    1.37190    2.34060
      89      444        4     0.00000    7.19853    7.62654    7.47302
      90      444        4     0.00000   10.46363    4.90458    2.35686
      91      444        4     0.00000    6.69139    6.57577    6.69176
      92      444        4     0.00000    9.94043    5.94500    1.56944
      93      444        5     0.00000   11.96054    6.17693    6.91975
      94      444        5     0.00000    8.95104    6.32683    1.80071
      95      444        4     0.00000    7.48025    6.06471    5.65205
      96      444        4     0.00000   10.71618    6.45777    0.52027
      97      444        4     0.00000   11.56540    1.24381    4.79419
      98      444        4     0.00000    8.30300   11.26755    9.92158
      99      444        4     0.00000    6.98827    4.94016    4.83586
     100      444        4     0.00000    9.98454    7.56629    9.95688
     101      444        6     0.00000    1.73110   10.61253    5.94816
     102      444        6     0.00000    2.69302    1.88250    3.38645
     103      444        6     0.00000    0.17341    8.14487    8.49267
     104      444        6     0.00000    7.43178    4.31734    0.88569
     105      444        6     0.00000   11.92062   10.61545    8.52470
     106      444        6     0.00000    8.94581    1.88250    3.38646
     107      444        6     0.00000    6.42622    8.14487    8.49267
     108      444        6     0.00000    9.69869    4.38805    3.38507
     109      444        1     0.00000    2.67097    9.41116   18.86693
     110      444        1     0.00000    5.94766    3.10579   13.75909
     111      444        2     0.00000    1.22068    4.35425   14.20802
     112      444        2     0.00000    4.21401    8.15245   19.32892
     113      444        2     0.00000    4.40905    1.84729   14.14951
     114      444        2     0.00000    1.13740   10.67435   19.27723
     115      444        2     0.00000    5.57849    4.46033   15.23669
     116      444        2     0.00000    2.31484    8.03270   20.34181
     117      444        2     0.00000    0.02358    1.69264   15.21701
     118      444        2     0.00000    3.00962   10.80466   20.33690
     119      444        3     0.00000    3.46918   10.66058   17.51588
     120      444        3     0.00000    0.48496    1.86420   12.39132
     121      444        3     0.00000    1.94458    8.14409   17.52626
     122      444        3     0.00000    5.21264    4.39481   12.41175
     123      444        4     0.00000    3.25787   12.14832   15.63729
     124      444        4     0.00000    0.24728    0.38955   10.50348
     125      444        5     0.00000    2.63693   12.51808   14.82695
     126      444        5     0.00000    5.64212    0.03371   19.96805
     127      444        4     0.00000    4.53314    0.14740   15.88909
     128      444        4     0.00000    1.51574   12.36991   10.74840
     129      444        4     0.00000    5.27585   12.15023   16.95637
     130      444        4     0.00000    2.27093    0.35508   11.81432
     131      444        5     0.00000    0.02008   12.50843   17.19421
     132      444        5     0.00000    3.26395   12.50668   12.04764
     133      444        4     0.00000    2.25603    6.63370   15.68250
     134      444        4     0.00000    5.50044    5.90364   10.56097
     135      444        5     0.00000    2.90535    6.27291   14.89033
     136      444        5     0.00000   -0.33587    6.26667   20.04048
     137      444        4     0.00000    2.69997    7.68099   16.50496
     138      444        4     0.00000    5.96070    4.86756   11.39024
     139      444        5     0.00000    3.67234    8.14655   16.36318
     140      444        5     0.00000    0.68830    4.41889   11.25062
     141      444        4     0.00000    2.75497   11.13588   16.47176
     142      444        4     0.00000   -0.23795    1.40553   11.34534
     143      444        5     0.00000    5.03334    1.85011   11.19779
     144      444        4     0.00000    4.70882   11.13810   17.74935
     145      444        4     0.00000    1.72064    1.37190   12.61488
     146      444        5     0.00000    5.25800   10.70967   18.58372
     147      444        4     0.00000    0.71814    7.62654   17.74730
     148      444        4     0.00000    3.98323    4.90458   12.63114
     149      444        5     0.00000    3.40845    4.47744   13.44956
     150      444        4     0.00000    0.21100    6.57577   16.96604
     151      444        4     0.00000    3.46003    5.94500   11.84372
     152      444        5     0.00000    5.48015    6.17693   17.19403
     153      444        5     0.00000    2.47064    6.32683   12.07499
     154      444        4     0.00000    0.99986    6.06471   15.92633
     155      444        4     0.00000    4.23578    6.45777   10.79455
     156      444        4     0.00000    5.08501    1.24381   15.06847
     157      444        4     0.00000    1.82260   11.26755   20.19586
     158      444        4     0.00000    0.50788    4.94016   15.11014
     159      444        4     0.00000    3.50415    7.56629   20.23116
     160      444        1     0.00000    8.92377    9.41116   18.86693
     161      444        1     0.00000   12.20046    3.10579   13.75909
     162      444        2     0.00000    7.47349    4.35425   14.20802
     163      444        2     0.00000   10.46681    8.15245   19.32892
     164      444        2     0.00000   10.66185    1.84729   14.14951
     165      444        2     0.00000    7.39020   10.67435   19.27723
     166      444        2     0.00000   11.83129    4.46033   15.23669
     167      444        2     0.00000    8.56764    8.03270   20.34181
     168      444        2     0.00000    6.27638    1.69264   15.21701
     169      444        2     0.00000    9.26242   10.80466   20.33690
     170      444        3     0.00000    9.72198   10.66058   17.51588
     171      444        3     0.00000    6.73776    1.86420   12.39132
     172      444        3     0.00000    8.19739    8.14409   17.52626
     173      444        3     0.00000   11.46544    4.39481   12.41175
     174      444        4     0.00000    9.51067   12.14832   15.63729
     175      444        4     0.00000    6.50008    0.38955   10.50348
     176      444        5     0.00000    8.88973   12.51808   14.82695
     177      444        5     0.00000   11.89492    0.03371   19.96805
     178      444        4     0.00000   10.78594    0.14740   15.88909
     179      444        4     0.00000    7.76854   12.36991   10.74840
     180      444        4     0.00000   11.52865   12.15023   16.95637
     181      444        4     0.00000    8.52373    0.35508   11.81432
     182      444        5     0.00000    6.27287   12.50843   17.19421
     183      444        5     0.00000    9.51675   12.50668   12.04764
     184      444        4     0.00000    8.50884    6.63370   15.68250
     185      444        4     0.00000   11.75325    5.90364   10.56097
     186      444        5     0.00000    9.15815    6.27291   14.89033
     187      444        5     0.00000    5.91693    6.26667   20.04048
     188      444        4     0.00000    8.95277    7.68099   16.50496
     189      444        4     0.00000   12.21350    4.86756   11.39024
     190      444        5     0.00000    9.92514    8.14655   16.36318
     191      444        4     0.00000    9.00777   11.13588   16.47176
     192      444        4     0.00000    6.01485    1.40553   11.34534
     193      444        5     0.00000    8.01913   10.70905   16.32131
     194      444        5     0.00000   11.28614    1.85011   11.19779
     195      444        4     0.00000   10.96162   11.13810   17.74935
     196      444        4     0.00000    7.97343    1.37190   12.61488
     197      444        4     0.00000    6.97094    7.62654   17.74730
     198      444        4     0.00000   10.23603    4.90458   12.63114
     199      444        4     0.00000    6.46380    6.57577   16.96604
     200      444        4     0.00000    9.71283    5.94500   11.84372
     201      444        5     0.00000   11.73295    6.17693   17.19403
     202      444        5     0.00000    8.72344    6.32683   12.07499
     203      444        4     0.00000    7.25266    6.06471   15.92633
     204      444        4     0.00000   10.48858    6.45777   10.79455
     205      444        4     0.00000   11.33781    1.24381   15.06847
     206      444        4     0.00000    8.07540   11.26755   20.19586
     207      444        4     0.00000    6.76067    4.94016   15.11014
     208      444        4     0.00000    9.75695    7.56629   20.23116
     209      444        6     0.00000    1.50350   10.61253   16.22244
     210      444        6     0.00000    2.46543    1.88250   13.66073
     211      444        6     0.00000   -0.05419    8.14487   18.76695
     212      444        6     0.00000    7.20419    4.31734   11.15997
     213      444        6     0.00000   11.69303   10.61545   18.79898
     214      444        6     0.00000    8.71822    1.88250   13.66074
     215      444        6     0.00000    6.19863    8.14487   18.76695
     216      444        6     0.00000    9.47110    4.38805   13.65935
     217      444        1     0.00000    2.44338    9.41116   29.14121
     218      444        1     0.00000    5.72007    3.10579   24.03337
     219      444        2     0.00000    0.99308    4.35425   24.48230
     220      444        2     0.00000    3.98641    8.15245   29.60320
     221      444        2     0.00000    4.18146    1.84729   24.42379
     222      444        2     0.00000    0.90980   10.67435   29.55151
     223      444        2     0.00000    5.35090    4.46033   25.51097
     224      444        2     0.00000    2.08725    8.03270   30.61609
     225      444        2     0.00000   -0.20402    1.69264   25.49129
     226      444        2     0.00000    2.78203   10.80466   30.61118
     227      444        3     0.00000    3.24159   10.66058   27.79016
     228      444        3     0.00000    0.25737    1.86420   22.66559
     229      444        3     0.00000    1.71699    8.14409   27.80054
     230      444        3     0.00000    4.98504    4.39481   22.68603
     231      444        4     0.00000    3.03027   12.14832   25.91157
     232      444        4     0.00000    0.01969    0.38955   20.77776
     233      444        5     0.00000    2.40934   12.51808   25.10123
     234      444        5     0.00000    5.41453    0.03371   30.24233
     235      444        4     0.00000    4.30555    0.14740   26.16337
     236      444        4     0.00000    1.28814   12.36991   21.02268
     237      444        4     0.00000    5.04826   12.15023   27.23065
     238      444        4     0.00000    2.04333    0.35508   22.08860
     239      444        5     0.00000   -0.20751   12.50843   27.46849
     240      444        5     0.00000    3.03636   12.50668   22.32192
     241      444        4     0.00000    2.02844    6.63370   25.95678
     242      444        4     0.00000    5.27284    5.90364   20.83525
     243      444        5     0.00000    2.67776    6.27291   25.16461
     244      444        5     0.00000   -0.56347    6.26667   30.31475
     245      444        4     0.00000    2.47238    7.68099   26.77924
     246      444        4     0.00000    5.73311    4.86756   21.66452
     247      444        5     0.00000    3.44475    8.14655   26.63746
     248      444        5     0.00000    0.46070    4.41889   21.52490
     249      444        4     0.00000    2.52737   11.13588   26.74604
     250      444        4     0.00000   -0.46555    1.40553   21.61962
     251      444        5     0.00000    4.80574    1.85011   21.47207
     252      444        4     0.00000    4.48122   11.13810   28.02363
     253      444        4     0.00000    1.49305    1.37190   22.88916
     254      444        5     0.00000    5.03041   10.70967   28.85800
     255      444        4     0.00000    0.49054    7.62654   28.02158
     256      444        4     0.00000    3.75564    4.90458   22.90542
     257      444        5     0.00000    3.18086    4.47744   23.72384
     258      444        4     0.00000   -0.01660    6.57577   27.24032
     259      444        4     0.00000    3.23244    5.94500   22.11800
     260      444        5     0.00000    5.25255    6.17693   27.46831
     261      444        5     0.00000    2.24305    6.32683   22.34927
     262      444        4     0.00000    0.77226    6.06471   26.20060
     263      444        4     0.00000    4.00819    6.45777   21.06883
     264      444        4     0.00000    4.85741    1.24381   25.34275
     265      444        4     0.00000    1.59501   11.26755   30.47014
     266      444        4     0.00000    0.28029    4.94016   25.38442
     267      444        4     0.00000    3.27656    7.56629   30.50544
     268      444        1     0.00000    8.69618    9.41116   29.14121
     269      444        1     0.00000   11.97287    3.10579   24.03337
     270      444        2     0.00000    7.24590    4.35425   24.48230
     271      444        2     0.00000   10.23921    8.15245   29.60320
     272      444        2     0.00000   10.43426    1.84729   24.42379
     273      444        2     0.00000    7.16260   10.67435   29.55151
     274      444        2     0.00000   11.60370    4.46033   25.51097
     275      444        2     0.00000    8.34005    8.03270   30.61609
     276      444        2     0.00000    6.04878    1.69264   25.49129
     277      444        2     0.00000    9.03483   10.80466   30.61118
     278      444        3     0.00000    9.49439   10.66058   27.79016
     279      444        3     0.00000    6.51017    1.86420   22.66559
     280      444        3     0.00000    7.96980    8.14409   27.80054
     281      444        3     0.00000   11.23784    4.39481   22.68603
     282      444        4     0.00000    9.28307   12.14832   25.91157
     283      444        4     0.00000    6.27249    0.38955   20.77776
     284      444        5     0.00000    8.66214   12.51808   25.10123
     285      444        5     0.00000   11.66733    0.03371   30.24233
     286      444        4     0.00000   10.55835    0.14740   26.16337
     287      444        4     0.00000    7.54094   12.36991   21.02268
     288      444        4     0.00000   11.30106   12.15023   27.23065
     289      444        4     0.00000    8.29613    0.35508   22.08860
     290      444        5     0.00000    6.04528   12.50843   27.46849
     291      444        5     0.00000    9.28916   12.50668   22.32192
     292      444        4     0.00000    8.28125    6.63370   25.95678
     293      444        4     0.00000   11.52565    5.90364   20.83525
     294      444        5     0.00000    8.93056    6.27291   25.16461
     295      444        5     0.00000    5.68933    6.26667   30.31475
     296      444        4     0.00000    8.72518    7.68099   26.77924
     297      444        4     0.00000   11.98591    4.86756   21.66452
     298      444        5     0.00000    9.69755    8.14655   26.63746
     299      444        4     0.00000    8.78017   11.13588   26.74604
     300      444        4     0.00000    5.78725    1.40553   21.61962
     301      444        5     0.00000    7.79154   10.70905   26.59559
     302      444        5     0.00000   11.05854    1.85011   21.47207
     303      444        4     0.00000   10.73402   11.13810   28.02363
     304      444        4     0.00000    7.74583    1.37190   22.88916
     305      444        4     0.00000    6.74334    7.62654   28.02158
     306      444        4     0.00000   10.00844    4.90458   22.90542
     307      444        4     0.00000    6.23620    6.57577   27.24032
     308      444        4     0.00000    9.48524    5.94500   22.11800
     309      444        5     0.00000   11.50535    6.17693   27.46831
     310      444        5     0.00000    8.49585    6.32683   22.34927
     311      444        4     0.00000    7.02506    6.06471   26.20060
     312      444        4     0.00000   10.26099    6.45777   21.06883
     313      444        4     0.00000   11.11021    1.24381   25.34275
     314      444        4     0.00000    7.84781   11.26755   30.47014
     315      444        4     0.00000    6.53308    4.94016   25.38442
     316      444        4     0.00000    9.52936    7.56629   30.50544
     317      444        6     0.00000    1.27591   10.61253   26.49672
     318      444        6     0.00000    2.23783    1.88250   23.93501
     319      444        6     0.00000   -0.28178    8.14487   29.04123
     320      444        6     0.00000    6.97659    4.31734   21.43425
     321      444        6     0.00000   11.46543   10.61545   29.07326
     322      444        6     0.00000    8.49062    1.88250   23.93502
     323      444        6     0.00000    5.97103    8.14487   29.04123
     324      444        6     0.00000    9.24350    4.38805   23.93363
     325      444        1     0.00000    2.89857   21.93456    8.59265
     326      444        1     0.00000    6.17525   15.62919    3.48481
     327      444        2     0.00000    1.44827   16.87765    3.93374
     328      444        2     0.00000    4.44160   20.67585    9.05464
     329      444        2     0.00000    4.63665   14.37069    3.87523
     330      444        2     0.00000    1.36499   23.19775    9.00295
     331      444        2     0.00000    5.80609   16.98373    4.96242
     332      444        2     0.00000    2.54244   20.55610   10.06753
     333      444        2     0.00000    0.25117   14.21604    4.94273
     334      444        2     0.00000    3.23722   23.32806   10.06262
     335      444        3     0.00000    3.69677   23.18398    7.24160
     336      444        3     0.00000    0.71256   14.38760    2.11704
     337      444        3     0.00000    2.17217   20.66749    7.25198
     338      444        3     0.00000    5.44023   16.91821    2.13747
     339      444        4     0.00000    3.48546   24.67172    5.36301
     340      444        4     0.00000    0.47488   12.91295    0.22920
     341      444        5     0.00000    2.86453   25.04148    4.55267
     342      444        5     0.00000    5.86971   12.55711    9.69377
     343      444        4     0.00000    4.76073   12.67080    5.61481
     344      444        4     0.00000    1.74333   24.89331    0.47412
     345      444        4     0.00000    5.50345   24.67363    6.68209
     346      444        4     0.00000    2.49852   12.87848    1.54004
     347      444        5     0.00000    0.24768   25.03183    6.91993
     348      444        5     0.00000    3.49155   25.03008    1.77336
     349      444        4     0.00000    2.48363   19.15710    5.40822
     350      444        4     0.00000    5.72803   18.42704    0.28669
     351      444        5     0.00000    3.13294   18.79631    4.61605
     352      444        5     0.00000   -0.10828   18.79007    9.76620
     353      444        4     0.00000    2.92756   20.20439    6.23068
     354      444        4     0.00000    6.18830   17.39096    1.11596
     355      444        5     0.00000    3.89994   20.66995    6.08890
     356      444        5     0.00000    0.91589   16.94229    0.97634
     357      444        4     0.00000    2.98256   23.65928    6.19748
     358      444        4     0.00000   -0.01036   13.92893    1.07106
     359      444        5     0.00000    5.26093   14.37351    0.92351
     360      444        4     0.00000    4.93641   23.66150    7.47507
     361      444        4     0.00000    1.94823   13.89530    2.34060
     362      444        5     0.00000    5.48559   23.23307    8.30944
     363      444        4     0.00000    0.94573   20.14994    7.47302
     364      444        4     0.00000    4.21083   17.42798    2.35686
     365      444        5     0.00000    3.63605   17.00084    3.17528
     366      444        4     0.00000    0.43859   19.09917    6.69176
     367      444        4     0.00000    3.68763   18.46840    1.56944
     368      444        5     0.00000    5.70774   18.70033    6.91975
     369      444        5     0.00000    2.69824   18.85023    1.80071
     370      444        4     0.00000    1.22745   18.58811    5.65205
     371      444        4     0.00000    4.46338   18.98117    0.52027
     372      444        4     0.00000    5.31260   13.76721    4.79419
     373      444        4     0.00000    2.05020   23.79095    9.92158
     374      444        4     0.00000    0.73548   17.46356    4.83586
     375      444        4     0.00000    3.73174   20.08969    9.95688
     376      444        1     0.00000    9.15137   21.93456    8.59265
     377      444        1     0.00000   12.42805   15.62919    3.48481
     378      444        2     0.00000    7.70109   16.87765    3.93374