Created on Wed Aug 05 15:43:44 2020 

         204 atoms
         207 bonds
         401 angles
         466 dihedrals
         168 impropers

           9 atom types
          12 bond types
          22 angle types
           5 dihedral types
           1 improper types
           0.000000  12.505600 xlo xhi
           0.000000  12.523400 ylo yhi
           0.000000  10.274279 zlo zhi
           0.000000  -0.227594   0.000000 xy xz yz

Masses

    1    58.693400000 # Ni4+2
    2    15.999400000 # O_R
    3    14.006700000 # N_R
    4    12.010700000 # C_R
    5     1.007940000 # H_
    6    12.010700000 # C_3
    7    12.010700000 # C_2
    8    12.010700000 # C_1
    9     1.007940000 # H_

Bond Coeffs

    1      321.720028        1.793457  # Ni4+2 O_R
    2      328.673665        1.841585  # Ni4+2 N_R
    3      646.680887        1.311940  # O_R C_R
    4      663.718927        1.345073  # N_R C_R
    5      462.655054        1.379256  # C_R C_R
    6      357.440381        1.081418  # C_R H_
    7      391.669513        1.458000  # C_R C_R
    8      369.943935        1.486000  # C_R C_3
    9      389.261715        1.461000  # C_R C_2
   10      349.795899        1.514000  # C_3 C_3
   11      331.069389        1.109401  # C_3 H_
   12      367.712375        1.489000  # C_2 C_3

Angle Coeffs

    1              cosine/periodic      322.980216               1               4 # O_R Ni4+2 O_R
    2              cosine/periodic      343.030950               1               4 # O_R Ni4+2 N_R
    3              cosine/periodic      364.965660               1               4 # N_R Ni4+2 N_R
    4              cosine/periodic      238.346347              -1               3 # C_R O_R Ni4+2
    5              cosine/periodic      177.809033              -1               3 # Ni4+2 N_R C_R
    6              cosine/periodic      240.001032              -1               3 # C_R N_R C_R
    7              cosine/periodic      114.578032              -1               3 # C_R C_R H_
    8              cosine/periodic      222.595017              -1               3 # C_R C_R C_R
    9              cosine/periodic      204.366560              -1               3 # C_R C_R C_R
   10              cosine/periodic      198.274298              -1               3 # C_R C_R C_3
   11              cosine/periodic      307.398705              -1               3 # N_R C_R C_R
   12              cosine/periodic      159.573934              -1               3 # N_R C_R H_
   13              cosine/periodic      263.511421              -1               3 # O_R C_R C_R
   14              cosine/periodic      374.272657              -1               3 # O_R C_R O_R
   15              cosine/periodic      203.704287              -1               3 # C_R C_R C_2
   16                      fourier      220.229931        0.343737        0.374972        0.281246 # C_R C_3 C_3
   17                      fourier      214.211821        0.343737        0.374972        0.281246 # C_3 C_3 C_3
   18                      fourier      117.318683        0.343737        0.374972        0.281246 # C_3 C_3 H_
   19                      fourier       75.498766        0.343737        0.374972        0.281246 # H_ C_3 H_
   20              cosine/periodic      181.979950              -1               3 # C_R C_2 C_3
   21              cosine/periodic      176.915699              -1               3 # C_3 C_2 C_3
   22                      fourier      121.290688        0.343737        0.374972        0.281246 # C_2 C_3 H_

Dihedral Coeffs

    1        2.245703              -1               2 # Ni4+2 O_R C_R C_R
    2        1.497136              -1               2 # Ni4+2 N_R C_R C_R
    3        0.555556              -1               2 # C_R C_R C_R O_R
    4        0.083333               1               3 # C_R C_R C_3 C_3
    5        0.066219               1               3 # C_R C_3 C_3 H_

Improper Coeffs

    1        2.000000        1.000000       -1.000000        0.000000               0 # Ni4+2 N_R C_R C_R

Pair Coeffs

    1        0.015000        2.524807 # Ni4+2 Ni4+2
    2        0.060000        3.118146 # O_R O_R
    3        0.069000        3.260689 # N_R N_R
    4        0.105000        3.430851 # C_R C_R
    5        0.044000        2.571134 # H_ H_
    6        0.105000        3.430851 # C_3 C_3
    7        0.105000        3.430851 # C_2 C_2
    8        0.105000        3.430851 # C_1 C_1
    9        0.044000        2.571134 # H_ H_

Atoms

       1      444        1     0.00000    2.89857    9.41116    8.59265
       2      444        1     0.00000    6.17525    3.10579    3.48481
       3      444        2     0.00000    1.44827    4.35425    3.93374
       4      444        2     0.00000    4.44160    8.15245    9.05464
       5      444        2     0.00000    4.63665    1.84729    3.87523
       6      444        2     0.00000    1.36499   10.67435    9.00295
       7      444        2     0.00000    5.80609    4.46033    4.96242
       8      444        2     0.00000    2.54244    8.03270   10.06753
       9      444        2     0.00000    0.25117    1.69264    4.94273
      10      444        2     0.00000    3.23722   10.80466   10.06262
      11      444        3     0.00000    3.69677   10.66058    7.24160
      12      444        3     0.00000    0.71256    1.86420    2.11704
      13      444        3     0.00000    2.17217    8.14409    7.25198
      14      444        3     0.00000    5.44023    4.39481    2.13747
      15      444        4     0.00000    3.48546   12.14832    5.36301
      16      444        4     0.00000    0.47488    0.38955    0.22920
      17      444        5     0.00000    2.86453   12.51808    4.55267
      18      444        5     0.00000    5.86971    0.03371    9.69377
      19      444        4     0.00000    4.76073    0.14740    5.61481
      20      444        4     0.00000    1.74333   12.36991    0.47412
      21      444        4     0.00000    5.50345   12.15023    6.68209
      22      444        4     0.00000    2.49852    0.35508    1.54004
      23      444        5     0.00000    0.24768   12.50843    6.91993
      24      444        4     0.00000    2.48363    6.63370    5.40822
      25      444        4     0.00000    5.72803    5.90364    0.28669
      26      444        5     0.00000    3.13294    6.27291    4.61605
      27      444        5     0.00000   -0.10828    6.26667    9.76620
      28      444        4     0.00000    2.92756    7.68099    6.23068
      29      444        4     0.00000    6.18830    4.86756    1.11596
      30      444        5     0.00000    3.89994    8.14655    6.08890
      31      444        5     0.00000    0.91589    4.41889    0.97634
      32      444        4     0.00000    2.98256   11.13588    6.19748
      33      444        4     0.00000   -0.01036    1.40553    1.07106
      34      444        5     0.00000    1.99392   10.70905    6.04703
      35      444        5     0.00000    5.26093    1.85011    0.92351
      36      444        4     0.00000    4.93641   11.13810    7.47507
      37      444        4     0.00000    1.94823    1.37190    2.34060
      38      444        5     0.00000    5.48559   10.70967    8.30944
      39      444        5     0.00000    2.50886    1.79214    3.17267
      40      444        4     0.00000    0.94573    7.62654    7.47302
      41      444        4     0.00000    4.21083    4.90458    2.35686
      42      444        5     0.00000    0.36328    8.05184    8.28732
      43      444        5     0.00000    3.63605    4.47744    3.17528
      44      444        4     0.00000    0.43859    6.57577    6.69176
      45      444        4     0.00000    3.68763    5.94500    1.56944
      46      444        5     0.00000    5.70774    6.17693    6.91975
      47      444        5     0.00000    2.69824    6.32683    1.80071
      48      444        4     0.00000    1.22745    6.06471    5.65205
      49      444        4     0.00000    4.46338    6.45777    0.52027
      50      444        4     0.00000    5.31260    1.24381    4.79419
      51      444        4     0.00000    2.05020   11.26755    9.92158
      52      444        4     0.00000    0.73548    4.94016    4.83586
      53      444        4     0.00000    3.73174    7.56629    9.95688
      54      444        1     0.00000    9.15137    9.41116    8.59265
      55      444        1     0.00000   12.42805    3.10579    3.48481
      56      444        2     0.00000    7.70109    4.35425    3.93374
      57      444        2     0.00000   10.69440    8.15245    9.05464
      58      444        2     0.00000   10.88945    1.84729    3.87523
      59      444        2     0.00000    7.61779   10.67435    9.00295
      60      444        2     0.00000   12.05889    4.46033    4.96242
      61      444        2     0.00000    8.79524    8.03270   10.06753
      62      444        2     0.00000    6.50397    1.69264    4.94273
      63      444        2     0.00000    9.49002   10.80466   10.06262
      64      444        3     0.00000    9.94957   10.66058    7.24160
      65      444        3     0.00000    6.96536    1.86420    2.11704
      66      444        3     0.00000    8.42499    8.14409    7.25198
      67      444        3     0.00000   11.69303    4.39481    2.13747
      68      444        4     0.00000    9.73826   12.14832    5.36301
      69      444        4     0.00000    6.72768    0.38955    0.22920
      70      444        5     0.00000   12.12251    0.03371    9.69377
      71      444        4     0.00000   11.01353    0.14740    5.61481
      72      444        4     0.00000    7.99613   12.36991    0.47412
      73      444        4     0.00000   11.75625   12.15023    6.68209
      74      444        4     0.00000    8.75132    0.35508    1.54004
      75      444        4     0.00000    8.73644    6.63370    5.40822
      76      444        4     0.00000   11.98084    5.90364    0.28669
      77      444        4     0.00000    9.18036    7.68099    6.23068
      78      444        4     0.00000   12.44110    4.86756    1.11596
      79      444        5     0.00000   10.15274    8.14655    6.08890
      80      444        5     0.00000    7.16869    4.41889    0.97634
      81      444        4     0.00000    9.23536   11.13588    6.19748
      82      444        4     0.00000    6.24244    1.40553    1.07106
      83      444        5     0.00000    8.24672   10.70905    6.04703
      84      444        5     0.00000   11.51373    1.85011    0.92351
      85      444        4     0.00000   11.18921   11.13810    7.47507
      86      444        4     0.00000    8.20102    1.37190    2.34060
      87      444        5     0.00000   11.73839   10.70967    8.30944
      88      444        5     0.00000    8.76167    1.79214    3.17267
      89      444        4     0.00000    7.19853    7.62654    7.47302
      90      444        4     0.00000   10.46363    4.90458    2.35686
      91      444        5     0.00000    6.61608    8.05184    8.28732
      92      444        5     0.00000    9.88885    4.47744    3.17528
      93      444        4     0.00000    6.69139    6.57577    6.69176
      94      444        4     0.00000    9.94043    5.94500    1.56944
      95      444        4     0.00000    7.48025    6.06471    5.65205
      96      444        4     0.00000   10.71618    6.45777    0.52027
      97      444        4     0.00000   11.56540    1.24381    4.79419
      98      444        4     0.00000    8.30300   11.26755    9.92158
      99      444        4     0.00000    6.98827    4.94016    4.83586
     100      444        4     0.00000    9.98454    7.56629    9.95688
     101      444        6     0.00000    6.97845    0.09761    7.08546
     102      444        6     0.00000    7.57000   11.87051    8.31875
     103      444        5     0.00000    7.65721   10.77816    8.12909
     104      444        5     0.00000    8.59415   12.23494    8.55600
     105      444        5     0.00000    6.95491   12.03469    9.23059
     106      444        6     0.00000    6.96961    1.58720    7.51955
     107      444        5     0.00000    6.32438    1.70968    8.41672
     108      444        5     0.00000    7.99508    1.92242    7.78805
     109      444        5     0.00000    6.58330    2.30908    6.79435
     110      444        6     0.00000    7.97688   12.30841    5.93967
     111      444        5     0.00000    8.01367   11.21063    5.76715
     112      444        5     0.00000    7.75282    0.21655    4.95998
     113      444        5     0.00000    9.00097    0.12269    6.21034
     114      444        6     0.00000    3.96988   12.38849    1.93334
     115      444        6     0.00000    4.57739    0.60400    3.16585
     116      444        5     0.00000    4.67673    1.69587    2.97952
     117      444        5     0.00000    5.59837    0.22639    3.39604
     118      444        5     0.00000    3.96549    0.44402    4.08059
     119      444        6     0.00000    3.94547   10.89756    2.36227
     120      444        5     0.00000    3.30386   10.77969    3.26265
     121      444        5     0.00000    4.96832   10.54905    2.62378
     122      444        5     0.00000    3.54640   10.18299    1.63676
     123      444        6     0.00000    4.96556    0.16968    0.78301
     124      444        5     0.00000    5.01465    1.26753    0.61411
     125      444        5     0.00000    4.50322   12.26775   10.07738
     126      444        5     0.00000    5.98701   12.34210    1.04669
     127      444        6     0.00000   11.48197    6.05167    7.07252
     128      444        6     0.00000   10.83187    6.80241    8.27582
     129      444        5     0.00000   10.70357    7.88586    8.06033
     130      444        5     0.00000    9.81866    6.40025    8.49869
     131      444        5     0.00000   11.43243    6.68353    9.20423
     132      444        6     0.00000   11.54297    4.57323    7.53937
     133      444        5     0.00000   12.17223    4.49698    8.45284
     134      444        5     0.00000   10.52652    4.20087    7.79278
     135      444        5     0.00000   11.97534    3.85316    6.83881
     136      444        6     0.00000   10.49762    6.29773    5.89867
     137      444        5     0.00000   10.41908    7.38909    5.70128
     138      444        5     0.00000   10.76160    5.85545    4.93381
     139      444        5     0.00000    9.48260    5.92299    6.15433
     140      444        6     0.00000    6.49636    6.36518    9.39316
     141      444        6     0.00000    7.84337    5.57866    9.35938
     142      444        5     0.00000    8.64708    5.71438    0.02660
     143      444        5     0.00000    8.49595    5.93724    8.53260
     144      444        5     0.00000    7.67816    4.49268    9.18587
     145      444        6     0.00000    5.86370    6.08873    8.00364
     146      444        5     0.00000    5.69287    4.99671    7.88301
     147      444        5     0.00000    6.54589    6.41956    7.19051
     148      444        5     0.00000    4.89183    6.54932    7.80474
     149      444        6     0.00000    6.92694    7.84099    9.60290
     150      444        5     0.00000    7.70362    7.93540    0.29081
     151      444        5     0.00000    6.12635    8.58385    9.66162
     152      444        5     0.00000    7.60767    8.16943    8.78756
     153      444        6     0.00000    8.77803    0.09716    4.17107
     154      444        6     0.00000    7.41100   11.87024    4.12154
     155      444        5     0.00000    7.54983   10.77796    3.96523
     156      444        5     0.00000    6.78411   12.23517    3.27783
     157      444        5     0.00000    6.82113   12.03405    5.04997
     158      444        6     0.00000    8.38385    1.58671    4.35345
     159      444        5     0.00000    7.81948    1.70879    5.30361
     160      444        5     0.00000    7.72781    1.92242    3.52102
     161      444        5     0.00000    9.20310    2.30845    4.41797
     162      444        6     0.00000    9.42904   12.30855    2.79767
     163      444        5     0.00000    9.57234   11.21081    2.69443
     164      444        5     0.00000   10.41666    0.21668    2.61157
     165      444        5     0.00000    8.77157    0.12333    1.96736
     166      444        6     0.00000   10.22268   12.38850    1.93334
     167      444        6     0.00000   10.83018    0.60402    3.16587
     168      444        5     0.00000   10.92952    1.69588    2.97953
     169      444        5     0.00000   11.85117    0.22641    3.39605
     170      444        5     0.00000   10.21827    0.44402    4.08059
     171      444        6     0.00000   10.19829   10.89757    2.36227
     172      444        5     0.00000    9.55668   10.77970    3.26265
     173      444        5     0.00000   11.22112   10.54906    2.62379
     174      444        5     0.00000    9.79921   10.18300    1.63676
     175      444        6     0.00000   11.21836    0.16969    0.78302
     176      444        5     0.00000   11.26745    1.26756    0.61411
     177      444        5     0.00000   10.75602   12.26776   10.07738
     178      444        5     0.00000   12.23980   12.34212    1.04670
     179      444        7     0.00000    9.73413    6.17957    4.24170
     180      444        6     0.00000   11.06928    6.98558    4.19852
     181      444        5     0.00000   11.65022    6.86456    5.13908
     182      444        5     0.00000   11.72456    6.63118    3.37208
     183      444        5     0.00000   10.88757    8.06784    4.01844
     184      444        6     0.00000    9.09323    6.43750    2.85240
     185      444        5     0.00000    8.90596    7.52607    2.72515
     186      444        5     0.00000    9.77774    6.11138    2.03930
     187      444        5     0.00000    8.12764    5.96136    2.65958
     188        1        8     0.00000   10.18703    4.71167    4.45975
     189        2        9     0.00000   10.74038    4.63169    5.42080
     190        3        9     0.00000    9.39765    3.95751    4.52586
     191        4        9     0.00000   10.87004    4.38791    3.64444
     192        5        8     0.00000    8.47455    6.45560    1.95635
     193        6        8     0.00000    7.84070    5.70675    3.16945
     194        7        9     0.00000    7.72305    4.62036    2.96287
     195        8        9     0.00000    6.82455    6.09933    3.39601
     196        9        9     0.00000    8.44594    5.83924    4.09296
     197       10        8     0.00000    8.52216    7.93807    2.41178
     198       11        9     0.00000    9.15648    8.02814    3.32050
     199       12        9     0.00000    7.50331    8.30106    2.66913
     200       13        9     0.00000    8.94193    8.65761    1.70305
     201       14        8     0.00000    7.48538    6.18985    0.79087
     202       15        9     0.00000    7.41769    5.09623    0.60211
     203       16        9     0.00000    7.51053    6.62778   10.09532
     204       17        9     0.00000    6.46795    6.55525    1.05044

Bonds

       1        1        1        4
       2        1        1        6
       3        1        1        8
       4        1        1       10
       5        2        1       11
       6        2        1       13
       7        1        2        5
       8        1        2        7
       9        2        2       14
      10        1        2       56
      11        1        2       62
      12        2        2       65
      13        3        3       52
      14        1        3       55
      15        3        4       53
      16        3        5       50
      17        3        6       51
      18        3        7       99
      19        3        8       53
      20        1        9       55
      21        3        9       97
      22        3       10       51
      23        4       11       32
      24        4       11       36
      25        4       12       33
      26        4       12       37
      27        2       12       55
      28        4       13       28
      29        4       13       40
      30        4       14       29
      31        4       14       41
      32        6       15       17
      33        5       15       19
      34        5       15       32
      35        5       16       20
      36        5       16       33
      37        6       16       70
      38        6       18       69
      39        5       19       21
      40        7       19       50
      41        5       20       22
      42        7       20       51
      43        5       21       36
      44        8       21      101
      45        5       22       37
      46        8       22      114
      47        6       23       73
      48        6       24       26
      49        5       24       28
      50        5       24       48
      51        5       25       29
      52        5       25       49
      53        8       25      140
      54        6       27       76
      55        6       28       30
      56        6       29       80
      57        6       31       78
      58        6       32       34
      59        6       33       84
      60        6       35       82
      61        6       36       38
      62        6       37       39
      63        6       40       42
      64        5       40       44
      65        6       41       43
      66        5       41       45
      67        5       44       48
      68        8       44      127
      69        6       45       47
      70        5       45       49
      71        6       46       93
      72        7       48       52
      73        7       49       53
      74        3       50       62
      75        3       52       60
      76        1       54       57
      77        1       54       59
      78        1       54       61
      79        1       54       63
      80        2       54       64
      81        2       54       66
      82        1       55       58
      83        1       55       60
      84        2       55       67
      85        3       56       99
      86        3       57      100
      87        3       58       97
      88        3       59       98
      89        3       61      100
      90        3       63       98
      91        4       64       81
      92        4       64       85
      93        4       65       82
      94        4       65       86
      95        4       66       77
      96        4       66       89
      97        4       67       78
      98        4       67       90
      99        5       68       71
     100        5       68       81
     101        8       68      153
     102        5       69       72
     103        5       69       82
     104        5       71       73
     105        7       71       97
     106        5       72       74
     107        7       72       98
     108        5       73       85
     109        5       74       86
     110        8       74      166
     111        5       75       77
     112        5       75       95
     113        9       75      179
     114        5       76       78
     115        5       76       96
     116        6       77       79
     117        6       81       83
     118        6       85       87
     119        6       86       88
     120        6       89       91
     121        5       89       93
     122        6       90       92
     123        5       90       94
     124        5       93       95
     125        5       94       96
     126        7       95       99
     127        7       96      100
     128       10      101      102
     129       10      101      106
     130       10      101      110
     131       11      102      103
     132       11      102      104
     133       11      102      105
     134       11      106      107
     135       11      106      108
     136       11      106      109
     137       11      110      111
     138       11      110      112
     139       11      110      113
     140       10      114      115
     141       10      114      119
     142       10      114      123
     143       11      115      116
     144       11      115      117
     145       11      115      118
     146       11      119      120
     147       11      119      121
     148       11      119      122
     149       11      123      124
     150       11      123      125
     151       11      123      126
     152       10      127      128
     153       10      127      132
     154       10      127      136
     155       11      128      129
     156       11      128      130
     157       11      128      131
     158       11      132      133
     159       11      132      134
     160       11      132      135
     161       11      136      137
     162       11      136      138
     163       11      136      139
     164       10      140      141
     165       10      140      145
     166       10      140      149
     167       11      141      142
     168       11      141      143
     169       11      141      144
     170       11      145      146
     171       11      145      147
     172       11      145      148
     173       11      149      150
     174       11      149      151
     175       11      149      152
     176       10      153      154
     177       10      153      158
     178       10      153      162
     179       11      154      155
     180       11      154      156
     181       11      154      157
     182       11      158      159
     183       11      158      160
     184       11      158      161
     185       11      162      163
     186       11      162      164
     187       11      162      165
     188       10      166      167
     189       10      166      171
     190       10      166      175
     191       11      167      168
     192       11      167      169
     193       11      167      170
     194       11      171      172
     195       11      171      173
     196       11      171      174
     197       11      175      176
     198       11      175      177
     199       11      175      178
     200       12      179      180
     201       12      179      184
     202       11      180      181
     203       11      180      182
     204       11      180      183
     205       11      184      185
     206       11      184      186
     207       11      184      187

Angles

       1        1        4        1        6
       2        1        4        1        8
       3        1        4        1       10
       4        2        4        1       11
       5        2        4        1       13
       6        1        6        1        8
       7        1        6        1       10
       8        2        6        1       11
       9        2        6        1       13
      10        1        8        1       10
      11        2        8        1       11
      12        2        8        1       13
      13        2       10        1       11
      14        2       10        1       13
      15        3       11        1       13
      16        2       14        2        5
      17        2       14        2        7
      18        2       14        2       56
      19        2       14        2       62
      20        3       14        2       65
      21        1        5        2        7
      22        1        5        2       56
      23        1        5        2       62
      24        2        5        2       65
      25        1        7        2       56
      26        1        7        2       62
      27        2        7        2       65
      28        1       56        2       62
      29        2       56        2       65
      30        2       62        2       65
      31        4       52        3       55
      32        4        1        4       53
      33        4        2        5       50
      34        4        1        6       51
      35        4        2        7       99
      36        4        1        8       53
      37        4       55        9       97
      38        4        1       10       51
      39        5        1       11       32
      40        5        1       11       36
      41        6       32       11       36
      42        6       33       12       37
      43        5       33       12       55
      44        5       37       12       55
      45        5        1       13       28
      46        5        1       13       40
      47        6       28       13       40
      48        5        2       14       29
      49        5        2       14       41
      50        6       29       14       41
      51        7       19       15       17
      52        8       19       15       32
      53        7       17       15       32
      54        8       20       16       33
      55        7       20       16       70
      56        7       33       16       70
      57        8       15       19       21
      58        9       15       19       50
      59        9       21       19       50
      60        8       16       20       22
      61        9       16       20       51
      62        9       22       20       51
      63        8       19       21       36
      64       10       19       21      101
      65       10       36       21      101
      66        8       20       22       37
      67       10       20       22      114
      68       10       37       22      114
      69        8       28       24       48
      70        7       28       24       26
      71        7       48       24       26
      72        8       29       25       49
      73       10       29       25      140
      74       10       49       25      140