units           real
atom_style      full
boundary        p p p

pair_style      lj/cut 12.500
bond_style      harmonic
angle_style     hybrid cosine/periodic fourier
dihedral_style  harmonic
improper_style  fourier

dielectric      1.0
pair_modify     tail yes mix arithmetic
special_bonds   lj/coul 0.0 0.0 1.0
box tilt        large
read_data       data.NiPyC2_relax_sc211_meta_functionalized_C-3CH3
  triclinic box = (0 0 0) to (25.0112 25.0468 30.8228) with tilt (0 -0.682783 0)
  1 by 1 by 1 MPI processor grid
  reading atoms ...
  2448 atoms
  scanning bonds ...
  6 = max bonds/atom
  scanning angles ...
  15 = max angles/atom
  scanning dihedrals ...
  27 = max dihedrals/atom
  scanning impropers ...
  3 = max impropers/atom
  reading bonds ...
  2484 bonds
  reading angles ...
  4812 angles
  reading dihedrals ...
  5592 dihedrals
  reading impropers ...
  2016 impropers
  6 = max # of 1-2 neighbors
  11 = max # of 1-3 neighbors
  15 = max # of special neighbors
  special bonds CPU = 0.000921669 secs
  read_data CPU = 0.0420772 secs

#### Atom Groupings ####
group           1        id   188:204 392:408 596:612 800:816 1004:1020 1208:1224 1412:1428 1616:1632 1820:1836 2024:2040 2228:2244 2432:2448
204 atoms in group 1
group           1-1      id   188 392 596 800 1004 1208 1412 1616 1820 2024 2228 2432
12 atoms in group 1-1
group           1-2      id   392
1 atoms in group 1-2
group           1-3      id   596
1 atoms in group 1-3
group           1-4      id   800
1 atoms in group 1-4
group           1-5      id   1004
1 atoms in group 1-5
group           1-6      id   1208
1 atoms in group 1-6
group           1-7      id   1412
1 atoms in group 1-7
group           1-8      id   1616
1 atoms in group 1-8
group           1-9      id   1820
1 atoms in group 1-9
group           1-10     id   2024
1 atoms in group 1-10
group           1-11     id   2228
1 atoms in group 1-11
group           1-12     id   2432
1 atoms in group 1-12
group           1-13     id   189 393 597 801 1005 1209 1413 1617 1821 2025 2229 2433
12 atoms in group 1-13
group           1-14     id   393
1 atoms in group 1-14
group           1-15     id   597
1 atoms in group 1-15
group           1-16     id   801
1 atoms in group 1-16
group           1-17     id   1005
1 atoms in group 1-17
group           1-18     id   1209
1 atoms in group 1-18
group           1-19     id   1413
1 atoms in group 1-19
group           1-20     id   1617
1 atoms in group 1-20
group           1-21     id   1821
1 atoms in group 1-21
group           1-22     id   2025
1 atoms in group 1-22
group           1-23     id   2229
1 atoms in group 1-23
group           1-24     id   2433
1 atoms in group 1-24
group           1-25     id   190 394 598 802 1006 1210 1414 1618 1822 2026 2230 2434
12 atoms in group 1-25
group           1-26     id   394
1 atoms in group 1-26
group           1-27     id   598
1 atoms in group 1-27
group           1-28     id   802
1 atoms in group 1-28
group           1-29     id   1006
1 atoms in group 1-29
group           1-30     id   1210
1 atoms in group 1-30
group           1-31     id   1414
ERROR: Too many groups (src/group.cpp:162)
Last command: group           1-31     id   1414
