ITEM: TIMESTEP
0
ITEM: NUMBER OF ATOMS
204
ITEM: BOX BOUNDS xy xz yz pp pp pp
-2.4147601435002841e-01 1.5121185486078200e+01 0.0000000000000000e+00
0.0000000000000000e+00 1.0930557797880001e+01 -2.4147601435002841e-01
0.0000000000000000e+00 1.0900954960324899e+01 0.0000000000000000e+00
ITEM: ATOMS id type x y z
1 1 2.21228 8.93284 8.53792
2 1 6.28108 3.06168 2.78391
3 2 0.0948933 4.33133 3.34694
4 2 3.74255 7.9573 8.5968
5 2 4.73685 2.18642 2.9661
6 2 0.694088 9.86001 8.79553
7 2 5.9425 4.28155 4.05064
8 2 1.91202 7.67756 9.79171
9 2 14.1034 2.22732 4.60582
10 2 2.61575 10.0961 9.86816
11 3 2.89157 10.1989 7.11327
12 3 14.4382 2.0423 1.9292
13 3 1.42727 7.78431 7.18118
14 3 5.59858 4.34158 1.39481
15 4 3.50474 10.5445 4.75998
16 4 14.7138 10.8434 0.693267
17 5 7.00909 1.1541 8.93407
18 4 4.44323 0.668264 5.06727
19 4 0.754208 0.409982 0.0186698
20 4 4.50782 1.01805 6.4344
21 4 1.07566 1.76154 0.333516
22 5 13.4871 10.1235 5.00196
23 4 1.31959 5.6527 6.16118
24 4 5.25997 5.61328 10.1714
25 5 13.5224 7.03826 10.5364
26 4 1.54082 6.45301 7.27769
27 4 6.23835 4.81416 0.2571
28 5 1.40447 5.9984 8.23286
29 5 14.7316 5.67543 1.47513
30 4 3.09049 9.70304 5.84604
31 4 14.0048 0.749583 1.66323
32 5 2.91554 8.67265 5.64925
33 5 5.66797 2.43346 10.567
34 4 3.64391 0.390696 7.41684
35 4 0.560782 2.33047 1.4915
36 5 3.74796 0.69687 8.42849
37 5 1.23116 2.89191 2.10877
38 4 0.414047 8.24178 6.36921
39 4 4.34105 4.8174 1.61503
40 5 0.0756963 9.26246 6.46021
41 5 3.73062 4.34476 2.34143
42 4 14.9185 7.37156 5.40586
43 4 3.86781 5.98189 0.964178
44 5 6.52541 5.20961 6.55976
45 4 0.25024 6.0404 5.25941
46 4 3.99955 6.19624 10.5178
47 4 5.2906 1.46315 3.971
48 4 1.29988 10.5035 9.80771
49 4 14.6177 5.07274 4.2916
50 4 3.19157 7.21402 9.57447
51 1 9.97965 8.50618 8.3082
52 1 13.7141 3.34479 3.2496
53 2 7.84174 3.95738 2.94967
54 2 11.5167 7.59761 8.52323
55 2 12.2137 2.40545 3.48877
56 2 8.44613 9.42058 8.42911
57 2 13.3443 4.62841 4.46482
58 2 9.616 7.38775 9.65241
59 2 6.59383 1.85985 4.11523
60 2 10.3393 9.7923 9.50232
61 3 10.6612 9.67467 6.85593
62 3 6.93387 1.73594 1.39119
63 3 9.28423 7.16969 7.01764
64 3 13.0017 4.47267 1.7756
65 4 10.9323 1.09267 6.2022
66 4 7.22188 1.04724 9.98469
67 5 14.3862 9.82602 0.522507
68 4 12.1578 0.807574 5.50795
69 4 8.23879 0.148731 10.4072
70 4 12.5971 10.4038 5.54445
71 4 8.73753 0.133041 0.902672
72 5 5.21543 1.76915 6.75247
73 4 9.23127 6.20541 4.7682
74 4 13.1702 6.25512 0.0904124
75 5 5.7003 5.81882 9.20741
76 4 9.94211 6.80098 5.87799
77 4 13.7319 5.46677 1.15455
78 5 11.0034 6.93695 5.81949
79 5 7.25375 4.53794 0.0588076
80 4 10.1264 10.9193 6.64597
81 4 6.72931 1.85752 0.0316571
82 5 9.13499 0.184495 6.97575
83 5 13.2331 0.30533 2.2616
84 4 11.8937 9.41565 6.29222
85 4 7.73152 0.685467 1.78062
86 5 12.3833 8.47582 6.47398
87 5 7.64593 0.300518 2.77197
88 4 8.0415 6.61844 7.23807
89 4 11.688 4.30537 1.39024
90 5 7.51715 6.84744 8.15121
91 5 11.0237 3.7134 1.99278
92 4 7.42081 5.75017 6.28173
93 4 11.123 5.03625 0.313583
94 5 14.1135 7.73937 4.78337
95 4 7.97453 5.56691 4.9986
96 4 11.5975 6.04291 10.5663
97 4 12.8335 1.79074 4.515
98 4 9.03832 10.1874 9.37323
99 4 7.2312 4.68447 3.92822
100 4 10.8945 6.95035 9.53418
101 6 2.45952 10.7389 3.65313
102 6 1.39277 9.61122 3.57505
103 5 1.80448 8.63851 3.7986
104 5 0.843998 9.6232 2.62361
105 5 0.578311 9.74174 4.30616
106 6 1.65638 0.976332 4.09381
107 5 1.30886 0.795931 5.12882
108 5 0.728587 1.03315 3.54548
109 5 2.24571 1.88913 3.94485
110 6 3.06653 0.095582 2.26279
111 5 2.8743 1.11694 1.92791
112 5 2.67522 10.3574 1.49081
113 5 4.15776 0.0395954 2.23553
114 6 1.51674 2.6815 10.281
115 6 1.24593 4.17749 10.6342
116 5 0.17874 4.42491 10.4774
117 5 1.82381 4.85287 10.0086
118 5 1.76636 4.43602 0.765262
119 6 3.0264 2.42484 10.3764
120 5 3.63241 2.74511 0.457617
121 5 3.60965 2.94138 9.59934
122 5 3.27795 1.36206 10.3691
123 6 0.901753 2.42865 8.91654
124 5 -0.140018 2.04185 8.95045
125 5 1.51377 1.70986 8.3579
126 5 0.778668 3.39359 8.43013
127 6 2.14831 4.38271 6.06527
128 6 3.17626 4.24688 7.2305
129 5 3.94631 5.04694 7.2064
130 5 3.69106 3.28494 7.19923
131 5 2.71828 4.30724 8.2041
132 6 1.19876 3.22691 6.04363
133 5 1.70228 2.3306 6.41211
134 5 0.950898 3.07672 5.02517
135 5 0.203138 3.41134 6.49655
136 6 3.0214 4.33793 4.83548
137 5 3.82788 5.07332 4.94343
138 5 2.41054 4.48264 3.93274
139 5 3.54338 3.37227 4.77525
140 6 3.45459 7.16763 1.80594
141 6 3.71703 6.99443 3.3156
142 5 4.66064 6.45035 3.51057
143 5 3.87962 7.94942 3.83054
144 5 2.83378 6.59743 3.82527
145 6 1.93485 7.38853 1.54812
146 5 1.28491 7.16771 2.41461
147 5 1.72769 8.38879 1.13992
148 5 1.51106 6.67002 0.831402
149 6 4.40055 8.3164 1.40194
150 5 5.4217 7.92722 1.27434
151 5 4.08903 8.83663 0.497328
152 5 4.57058 9.02759 2.19374
153 6 10.5901 2.48568 6.78308
154 6 10.6611 2.42839 8.32306
155 5 9.93435 1.70408 8.72783
156 5 10.4214 3.41256 8.78031
157 5 11.6795 2.14471 8.64966
158 6 11.4989 3.64259 6.35348
159 5 11.2693 4.56414 6.93034
160 5 11.294 3.89185 5.2951
161 5 12.5655 3.40994 6.55294
162 6 9.15839 2.85928 6.3675
163 5 8.38482 2.17659 6.76194
164 5 9.06769 2.89444 5.26136
165 5 8.92814 3.84124 6.80071
166 6 10.1904 0.081327 1.39868
167 6 10.2486 0.421846 2.89718
168 5 9.93548 1.46708 3.11175
169 5 11.2624 0.231488 3.2443
170 5 9.63486 10.6527 3.48164
171 6 10.8324 9.60286 1.25116
172 5 11.138 9.1936 2.22115
173 5 11.7804 9.60802 0.674265
174 5 10.1367 8.8717 0.806314
175 6 11.0073 1.14669 0.612312
176 5 11.7193 1.67246 1.24641
177 5 10.3696 1.93852 0.184931
178 5 11.3494 0.72222 10.6797
179 7 9.69959 6.5034 3.39632
180 6 11.1526 6.80131 3.20122
181 5 11.7252 5.9525 3.56978
182 5 11.3934 6.97301 2.14287
183 5 11.4568 7.70018 3.77309
184 6 8.73516 7.01591 2.36598
185 5 7.68964 6.70172 2.52063
186 5 8.73822 8.1215 2.39176
187 5 9.05255 6.6574 1.36752
188 8 13.1094 10.8015 8.76064
189 9 13.559 4.33126 8.67049
190 9 5.74278 3.49088 8.27934
191 9 13.1861 6.10537 7.18843
192 8 7.13724 8.05468 10.6908
193 8 5.0681 7.42032 6.21436
194 9 8.97945 3.46844 0.820843
195 9 7.27746 9.06372 6.3068
196 9 13.1272 2.76517 10.4049
197 8 6.53458 8.98119 3.83488
198 9 6.95697 0.316791 6.86323
199 9 8.01496 0.0856121 4.97359
200 9 9.09242 8.98563 4.75276
201 8 5.7537 9.66815 8.61201
202 9 8.69989 5.15836 9.5952
203 9 7.90269 3.32435 8.83184
204 9 5.19776 10.6983 0.13333
