204
Atoms. Timestep: 0
Ni 2.89857 9.41116 8.59265
Ni 6.17525 3.10579 3.48481
O 1.44827 4.35425 3.93374
O 4.4416 8.15245 9.05464
O 4.63665 1.84729 3.87523
O 1.36499 10.6744 9.00295
O 5.80609 4.46033 4.96242
O 2.54244 8.0327 10.0675
O 0.25117 1.69264 4.94273
O 3.23722 10.8047 10.0626
N 3.69677 10.6606 7.2416
N 0.71256 1.8642 2.11704
N 2.17217 8.14409 7.25198
N 5.44023 4.39481 2.13747
C 3.48546 12.1483 5.36301
C 0.47488 0.38955 0.2292
H 5.86971 0.03371 9.69377
C 4.76073 0.1474 5.61481
C 1.74333 12.3699 0.47412
C 5.50345 12.1502 6.68209
C 2.49852 0.35508 1.54004
H 0.24768 12.5084 6.91993
C 2.48363 6.6337 5.40822
C 5.72803 5.90364 0.28669
H -0.10828 6.26667 9.7662
C 2.92756 7.68099 6.23068
C 6.1883 4.86756 1.11596
H 3.89994 8.14655 6.0889
H 0.91589 4.41889 0.97634
C 2.98256 11.1359 6.19748
C -0.01036 1.40553 1.07106
H 1.99392 10.709 6.04703
H 5.26093 1.85011 0.92351
C 4.93641 11.1381 7.47507
C 1.94823 1.3719 2.3406
H 5.48559 10.7097 8.30944
H 2.50886 1.79214 3.17267
C 0.94573 7.62654 7.47302
C 4.21083 4.90458 2.35686
H 0.36328 8.05184 8.28732
H 3.63605 4.47744 3.17528
C 0.43859 6.57577 6.69176
C 3.68763 5.945 1.56944
H 5.70774 6.17693 6.91975
C 1.22745 6.06471 5.65205
C 4.46338 6.45777 0.52027
C 5.3126 1.24381 4.79419
C 2.0502 11.2675 9.92158
C 0.73548 4.94016 4.83586
C 3.73174 7.56629 9.95688
Ni 9.15137 9.41116 8.59265
Ni 12.4281 3.10579 3.48481
O 7.70109 4.35425 3.93374
O 10.6944 8.15245 9.05464
O 10.8895 1.84729 3.87523
O 7.61779 10.6744 9.00295
O 12.0589 4.46033 4.96242
O 8.79524 8.0327 10.0675
O 6.50397 1.69264 4.94273
O 9.49002 10.8047 10.0626
N 9.94957 10.6606 7.2416
N 6.96536 1.8642 2.11704
N 8.42499 8.14409 7.25198
N 11.693 4.39481 2.13747
C 9.73826 12.1483 5.36301
C 6.72768 0.38955 0.2292
H 12.1225 0.03371 9.69377
C 11.0135 0.1474 5.61481
C 7.99613 12.3699 0.47412
C 11.7562 12.1502 6.68209
C 8.75132 0.35508 1.54004
H 6.50047 12.5084 6.91993
C 8.73644 6.6337 5.40822
C 11.9808 5.90364 0.28669
H 6.14452 6.26667 9.7662
C 9.18036 7.68099 6.23068
C 12.4411 4.86756 1.11596
H 10.1527 8.14655 6.0889
H 7.16869 4.41889 0.97634
C 9.23536 11.1359 6.19748
C 6.24244 1.40553 1.07106
H 8.24672 10.709 6.04703
H 11.5137 1.85011 0.92351
C 11.1892 11.1381 7.47507
C 8.20102 1.3719 2.3406
H 11.7384 10.7097 8.30944
H 8.76167 1.79214 3.17267
C 7.19853 7.62654 7.47302
C 10.4636 4.90458 2.35686
H 6.61608 8.05184 8.28732
H 9.88885 4.47744 3.17528
C 6.69139 6.57577 6.69176
C 9.94043 5.945 1.56944
H 11.9605 6.17693 6.91975
C 7.48025 6.06471 5.65205
C 10.7162 6.45777 0.52027
C 11.5654 1.24381 4.79419
C 8.303 11.2675 9.92158
C 6.98827 4.94016 4.83586
C 9.98454 7.56629 9.95688
C 2.52523 0.09716 4.17107
C 1.1582 11.8702 4.12154
H 1.29703 10.778 3.96523
H 0.53131 12.2352 3.27783
H 0.56833 12.0341 5.04997
C 2.13105 1.58671 4.35345
H 1.56668 1.70879 5.30361
H 1.47501 1.92242 3.52102
H 2.9503 2.30845 4.41797
C 3.17624 12.3086 2.79767
H 3.31954 11.2108 2.69443
H 4.16386 0.21668 2.61157
H 2.51877 0.12333 1.96736
C 3.96988 12.3885 1.93334
C 4.57739 0.604 3.16585
H 4.67673 1.69587 2.97952
H 5.59837 0.22639 3.39604
H 3.96549 0.44402 4.08059
C 3.94547 10.8976 2.36227
H 3.30386 10.7797 3.26265
H 4.96832 10.549 2.62378
H 3.5464 10.183 1.63676
C 4.96556 0.16968 0.78301
H 5.01465 1.26753 0.61411
H 4.50322 12.2677 10.0774
H 5.98701 12.3421 1.04669
C 3.48131 6.17957 4.2417
C 4.81653 6.98549 4.1986
H 4.6349 8.06777 4.01852
H 5.47182 6.63108 3.37217
H 5.3974 6.86443 5.13917
C 3.93415 4.71163 4.45972
H 4.48746 4.63158 5.42079
H 4.61716 4.38786 3.64443
H 3.14471 3.95752 4.52577
C 2.84048 6.43758 2.8524
H 2.6533 7.52616 2.72518
H 1.87486 5.96151 2.65953
H 3.52499 6.11144 2.03931
C 2.22175 6.45559 1.95634
C 1.58785 5.70666 3.16936
H 2.19303 5.8391 4.09293
H 0.57169 6.09922 3.3959
H 1.47023 4.62028 2.9627
C 1.2326 6.18992 0.79081
H 1.16493 5.0963 0.60196
H 0.21516 6.55527 1.05036
H 1.25781 6.62791 10.0953
C 2.26934 7.93803 2.41186
H 2.90361 8.02804 3.32061
H 2.68914 8.65761 1.7032
H 1.25047 8.301 2.66919
C 8.77803 0.09716 4.17107
C 7.411 11.8702 4.12154
H 7.54983 10.778 3.96523
H 6.78411 12.2352 3.27783
H 6.82113 12.0341 5.04997
C 8.38385 1.58671 4.35345
H 7.81948 1.70879 5.30361
H 7.72781 1.92242 3.52102
H 9.2031 2.30845 4.41797
C 9.42904 12.3086 2.79767
H 9.57234 11.2108 2.69443
H 10.4167 0.21668 2.61157
H 8.77157 0.12333 1.96736
C 10.2227 12.3885 1.93334
C 10.8302 0.60402 3.16587
H 10.9295 1.69588 2.97953
H 11.8512 0.22641 3.39605
H 10.2183 0.44402 4.08059
C 10.1983 10.8976 2.36227
H 9.55668 10.7797 3.26265
H 11.2211 10.5491 2.62379
H 9.79921 10.183 1.63676
C 11.2184 0.16969 0.78302
H 11.2674 1.26756 0.61411
H 10.756 12.2678 10.0774
H 12.2398 12.3421 1.0467
C 9.73413 6.17957 4.2417
C 11.0693 6.98558 4.19852
H 11.6502 6.86456 5.13908
H 11.7246 6.63118 3.37208
H 10.8876 8.06784 4.01844
C 9.09323 6.4375 2.8524
H 8.90596 7.52607 2.72515
H 9.77774 6.11138 2.0393
H 8.12764 5.96136 2.65958
C 10.187 4.71167 4.45975
H 10.7404 4.63169 5.4208
H 9.39765 3.95751 4.52586
H 10.87 4.38791 3.64444
C 8.47455 6.4556 1.95635
C 7.8407 5.70675 3.16945
H 7.72305 4.62036 2.96287
H 6.82455 6.09933 3.39601
H 8.44594 5.83924 4.09296
C 8.52216 7.93807 2.41178
H 9.15648 8.02814 3.3205
H 7.50331 8.30106 2.66913
H 8.94193 8.65761 1.70305
C 7.48538 6.18985 0.79087
H 7.41769 5.09623 0.60211
H 7.51053 6.62778 10.0953
H 6.46795 6.55525 1.05044
204
Atoms. Timestep: 212
Ni 2.91224 9.48281 8.66754
Ni 5.82319 2.68105 2.91437
O 0.851655 3.85022 4.05901
O 4.28553 8.4418 8.99922
O 4.53906 2.63508 4.27923
O 1.50991 10.6155 8.64098
O 6.8899 4.02598 3.77328
O 2.33419 8.54746 9.9243
O 0.0761584 1.25018 4.21826
O 3.35381 10.5873 9.78954
N 3.84627 10.4921 7.31549
N 1.18506 2.19004 1.60942
N 2.15769 8.1961 7.40054
N 4.90922 4.15898 1.64688
C 3.45596 11.8967 5.50307
C 1.22125 0.978824 9.73934
H 7.54113 0.883187 8.59279
C 4.52753 0.35113 5.84249
C 2.08242 12.4943 0.0871602
C 5.11085 0.0346006 7.06791
C 2.85711 0.421881 1.13073
H 12.2542 0.390592 7.52962
C 2.6422 6.31059 6.12478
C 4.68187 5.63511 9.9534
H 11.628 5.19948 8.94112
C 2.94561 7.1648 7.1288
C 5.48781 4.60874 0.469406
H 3.94417 7.19317 7.4064
H 0.537235 4.19564 0.545547
C 3.44973 10.6066 6.07457
C 0.854519 1.96912 0.25546
H 2.83878 9.82563 5.66429
H 6.17041 2.55131 9.83701
C 4.93459 11.2294 7.62675
C 2.38116 1.60563 1.91417
H 5.64718 10.8126 8.2907
H 2.92995 1.9788 2.7361
C 0.811097 7.90124 7.2878
C 3.59054 4.62306 1.8165
H 0.0931741 8.51781 7.79852
H 2.95498 4.08925 2.48089
C 0.400637 6.5703 6.81384
C 3.12087 5.93016 1.17075
H 6.29375 5.44362 7.38874
C 1.25587 5.80052 5.95474
C 3.92894 6.46327 0.186773
C 5.18866 1.58493 4.88667
C 2.19102 11.1956 9.63797
C 0.696923 4.29366 5.34749
C 3.50557 7.89489 9.92943
Ni 9.20896 9.06875 8.71274
Ni 12.2067 2.59579 3.09365
O 6.8907 4.02702 3.77394
O 10.5724 7.91882 8.93999
O 10.9191 2.59169 4.48113
O 7.78387 10.2258 8.75596
O 0.848175 3.8472 4.0583
O 8.58574 7.87342 9.88945
O 6.30684 1.4285 4.12638
O 9.59872 10.1945 9.99498
N 10.1253 10.264 7.42664
N 7.35135 2.21866 1.4607
N 8.50476 7.91337 7.3383
N 11.4193 4.05368 1.86093
C 9.62039 11.8993 5.7608
C 7.43001 0.83602 9.65661
H 1.28158 1.07568 8.67897
C 10.7982 0.233889 6.00724
C 8.30412 12.3417 0.0856512
C 11.4668 12.3222 7.15203
C 9.03821 0.368276 1.12202
H 5.83167 0.69442 7.47717
C 8.98693 6.30618 5.64992
C 11.1209 5.03227 9.86561
H 5.10898 5.87117 9.01143
C 9.39965 7.16195 6.6896
C 12.0148 4.35872 0.657586
H 10.4023 7.48222 6.74953
H 6.46257 4.37154 0.211005
C 9.51006 10.5854 6.33596
C 7.0966 1.97493 0.106727
H 8.67739 9.97977 6.15395
H -0.222052 2.36667 10.096
C 11.2538 10.9779 7.69998
C 8.49974 1.56654 1.86047
H 11.853 10.6388 8.46536
H 8.98283 1.91416 2.72151
C 7.26918 7.37669 7.46218
C 10.0723 4.2342 1.82725
H 6.52183 7.89734 8.03147
H 9.49182 3.88106 2.63105
C 6.95632 6.097 6.88568
C 9.45688 5.08814 0.825017
H 11.9569 6.18168 7.07699
C 7.64796 5.64001 5.74787
C 9.9744 5.70468 10.1383
C 11.482 1.43718 4.99288
C 8.43592 10.8724 9.75099
C 7.11305 4.20082 5.09762
C 9.73261 7.18048 9.69507
C 2.11956 12.3274 5.09119
C 0.93232 11.3685 5.45094
H 0.951837 10.3449 5.01168
H 0.00755313 11.6002 4.91533
H 0.924903 11.1609 6.50309
C 2.02725 1.31413 5.62054
H 1.13414 1.53836 6.21941
H 2.1898 1.97916 4.76517
H 2.74202 1.73764 6.34703
C 2.1607 11.9627 3.65244
H 2.38125 10.8833 3.46269
H 2.99977 12.4628 3.36226
H 1.27153 12.1453 3.05404
C 4.3081 12.4474 1.17814
C 5.09892 0.80211 1.92647
H 4.96294 1.80564 1.50939
H 6.11715 0.397971 2.02946
H 4.67361 0.762303 2.85899
C 4.58494 11.0495 1.85615
H 4.48025 11.1109 2.93648
H 5.63291 10.7606 1.73043
H 3.97233 10.2008 1.59521
C 4.69528 0.105834 10.0804
H 4.77974 1.13015 9.75953
H 4.00866 0.101973 9.25899
H 5.53659 11.9279 9.99213
C 3.75159 6.2494 5.18169
C 4.85627 7.39664 5.21815
H 4.38449 8.35997 4.98549
H 5.64926 7.17619 4.52212
H 5.36882 7.70017 6.09545
C 4.23963 4.89058 5.41227
H 4.67617 4.73357 6.40495
H 4.87422 4.76925 4.56856
H 3.39343 4.17093 5.37365
C 3.22691 6.48092 3.89922
H 2.74509 7.4579 3.9243
H 2.59769 5.64194 3.74809
H 4.05247 6.52427 3.20136
C 1.71416 6.69963 1.41836
C 0.735798 6.02417 2.29128
H 0.667463 6.34359 3.33838
H 0.692087 6.35431 3.33681
H 1.11244 5.04662 2.26424
C 1.03001 6.62378 0.0465803
H 1.02497 5.67923 9.81955
H 0.0580856 7.1228 0.0397116
H 1.24912 6.87739 9.39699
C 1.66665 8.20766 1.9501
H 1.2063 8.40386 2.94414
H 2.65229 8.6582 2.01236
H 1.00326 8.85 1.36507
C 8.40469 12.3966 5.1217
C 7.13253 11.5549 5.39713
H 7.16868 10.5193 5.01499
H 6.27984 11.7831 4.75446
H 7.05542 11.41 6.46503
C 8.31429 1.37889 5.52421
H 7.44429 1.56999 6.16878
H 8.37067 2.02715 4.65136
H 9.10869 1.82213 6.12522
C 8.61552 12.007 3.73585
H 8.89971 10.9513 3.6779
H 9.46804 0.00123169 3.47958
H 7.73672 12.1026 3.08419
C 10.5228 12.5077 1.17595
C 11.2675 0.959472 1.86893
H 11.1419 1.89659 1.37221
H 12.2644 0.558923 2.04511
H 10.8542 1.11946 2.78655
C 10.8719 11.1925 1.91323
H 11.1725 11.2753 2.98067
H 11.7437 10.6924 1.45647
H 9.98411 10.6003 1.94843
C 10.8861 0.0543594 10.0527
H 10.9111 1.05634 9.62621
H 10.215 12.3011 9.28707
H 11.8266 12.0132 10.017
C 9.68027 6.6859 4.41381
C 10.9642 7.51601 4.45399
H 11.6795 6.9465 4.95824
H 11.48 7.58177 3.53621
H 10.8967 8.54542 4.85449
C 9.03905 6.5875 3.17998
H 8.52359 7.48825 2.89766
H 9.87749 6.51422 2.53199
H 8.46367 5.69047 3.19787
C 10.6148 4.03016 6.92529
H 12.3211 2.60718 7.96158
H 8.23255 3.39832 7.23416
H 11.2342 4.93519 4.04804
C 10.8388 8.44038 1.55875
C 6.32344 6.46908 2.37661
H 7.55631 4.46164 1.76683
H 7.0182 8.51428 3.91292
H 9.41018 4.08402 4.71638
C 7.78998 9.68059 1.93287
H 8.89829 9.01368 4.40547
H 5.45686 9.78525 4.03693
H 12.1161 9.38969 10.0376
C 6.44653 8.12483 0.247419
H 8.16365 3.7414 9.22881
H 7.40408 5.767 9.42428
H 4.78458 8.35823 2.2848
204
Atoms. Timestep: 8259
Ni 2.91876 9.48097 8.66261
Ni 5.82286 2.68184 2.90548
O 0.849374 3.84387 4.06044
O 4.29097 8.44248 8.99108
O 4.54517 2.63466 4.27588
O 1.51497 10.6115 8.63582
O 6.89358 4.02604 3.76898
O 2.34126 8.54829 9.92069
O 0.0773809 1.2437 4.21569
O 3.3601 10.5906 9.78342
N 3.85665 10.4916 7.30918
N 1.18411 2.19251 1.6062
N 2.17225 8.18438 7.39724
N 4.91219 4.16116 1.64443
C 3.47024 11.8935 5.49067
C 1.21798 0.978056 9.73427
H 7.54098 0.864956 8.58825
C 4.53331 0.353984 5.83653
C 2.0763 12.4941 0.0820513
C 5.11248 0.0424098 7.06522
C 2.85292 0.42377 1.12907
H 12.26 0.385019 7.53602
C 2.63865 6.28717 6.13301
C 4.68722 5.64068 9.95233
H 11.6229 5.18642 8.94368
C 2.93758 7.12276 7.14655
C 5.48673 4.61031 0.46306
H 3.90166 7.01794 7.53958
H 0.535029 4.1971 0.55483
C 3.47442 10.603 6.06143
C 0.849303 1.97167 0.244684
H 2.9312 9.79567 5.6104
H 6.18827 2.55476 9.80883
C 4.93814 11.2388 7.6282
C 2.37251 1.6081 1.90889
H 5.65249 10.8319 8.29649
H 2.91144 1.9716 2.74548
C 0.819619 7.90553 7.27417
C 3.59438 4.62903 1.81607
H 0.106125 8.53978 7.76168
H 2.95548 4.08655 2.46771
C 0.39941 6.57312 6.80533
C 3.12407 5.9329 1.16971
H 6.30857 5.43262 7.39302
C 1.25117 5.79426 5.9521
C 3.93307 6.4675 0.185773
C 5.19459 1.58523 4.88156
C 2.19594 11.1967 9.63121
C 0.690709 4.29081 5.346
C 3.51182 7.89878 9.92818
Ni 9.20212 9.06635 8.71327
Ni 12.2033 2.59362 3.09094
O 6.89427 4.02699 3.76929
O 10.5743 7.91836 8.941
O 10.9201 2.58734 4.48477
O 7.78586 10.2239 8.75543
O 0.848565 3.84307 4.06005
O 8.58635 7.87282 9.8897
O 6.3153 1.42835 4.12147
O 9.59959 10.194 9.9968
N 10.1297 10.2635 7.42966
N 7.35222 2.2221 1.45599
N 8.51006 7.91012 7.33511
N 11.4166 4.05424 1.86728
C 9.6287 11.8954 5.76104
C 7.43196 0.829942 9.6553
H 1.30689 1.09334 8.67292
C 10.8017 0.230148 6.00704
C 8.29737 12.3374 0.0881983
C 11.473 12.3184 7.15409
C 9.03218 0.365323 1.12749
H 5.8107 0.721345 7.48908
C 8.98504 6.30541 5.64348
C 11.1191 5.03021 9.87107
H 5.13594 5.89483 9.0243
C 9.39354 7.1539 6.69004
C 12.0135 4.35834 0.662843
H 10.4031 7.45215 6.76243
H 6.45656 4.3626 0.192724
C 9.52417 10.5758 6.32396
C 7.09535 1.97294 0.0946201
H 8.74135 9.93222 6.07904
H -0.221043 2.37695 10.0731
C 11.2529 10.9755 7.70392
C 8.49113 1.57006 1.85612
H 11.8518 10.6397 8.47465
H 8.95897 1.91152 2.73167
C 7.2623 7.37747 7.45676
C 10.0701 4.23924 1.83389
H 6.53125 7.87894 8.05376
H 9.48493 3.88362 2.63628
C 6.95357 6.0991 6.87632
C 9.45584 5.09056 0.83108
H 11.9639 6.17918 7.09062
C 7.64405 5.64066 5.74229
C 9.97502 5.70492 10.1418
C 11.4828 1.43028 4.99087
C 8.43374 10.869 9.75337
C 7.11378 4.20287 5.08928
C 9.73058 7.18007 9.69748
C 2.12629 12.319 5.09186
C 0.955739 11.3531 5.47264
H 1.01204 10.3144 5.07432
H 0.0224889 11.5623 4.95158
H 0.964401 11.1844 6.53322
C 2.02611 1.29696 5.6364
H 1.11829 1.49909 6.2137
H 2.20401 1.98856 4.80881
H 2.70944 1.662 6.4261
C 2.1483 11.961 3.65064
H 2.35775 10.8821 3.44722
H 2.98721 12.4521 3.35009
H 1.24719 12.1583 3.07065
C 4.30086 12.4564 1.17325
C 5.09112 0.810071 1.9232
H 4.94832 1.81653 1.51044
H 6.10914 0.406684 2.01028
H 4.66229 0.771912 2.85585
C 4.57323 11.0574 1.84385
H 4.52101 11.1309 2.92807
H 5.59276 10.7197 1.62968
H 3.87307 10.2616 1.62877
C 4.68065 0.128295 10.0733
H 4.75077 1.16613 9.76806
H 3.99237 0.131808 9.24707
H 5.52346 11.9646 9.97658
C 3.74278 6.24249 5.18858
C 4.84051 7.38485 5.24984
H 4.39467 8.33472 4.93987
H 5.6725 7.1166 4.61515
H 5.25028 7.70358 6.18816
C 4.2423 4.88449 5.40533
H 4.69935 4.71699 6.38667
H 4.86933 4.77405 4.5491
H 3.40153 4.1563 5.37194
C 3.21066 6.48111 3.90771
H 2.67832 7.4335 3.9693
H 2.59765 5.62767 3.74811
H 4.02519 6.57993 3.20352
C 1.7159 6.69977 1.41523
C 0.737398 6.02424 2.29013
H 0.65721 6.35154 3.33358
H 0.683461 6.3612 3.33266
H 1.11673 5.04752 2.27169
C 1.03211 6.62254 0.0424794
H 1.02588 5.67494 9.81817
H 0.0581786 7.1131 0.0388839
H 1.239 6.89287 9.39189
C 1.67755 8.20632 1.94737
H 1.19439 8.41098 2.92653
H 2.67725 8.62096 2.03918
H 1.05591 8.87212 1.34464
C 8.40891 12.3951 5.13245
C 7.14711 11.5497 5.42217
H 7.18036 10.5162 5.04149
H 6.29614 11.7848 4.79215
H 7.08815 11.4119 6.49989
C 8.31396 1.3741 5.54789
H 7.4232 1.55957 6.16668
H 8.40155 2.03496 4.68988
H 9.07827 1.78647 6.21777
C 8.61335 12.021 3.7426
H 8.90209 10.977 3.66829
H 9.46876 0.0188626 3.48804
H 7.72272 12.1296 3.1098
C 10.5151 12.5123 1.17397
C 11.2577 0.973219 1.85818
H 11.1271 1.90672 1.3465
H 12.2571 0.578086 2.01243
H 10.8449 1.14755 2.77549
C 10.8795 11.2013 1.914
H 11.1858 11.3014 2.97993
H 11.7621 10.7229 1.45114
H 10.0066 10.587 1.95561
C 10.868 0.06494 10.0439
H 10.881 1.074 9.62162
H 10.1917 12.3167 9.27314
H 11.8081 12.0346 9.99814
C 9.674 6.69179 4.40873
C 10.9584 7.51637 4.45854
H 11.6604 6.91919 4.95086
H 11.477 7.61385 3.54644
H 10.8878 8.53019 4.89787
C 9.03196 6.60458 3.17084
H 8.50481 7.50397 2.89589
H 9.86155 6.55705 2.50858
H 8.45284 5.71126 3.17446
C 10.6003 4.02421 6.93214
H 12.3815 2.63062 7.91015
H 8.14433 3.41852 7.25643
H 11.2304 4.93753 4.05321
C 10.8774 8.44392 1.545
C 6.30678 6.48223 2.38418
H 7.53918 4.4835 1.75378
H 7.00396 8.49487 3.98884
H 9.41481 4.0876 4.71278
C 7.78651 9.68835 1.95134
H 8.92748 9.04999 4.29238
H 5.45424 9.81169 4.07177
H 12.1642 9.38135 10.0158
C 6.44573 8.14562 0.254545
H 8.2291 3.74221 9.25698
H 7.39613 5.78913 9.43883
H 4.79972 8.42498 2.32483
204
Atoms. Timestep: 8492
Ni 3.02572 9.42374 8.57249
Ni 5.87928 2.68491 2.83106
O 0.831859 3.76941 4.07333
O 4.41588 8.40269 8.908
O 4.64467 2.62913 4.20362
O 1.59063 10.5216 8.55291
O 6.97467 3.99776 3.69223
O 2.48277 8.53427 9.87277
O 0.0884382 1.17984 4.17009
O 3.4529 10.6185 9.6633
N 3.97437 10.4568 7.18826
N 1.12194 2.18968 1.5623
N 2.26383 8.02814 7.35991
N 4.97484 4.18076 1.62797
C 3.61715 11.8398 5.33119
C 1.14713 0.956015 9.67396
H 7.50634 0.732525 8.55443
C 4.60747 0.357914 5.72732
C 2.01473 12.4637 0.0186393
C 5.11725 0.0990883 7.00105
C 2.77464 0.431727 1.07564
H 12.2508 0.405891 7.59189
C 2.60333 5.9712 6.31339
C 4.82888 5.69735 9.99264
H 11.604 5.17468 8.99611
C 2.84517 6.79371 7.3645
C 5.52677 4.58975 0.427683
H 3.73821 6.59971 7.86976
H 0.523326 4.20315 0.604336
C 3.69211 10.5402 5.8977
C 0.778569 1.96325 0.190233
H 3.19584 9.72279 5.42352
H 6.26229 2.54361 9.65292
C 4.96683 11.3011 7.58479
C 2.28671 1.59335 1.87293
H 5.65139 10.9592 8.32535
H 2.7979 1.92418 2.75165
C 0.905556 7.91143 7.08407
C 3.68884 4.69645 1.85602
H 0.222114 8.6298 7.50694
H 3.02355 4.12195 2.46082
C 0.371344 6.59759 6.656
C 3.23046 5.97943 1.19103
H 6.28984 5.42276 7.34738
C 1.21589 5.67198 5.96712
C 4.0692 6.51353 0.213299
C 5.29032 1.57421 4.79312
C 2.25603 11.1886 9.5038
C 0.605454 4.22709 5.33945
C 3.65268 7.91343 9.90463
Ni 9.2009 9.0343 8.71053
Ni 12.1798 2.5602 3.08758
O 6.97681 4.00057 3.69399
O 10.5713 7.89598 8.96304
O 10.9315 2.52904 4.50764
O 7.7828 10.1828 8.74102
O 0.826179 3.76214 4.06716
O 8.56497 7.85062 9.88371
O 6.40715 1.4082 4.03013
O 9.57314 10.165 10.014
N 10.1766 10.236 7.43543
N 7.34165 2.24661 1.36551
N 8.51621 7.87058 7.31286
N 11.4075 4.06094 1.9319
C 9.75782 11.8202 5.7182
C 7.41466 0.762115 9.62512
H 1.34753 1.1411 8.63598
C 10.8736 0.178152 5.99343
C 8.21642 12.2751 0.109651
C 11.5239 12.2972 7.16985
C 8.94289 0.329723 1.15285
H 5.69419 0.851508 7.49596
C 8.9502 6.29698 5.57633
C 11.1083 5.03229 9.9366
H 5.35129 6.0018 9.12069
C 9.37934 7.07513 6.67844
C 12.0019 4.36319 0.722483
H 10.3917 7.31506 6.78376
H 6.47249 4.28944 0.133514
C 9.72582 10.477 6.22823
C 7.08058 1.9333 0.0081116
H 9.09992 9.74168 5.80882
H -0.252623 2.43071 9.98217
C 11.2755 10.9741 7.76658
C 8.43507 1.58864 1.80812
H 11.8554 10.658 8.56908
H 8.83957 1.93233 2.72625
C 7.2506 7.37007 7.4091
C 10.0689 4.31156 1.94257
H 6.57264 7.81174 8.10548
H 9.46337 3.91106 2.71184
C 6.93297 6.09232 6.82325
C 9.46543 5.13483 0.9297
H 12.001 6.20584 7.11232
C 7.61955 5.64094 5.67143
C 9.97691 5.7212 10.219
C 11.5129 1.36254 4.96871
C 8.39021 10.8125 9.77637
C 7.11144 4.20771 5.01659
C 9.72755 7.17946 9.74299
C 2.1965 12.212 5.06806
C 1.11382 11.2341 5.58193
H 1.21193 10.1623 5.3152
H 0.148375 11.4031 5.09326
H 1.11064 11.3095 6.63336
C 2.0354 1.13453 5.7049
H 1.08657 1.32905 6.19433
H 2.2959 1.91612 4.97569
H 2.63263 1.32829 6.6183
C 2.06346 11.8761 3.61622
H 2.24603 10.7988 3.40543
H 2.89042 12.3346 3.23955
H 1.1345 12.0897 3.08255
C 4.20975 12.5471 1.08874
C 4.99919 0.858706 1.8963
H 4.85462 1.8788 1.53531
H 6.02297 0.448918 1.9394
H 4.57249 0.759668 2.83899
C 4.45103 11.1157 1.69225
H 4.67035 11.1314 2.77187
H 5.30538 10.6342 1.20251
H 3.56122 10.4785 1.63635
C 4.52711 0.350091 9.97508
H 4.58064 1.42351 9.77126
H 3.87188 0.297403 9.1171
H 5.38128 12.2248 9.86888
C 3.6622 6.15653 5.31062
C 4.72908 7.30265 5.48197
H 4.47472 8.20888 4.93127
H 5.63675 7.01113 4.96956
H 4.93732 7.68164 6.48305
C 4.25702 4.82289 5.30837
H 4.79214 4.5766 6.23727
H 4.85229 4.82417 4.39998
H 3.44061 4.06175 5.26243
C 3.04245 6.5195 4.06655
H 2.39574 7.39217 4.26128
H 2.53379 5.62369 3.79525
H 3.78374 6.81707 3.332
C 1.80836 6.71194 1.38463
C 0.807146 6.02669 2.25192
H 0.558986 6.42345 3.2446
H 0.632819 6.40981 3.26686
H 1.17474 5.04247 2.31408
C 1.1258 6.5977 -0.0021723
H 1.1148 5.6271 9.80471
H 0.124244 7.00294 0.0233804
H 1.19418 7.01818 9.35368
C 1.82734 8.20648 1.93152
H 1.24997 8.42857 2.85169
H 2.84296 8.52603 2.13619
H 1.34291 8.94905 1.29239
C 8.47597 12.3535 5.26705
C 7.29628 11.46 5.63333
H 7.33034 10.4341 5.25457
H 6.44378 11.7188 5.02901
H 7.24447 11.402 6.71982
C 8.3251 1.2994 5.76986
H 7.34947 1.49847 6.21861
H 8.52298 2.00709 4.94965
H 8.99717 1.58683 6.59803
C 8.58972 12.1562 3.8358
H 8.92734 11.1666 3.62217
H 9.42214 0.194871 3.56758
H 7.66689 12.2664 3.26269
C 10.4179 12.5433 1.14487
C 11.1514 1.05116 1.79111
H 11.0226 1.97375 1.24773
H 12.1475 0.65272 1.96296
H 10.7662 1.26413 2.71419
C 10.8461 11.2436 1.89408
H 11.146 11.3925 2.95649
H 11.7782 10.8598 1.43379
H 10.0363 10.5127 1.95242
C 10.7112 0.142537 9.98056
H 10.7298 1.16815 9.57938
H 10.0465 12.3628 9.19607
H 11.6714 12.1604 9.93907
C 9.58541 6.79106 4.34222
C 10.898 7.5379 4.43954
H 11.5775 6.8399 4.82938
H 11.3718 7.77815 3.53494
H 10.8828 8.47018 5.02831
C 8.90529 6.80814 3.08798
H 8.26267 7.65054 2.8961
H 9.68705 6.92196 2.35134
H 8.37841 5.88221 3.05859
C 10.3762 3.89336 7.12713
H 0.10162 2.79463 7.7319
H 7.75193 3.42694 7.36127
H 11.1761 4.9499 4.09638
C 11.3178 8.49164 1.4007
C 6.06177 6.60317 2.57261
H 7.44547 4.74046 1.71056
H 7.06812 8.45506 4.41002
H 9.44493 4.057 4.79674
C 7.47166 9.98136 2.20944
H 9.16714 9.22354 3.85828
H 5.50969 9.8924 4.18978
H 12.4902 9.26193 9.85345
C 6.4859 8.35012 0.385247
H 8.50382 3.63919 9.29815
H 7.47251 5.74698 9.41597
H 4.88105 8.71447 2.49219
204
Atoms. Timestep: 11813
Ni 3.02625 9.42431 8.57152
Ni 5.88012 2.68495 2.83039
O 0.829768 3.76504 4.07116
O 4.41773 8.40254 8.90705
O 4.64617 2.62814 4.20257
O 1.58991 10.5209 8.5507
O 6.97742 3.99808 3.69032
O 2.48562 8.53387 9.87209
O 0.0889153 1.17905 4.16921
O 3.45313 10.6197 9.65892
N 3.97502 10.4558 7.18479
N 1.12077 2.18896 1.56225
N 2.26649 8.02461 7.35986
N 4.9762 4.18062 1.62729
C 3.61864 11.8388 5.32688
C 1.14583 0.956778 9.67318
H 7.4919 0.719417 8.5546
C 4.60883 0.357238 5.72444
C 2.01288 12.4634 0.0171254
C 5.11567 0.0995909 6.99847
C 2.7721 0.43086 1.07492
H 12.2422 0.412814 7.59847
C 2.60466 5.96645 6.31596
C 4.83451 5.69898 9.99427
H 11.6059 5.17677 8.99898
C 2.84435 6.7902 7.36779
C 5.52724 4.58743 0.427257
H 3.73281 6.59103 7.8807
H 0.524233 4.20441 0.60512
C 3.69386 10.5396 5.89505
C 0.776851 1.96303 0.189893
H 3.20322 9.72008 5.41617
H 6.26347 2.54199 9.64744
C 4.96655 11.3019 7.58392
C 2.28449 1.59058 1.87357
H 5.64796 10.9621 8.32738
H 2.79185 1.91443 2.75782
C 0.908007 7.91153 7.07911
C 3.69122 4.69819 1.85834
H 0.225698 8.64196 7.47645
H 3.03019 4.12791 2.47124
C 0.372717 6.59735 6.65261
C 3.23376 5.98065 1.19227
H 6.27644 5.42789 7.33843
C 1.21674 5.66936 5.96842
C 4.07234 6.51426 0.213926
C 5.29159 1.57347 4.7914
C 2.25574 11.1895 9.50047
C 0.606135 4.22557 5.33993
C 3.65535 7.91426 9.90482
Ni 9.20122 9.03362 8.70952
Ni 12.1797 2.55958 3.08777
O 6.97817 3.99901 3.69082
O 10.5719 7.89516 8.96261
O 10.9323 2.52854 4.50811
O 7.78253 10.1822 8.74078
O 0.829002 3.76419 4.07049
O 8.56524 7.84957 9.88296
O 6.40821 1.40776 4.02846
O 9.5731 10.1639 10.0132
N 10.1768 10.2352 7.43504
N 7.34021 2.24699 1.36245
N 8.51691 7.86987 7.31178
N 11.4078 4.06105 1.93394
C 9.76152 11.8184 5.71562
C 7.41396 0.759318 9.62477
H 1.346 1.14389 8.63627
C 10.8748 0.177598 5.99302
C 8.21513 12.2734 0.110641
C 11.5232 12.2981 7.17146
C 8.94026 0.329287 1.15391
H 5.68202 0.856434 7.49749
C 8.95051 6.29665 5.57453
C 11.108 5.03123 9.93811
H 5.37163 6.01427 9.13444
C 9.38016 7.07354 6.67725
C 12.0022 4.36348 0.723947
H 10.3923 7.31112 6.78274
H 6.47477 4.28479 0.135946
C 9.73226 10.4749 6.22349
C 7.07928 1.93122 0.00610834
H 9.13664 9.72616 5.7765
H 12.2492 2.42971 9.98277
C 11.275 10.9741 7.76939
C 8.43374 1.59039 1.80673
H 11.8486 10.6619 8.58221
H 8.8393 1.94001 2.72238
C 7.25214 7.36845 7.40968
C 10.0697 4.31509 1.94758
H 6.57686 7.80672 8.11007
H 9.46667 3.92348 2.72418
C 6.93373 6.09113 6.82316
C 9.46645 5.13796 0.935641
H 12.0031 6.2069 7.11171
C 7.62059 5.63993 5.67063
C 9.97745 5.72158 10.2217
C 11.5139 1.36181 4.96835
C 8.38935 10.8108 9.77684
C 7.11137 4.20737 5.01527
C 9.72814 7.179 9.74299
C 2.19732 12.2093 5.06525
C 1.11606 11.2339 5.58677
H 1.21887 10.1583 5.34063
H 0.149754 11.3934 5.09644
H 1.11435 11.3302 6.63727
C 2.03659 1.13008 5.70402
H 1.08678 1.32502 6.1911
H 2.30554 1.91417 4.98035
H 2.62859 1.31048 6.62358
C 2.05849 11.8684 3.61435
H 2.22963 10.7871 3.40984
H 2.8891 12.3078 3.22725
H 1.12786 12.0809 3.08141
C 4.2071 0.0264239 1.0853
C 4.99546 0.857576 1.89791
H 4.84483 1.87834 1.54388
H 6.02014 0.450238 1.93569
H 4.56876 0.748825 2.84213
C 4.44983 11.1153 1.68232
H 4.69444 11.1189 2.75728
H 5.28609 10.6249 1.16496
H 3.55001 10.4877 1.6372
C 4.51928 0.360846 9.97104
H 4.56565 1.43867 9.77743
H 3.86311 0.310487 9.11144
H 5.37318 12.2435 9.85546
C 3.66151 6.15581 5.3116
C 4.72878 7.30015 5.4865
H 4.48278 8.20839 4.93644
H 5.63811 7.00975 4.97764
H 4.93523 7.67442 6.49092
C 4.25642 4.82283 5.29945
H 4.79318 4.5632 6.22241
H 4.85 4.82955 4.38835
H 3.43713 4.06746 5.24153
C 3.03645 6.5267 4.07194
H 2.38064 7.39177 4.28028
H 2.53044 5.63277 3.79768
H 3.76775 6.84085 3.3359
C 1.81144 6.71252 1.38384
C 0.810155 6.02651 2.24928
H 0.524364 6.44148 3.22151
H 0.646347 6.40578 3.26658
H 1.17893 5.04279 2.31694
C 0.902216 6.59584 10.2713
H 1.12699 5.62573 9.80388
H 0.125306 6.9886 0.029548
H 1.18155 7.03234 9.35452
C 1.83378 8.20755 1.93165
H 1.25926 8.4304 2.85263
H 2.85288 8.52308 2.13803
H 1.35653 8.95655 1.29292
C 8.47749 12.3517 5.27094
C 7.3024 11.4564 5.64293
H 7.34763 10.4263 5.28244
H 6.44813 11.7086 5.04116
H 7.2534 11.4104 6.73149
C 8.32472 1.29472 5.77926
H 7.34467 1.49095 6.21847
H 8.53422 2.00827 4.96917
H 8.98274 1.56467 6.62579
C 8.58681 12.1621 3.83854
H 8.92394 11.177 3.61544
H 9.4139 0.211439 3.57353
H 7.6616 12.2731 3.26946
C 10.4146 0.0218094 1.1449
C 11.1485 1.05283 1.7913
H 11.018 1.97545 1.24809
H 12.1439 0.654221 1.96351
H 10.7625 1.26702 2.71364
C 10.8418 11.2453 1.89344
H 11.1341 11.3939 2.95843
H 11.7763 10.8648 1.43508
H 10.0317 10.512 1.94721
C 10.7058 0.146039 9.9802
H 10.7168 1.17308 9.58098
H 10.0416 12.3649 9.19503
H 11.6675 12.1704 9.93899
C 9.5848 6.79104 4.33897
C 10.8977 7.53567 4.43618
H 11.5837 6.83612 4.81444
H 11.3541 7.79304 3.52815
H 10.8889 8.46129 5.03364
C 8.89504 6.82178 3.08835
H 8.2336 7.65947 2.93274
H 9.65212 6.96682 2.3315
H 8.37229 5.89704 3.05616
C 10.372 3.88847 7.1338
H 0.129192 2.81966 7.72245
H 7.70117 3.41691 7.3847
H 11.1702 4.94254 4.10791
C 11.3268 8.49547 1.39364
C 6.05195 6.60631 2.57898
H 7.43422 4.7825 1.71091
H 7.09542 8.45833 4.48028
H 9.44513 4.04912 4.81729
C 7.45787 9.98689 2.21684
H 9.23014 9.2434 3.79741
H 5.52734 9.89477 4.20283
H 0.018367 9.22527 9.82107
C 6.48829 8.34785 0.389258
H 8.54803 3.60756 9.29981
H 7.49359 5.71563 9.39856
H 4.8934 8.73409 2.50864
204
Atoms. Timestep: 11994
Ni 3.02918 9.42449 8.5643
Ni 5.88612 2.68433 2.82382
O 0.832158 3.75719 4.07366
O 4.43073 8.40559 8.90253
O 4.65548 2.62692 4.19682
O 1.58887 10.5135 8.53917
O 6.98698 3.9944 3.68112
O 2.4988 8.53381 9.86755
O 0.0907436 1.17395 4.16617
O 3.45369 10.627 9.6403
N 3.97885 10.4539 7.17098
N 1.1162 2.18602 1.56406
N 2.27658 8.00965 7.3563
N 4.98307 4.1785 1.62645
C 3.62734 11.8323 5.30928
C 1.13943 0.958326 9.67003
H 7.47945 0.703515 8.55415
C 4.61464 0.352794 5.71052
C 2.00166 12.46 0.00985533
C 5.11112 0.101693 6.98977
C 2.76119 0.42478 1.07177
H 12.2341 0.420494 7.60679
C 2.6086 5.94494 6.32879
C 4.8566 5.70689 10.004
H 11.6041 5.17704 9.00609
C 2.84201 6.77427 7.38194
C 5.53005 4.58115 0.42418
H 3.73286 6.57855 7.89368
H 0.524581 4.20494 0.607662
C 3.70403 10.5329 5.88022
C 0.770386 1.96311 0.189575
H 3.20896 9.71568 5.40476
H 6.26545 2.53894 9.63657
C 4.96387 11.3044 7.57668
C 2.27231 1.57886 1.87662
H 5.64211 10.9696 8.32714
H 2.7836 1.90187 2.76147
C 0.916676 7.91199 7.05843
C 3.70257 4.70619 1.86584
H 0.236044 8.64881 7.44309
H 3.03911 4.13547 2.47904
C 0.377933 6.59539 6.63797
C 3.24866 5.98607 1.19675
H 6.26183 5.43137 7.32637
C 1.22015 5.6554 5.97509
C 4.0896 6.5204 0.217993
C 5.29997 1.571 4.78268
C 2.25405 11.193 9.48271
C 0.608415 4.2163 5.34247
C 3.66927 7.91914 9.90469
Ni 9.20067 9.02851 8.70473
Ni 12.18 2.55749 3.08937
O 6.98696 3.99437 3.68113
O 10.5744 7.88908 8.95951
O 10.9368 2.52575 4.51252
O 7.78306 10.1761 8.73772
O 0.832564 3.75742 4.07358
O 8.56659 7.84505 9.87681
O 6.41554 1.40642 4.01979
O 9.57261 10.1596 10.0105
N 10.1841 10.2316 7.42984
N 7.33485 2.24779 1.35177
N 8.52198 7.86428 7.3056
N 11.4116 4.06263 1.94502
C 9.7809 11.8095 5.70295
C 7.40568 0.749715 9.62263
H 1.34343 1.14928 8.63442
C 10.8811 0.174294 5.99094
C 8.20696 12.2655 0.114754
C 11.5208 12.3027 7.17856
C 8.92906 0.328002 1.15597
H 5.66828 0.86237 7.49481
C 8.95244 6.29383 5.56609
C 11.1051 5.02709 9.94605
H 5.39546 6.02426 9.14609
C 9.38226 7.07023 6.67074
C 12.0018 4.36339 0.730031
H 10.3952 7.30548 6.77753
H 6.47936 4.27672 0.137834
C 9.76092 10.4624 6.20318
C 7.07368 1.92385 0.00179406
H 9.17518 9.71147 5.74332
H 12.2436 2.4309 9.98334
C 11.2701 10.9773 7.77774
C 8.43062 1.5942 1.80185
H 11.8412 10.665 8.59675
H 8.83525 1.95002 2.71414
C 7.25657 7.36139 7.41151
C 10.0765 4.33367 1.96986
H 6.58344 7.80022 8.11229
H 9.47092 3.93393 2.74169
C 6.93876 6.08472 6.82145
C 9.4735 5.15559 0.96222
H 12.0092 6.21027 7.10811
C 7.62268 5.63536 5.66649
C 9.98039 5.72575 10.2363
C 11.5197 1.35823 4.9688
C 8.38416 10.8033 9.7774
C 7.11252 4.20565 5.00553
C 9.72974 7.17658 9.74321
C 2.20069 12.1993 5.05745
C 1.12314 11.2324 5.5988
H 1.22509 10.1542 5.36914
H 0.155686 11.3838 5.10561
H 1.11822 11.3542 6.6456
C 2.04047 1.11875 5.70019
H 1.09002 1.31844 6.18641
H 2.31476 1.90832 4.98495
H 2.62649 1.29059 6.62545
C 2.04643 11.8455 3.60822
H 2.21119 10.7629 3.41133
H 2.88022 12.2742 3.21196
H 1.11746 12.0703 3.07797
C 4.19656 0.0321764 1.07351
C 4.98372 0.85496 1.89945
H 4.83319 1.87762 1.55482
H 6.01112 0.45198 1.93103
H 4.5598 0.733508 2.84569
C 4.44684 11.1153 1.65636
H 4.71483 11.1078 2.72827
H 5.26975 10.6187 1.12388
H 3.54043 10.4959 1.63195
C 4.49837 0.388469 9.95915
H 4.5478 1.46815 9.78064
H 3.84769 0.326813 9.09749
H 5.35247 12.2717 9.84125
C 3.65825 6.15478 5.31823
C 4.72832 7.29453 5.49944
H 4.49177 8.20392 4.94648
H 5.6378 7.0074 4.99017
H 4.9329 7.66756 6.50361