108
Atoms. Timestep: 0
Ni 2.89857 9.41116 8.59265
Ni 6.17525 3.10579 3.48481
O 1.44827 4.35425 3.93374
O 4.4416 8.15245 9.05464
O 4.63665 1.84729 3.87523
O 1.36499 10.6744 9.00295
O 5.80609 4.46033 4.96242
O 2.54244 8.0327 10.0675
O 0.25117 1.69264 4.94273
O 3.23722 10.8047 10.0626
N 3.69677 10.6606 7.2416
N 0.71256 1.8642 2.11704
N 2.17217 8.14409 7.25198
N 5.44023 4.39481 2.13747
C 3.48546 12.1483 5.36301
C 0.47488 0.38955 0.2292
H 2.86453 12.5181 4.55267
C 4.76073 0.1474 5.61481
C 1.74333 12.3699 0.47412
C 5.50345 12.1502 6.68209
C 2.49852 0.35508 1.54004
H 0.24768 12.5084 6.91993
H 3.49155 12.5067 1.77336
C 2.48363 6.6337 5.40822
C 5.72803 5.90364 0.28669
H -0.10828 6.26667 9.7662
C 2.92756 7.68099 6.23068
C 6.1883 4.86756 1.11596
H 3.89994 8.14655 6.0889
H 0.91589 4.41889 0.97634
C 2.98256 11.1359 6.19748
C -0.01036 1.40553 1.07106
H 1.99392 10.709 6.04703
H 5.26093 1.85011 0.92351
C 4.93641 11.1381 7.47507
C 1.94823 1.3719 2.3406
H 5.48559 10.7097 8.30944
H 2.50886 1.79214 3.17267
C 0.94573 7.62654 7.47302
C 4.21083 4.90458 2.35686
H 0.36328 8.05184 8.28732
H 3.63605 4.47744 3.17528
C 0.43859 6.57577 6.69176
C 3.68763 5.945 1.56944
H 5.70774 6.17693 6.91975
C 1.22745 6.06471 5.65205
C 4.46338 6.45777 0.52027
C 5.3126 1.24381 4.79419
C 2.0502 11.2675 9.92158
C 0.73548 4.94016 4.83586
C 3.73174 7.56629 9.95688
Ni 9.15137 9.41116 8.59265
Ni 12.4281 3.10579 3.48481
O 7.70109 4.35425 3.93374
O 10.6944 8.15245 9.05464
O 10.8895 1.84729 3.87523
O 7.61779 10.6744 9.00295
O 12.0589 4.46033 4.96242
O 8.79524 8.0327 10.0675
O 6.50397 1.69264 4.94273
O 9.49002 10.8047 10.0626
N 9.94957 10.6606 7.2416
N 6.96536 1.8642 2.11704
N 8.42499 8.14409 7.25198
N 11.693 4.39481 2.13747
C 9.73826 12.1483 5.36301
C 6.72768 0.38955 0.2292
C 11.0135 0.1474 5.61481
C 7.99613 12.3699 0.47412
C 11.7562 12.1502 6.68209
C 8.75132 0.35508 1.54004
H 9.74435 12.5067 1.77336
C 8.73644 6.6337 5.40822
C 11.9808 5.90364 0.28669
H 6.14452 6.26667 9.7662
C 9.18036 7.68099 6.23068
C 12.4411 4.86756 1.11596
H 10.1527 8.14655 6.0889
H 7.16869 4.41889 0.97634
C 9.23536 11.1359 6.19748
C 6.24244 1.40553 1.07106
H 8.24672 10.709 6.04703
H 11.5137 1.85011 0.92351
C 11.1892 11.1381 7.47507
C 8.20102 1.3719 2.3406
H 11.7384 10.7097 8.30944
H 8.76167 1.79214 3.17267
C 7.19853 7.62654 7.47302
C 10.4636 4.90458 2.35686
H 6.61608 8.05184 8.28732
H 9.88885 4.47744 3.17528
C 6.69139 6.57577 6.69176
C 9.94043 5.945 1.56944
H 11.9605 6.17693 6.91975
C 7.48025 6.06471 5.65205
C 10.7162 6.45777 0.52027
C 11.5654 1.24381 4.79419
C 8.303 11.2675 9.92158
C 6.98827 4.94016 4.83586
C 9.98454 7.56629 9.95688
F 6.7488 0.0694 6.9712
F 11.9793 12.4862 9.47672
F 3.28108 6.20275 4.40282
F 2.45222 6.4219 1.84525
F 8.97458 0.06885 4.33586
F 5.72651 12.4862 9.47672
F 9.53389 6.20274 4.40283
F 8.70502 6.4219 1.84525
108
Atoms. Timestep: 89
Ni 2.74452 8.92445 8.89491
Ni 6.14559 3.63975 3.44641
O 0.950253 4.67052 3.64672
O 4.1285 7.85726 9.05865
O 4.75386 2.56885 3.53886
O 1.35979 9.99432 8.99463
O 5.58534 4.75465 4.70272
O 2.19817 7.83836 10.169
O 0.0612835 2.48827 4.75527
O 3.27054 10.0768 10.1293
N 3.51868 9.99971 7.54172
N 0.349096 2.48946 2.17655
N 2.00012 7.78213 7.5904
N 5.41728 4.75474 2.1121
C 3.40953 11.1767 5.44512
C 0.274107 1.41484 0.0330621
H 2.85407 11.4065 4.55608
C 4.76046 1.14182 5.56595
C 1.61496 11.4178 0.159443
C 5.4629 11.12 6.69406
C 2.30298 1.36968 1.32659
H -0.0850717 11.3617 6.85671
H 3.32668 11.4545 1.47968
C 2.17537 6.58177 5.52462
C 5.60438 6.00148 0.0686541
H 12.5641 6.23859 10.1113
C 2.75591 7.3375 6.54345
C 6.17707 5.20841 1.06951
H 3.79269 7.63214 6.45843
H 0.632309 4.84222 0.998375
C 2.78613 10.4583 6.47894
C 12.8155 2.07878 1.08579
H 1.74449 10.1894 6.3855
H 5.16348 2.34857 0.964555
C 4.8607 10.2335 7.58602
C 1.66883 2.1641 2.29168
H 5.46085 9.75975 8.34191
H 2.23918 2.54973 3.1188
C 0.696371 7.39287 7.71067
C 4.08701 5.04909 2.16461
H 0.111849 7.73855 8.54732
H 3.46614 4.58851 2.91176
C 0.109526 6.54466 6.7626
C 3.52635 5.97121 1.28307
H 5.67934 6.20993 6.89631
C 0.84248 6.15587 5.63557
C 4.26875 6.41132 0.186588
C 5.44161 1.93762 4.50701
C 2.05468 10.6424 9.95163
C 0.218329 5.31088 4.57967
C 3.40429 7.25224 10.014
Ni 9.33823 8.8913 8.92305
Ni 12.7434 3.60824 3.48598
O 7.52779 4.70676 3.61725
O 10.7317 7.83638 9.09295
O 11.349 2.54803 3.58242
O 7.94312 9.94977 9.00992
O 12.1827 4.7368 4.7265
O 8.79662 7.80012 10.195
O 6.65121 2.51054 4.69758
O 9.84771 10.052 10.1565
N 10.1122 9.97092 7.57832
N 6.93299 2.54315 2.12186
N 8.60464 7.74258 7.61685
N 12.0231 4.71488 2.1391
C 10.0072 11.1144 5.47218
C 6.83544 1.38643 0.0228879
C 11.3499 1.11089 5.60323
C 8.19057 11.4263 0.135943
C 12.0613 11.0761 6.71878
C 8.89906 1.46619 1.25324
H 9.93172 1.18271 1.39634
C 8.77351 6.572 5.53453
C 12.2141 5.96425 0.0953224
H 5.94845 6.26564 10.0787
C 9.35984 7.30526 6.56747
C -0.395479 5.16319 1.09439
H 10.395 7.60599 6.48196
H 7.20554 4.89146 0.97158
C 9.38696 10.4007 6.50374
C 6.20608 2.08274 1.06135
H 8.36381 10.0777 6.38173
H 11.7851 2.37854 0.972328
C 11.4517 10.2237 7.63797
C 8.27311 2.2989 2.18572
H 12.0477 9.77007 8.41141
H 8.85498 2.73288 2.97848
C 7.29477 7.37047 7.72212
C 10.7024 5.03907 2.20955
H 6.70406 7.73112 8.5478
H 10.0981 4.62949 2.99618
C 6.70356 6.53614 6.76468
C 10.1373 5.94591 1.31521
H 12.2711 6.20139 6.90657
C 7.43598 6.15193 5.6368
C 10.8768 6.37621 0.213868
C 12.0295 1.91831 4.55634
C 8.62997 10.6103 9.96113
C 6.80132 5.33158 4.56319
C 10.0102 7.22382 10.0442
F 6.68569 1.22985 6.97595
F 12.5681 1.29141 9.73073
F 2.88756 6.33679 4.4084
F 2.29574 6.48124 1.53642
F 9.3638 11.2525 4.29727
F 5.92578 1.19129 9.74725
F 9.47466 6.36954 4.40506
F 8.90926 6.46079 1.56737
108
Atoms. Timestep: 4435
Ni 2.73009 8.91532 8.89014
Ni 6.14232 3.64089 3.46552
O 0.945152 4.63296 3.65658
O 4.10942 7.84382 9.05348
O 4.7534 2.56943 3.5601
O 1.34863 9.99458 8.98535
O 5.58024 4.75735 4.71737
O 2.17658 7.82626 10.1614
O 0.0815886 2.42142 4.73041
O 3.26128 10.0617 10.122
N 3.51221 9.9913 7.54483
N 0.351492 2.47376 2.15205
N 1.97896 7.77662 7.5792
N 5.40933 4.7579 2.12814
C 3.43352 11.1218 5.42648
C 0.329255 1.54206 -0.058544
H 2.89684 11.3223 4.51638
C 4.77534 1.10996 5.56648
C 1.64013 11.47 0.107789
C 5.46697 11.1134 6.71324
C 2.30736 1.3648 1.30005
H -0.109464 11.4362 6.92219
H 3.32116 11.4239 1.46366
C 2.12925 6.62422 5.48289
C 5.58643 5.98529 0.0708923
H 12.5469 6.27427 10.1598
C 2.72352 7.35038 6.51709
C 6.16436 5.2022 1.07792
H 3.7539 7.65976 6.42115
H 0.610029 4.83855 1.01625
C 2.79745 10.4191 6.46023
C -0.339354 2.12299 1.02548
H 1.76049 10.1385 6.35176
H 5.19227 2.43099 0.928954
C 4.84113 10.2825 7.64555
C 1.66749 2.13317 2.27903
H 5.40911 9.89102 8.4727
H 2.22764 2.48981 3.12503
C 0.673407 7.38814 7.70095
C 4.08577 5.07858 2.20273
H 0.0855791 7.74512 8.53065
H 3.479 4.65343 2.98423
C 0.0922026 6.52412 6.76234
C 3.51525 5.97677 1.29781
H 5.64548 6.26831 6.87248
C 0.816539 6.14761 5.62677
C 4.25005 6.39495 0.185893
C 5.44533 1.93489 4.52426
C 2.05609 10.6444 9.9316
C 0.210812 5.25456 4.59874
C 3.38506 7.23833 10.0103
Ni 9.32838 8.89677 8.94792
Ni 12.7438 3.56161 3.48625
O 7.52475 4.71084 3.63273
O 10.7178 7.84217 9.12855
O 11.3584 2.48421 3.57519
O 7.93543 9.9662 9.02592
O 12.1809 4.6663 4.74926
O 8.77946 7.81576 10.2302
O 6.65233 2.51358 4.719
O 9.8422 10.0638 10.1695
N 10.1083 9.96464 7.59154
N 6.93036 2.53888 2.14365
N 8.59143 7.73353 7.64659
N 12.0057 4.69224 2.15955
C 10.0896 10.9113 5.38313
C 6.88146 1.51241 -0.0257151
C 11.3965 0.993495 5.5623
C 8.20916 11.4802 0.128009
C 12.0619 11.0839 6.74885
C 8.89217 1.43699 1.29329
H 9.91291 1.11677 1.45189
C 8.76091 6.57799 5.55204
C 12.1947 5.97619 0.137235
H 5.92991 6.25112 10.078
C 9.35325 7.26952 6.61256
C 12.7657 5.16323 1.12448
H 10.3941 7.54896 6.54409
H 7.18729 4.87553 0.972727
C 9.42686 10.2883 6.45052
C 6.22772 2.14365 1.03998
H 8.41309 9.94407 6.31245
H 11.8091 2.4241 0.909548
C 11.4232 10.3068 7.72012
C 8.25084 2.21544 2.26464
H 11.9776 9.97 8.58065
H 8.80497 2.55847 3.12261
C 7.2698 7.39378 7.72953
C 10.6842 5.01974 2.24155
H 6.67363 7.76868 8.54449
H 10.0785 4.59097 3.02122
C 6.67587 6.57711 6.75698
C 10.1182 5.94052 1.35489
H 12.2667 6.15546 6.92162
C 7.41705 6.17788 5.63987
C 10.8573 6.38178 0.254434
C 12.0567 1.83811 4.52874
C 8.6325 10.634 9.96751
C 6.79384 5.33846 4.5748
C 9.99486 7.23878 10.0872
F 6.71203 1.18467 6.96521
F 12.7266 1.63408 9.58141
F 2.77996 6.50363 4.30881
F 2.29219 6.50099 1.55341
F 9.53693 10.8753 4.15103
F 6.05078 1.49283 9.63621
F 9.45142 6.42231 4.40506
F 8.89984 6.46906 1.62337
108
Atoms. Timestep: 4438
Ni 2.73014 8.91018 8.88701
Ni 6.14239 3.64597 3.46692
O 0.945038 4.63611 3.6578
O 4.10953 7.84076 9.05017
O 4.7534 2.57658 3.56139
O 1.34861 9.98734 8.9821
O 5.58029 4.76027 4.71774
O 2.17661 7.82322 10.1572
O 0.081466 2.42886 4.73077
O 3.26139 10.0544 10.1178
N 3.51225 9.98408 7.54283
N 0.351303 2.4811 2.15456
N 1.97896 7.77369 7.57717
N 5.40935 4.76081 2.13067
C 3.43352 11.1124 5.42623
C 0.329024 1.55119 -0.0542004
H 2.8968 11.3125 4.51689
C 4.77541 1.11995 5.56612
C 1.63997 1.08018 0.111997
C 5.46708 11.104 6.71192
C 2.30724 1.37428 1.30327
H -0.109563 11.4262 6.9207
H 3.32109 11.4139 1.46674
C 2.12921 6.62351 5.48259
C 5.58642 5.98584 0.0751208
H 12.5473 6.27426 10.1556
C 2.72352 7.34826 6.51592
C 6.16439 5.20426 1.08131
H 3.75394 7.65706 6.42007
H 0.609842 4.84131 1.0197
C 2.79745 10.4111 6.45911
C -0.339588 2.131 1.02891
H 1.76044 10.131 6.35075
H 5.19224 2.43841 0.932478
C 4.84124 10.2747 7.64347
C 1.66737 2.14117 2.28143
H 5.40925 9.88398 8.46992
H 2.22756 2.49712 3.12673
C 0.673335 7.38596 7.69882
C 4.08572 5.08087 2.2052
H 0.0855079 7.74225 8.52782
H 3.47895 4.65654 2.98605
C 0.0920978 6.52361 6.76098
C 3.51518 5.97732 1.30103
H 5.64559 6.2683 6.87102
C 0.816436 6.14783 5.62635
C 4.24997 6.39469 0.190036
C 5.44539 1.94325 4.52477
C 2.05612 10.6359 9.92759
C 0.210679 5.25653 4.5992
C 3.38515 7.23642 10.0062
Ni 9.32867 8.89167 8.94474
Ni 12.7441 3.56684 3.48764
O 7.52489 4.71384 3.63397
O 10.7181 7.83911 9.12518
O 11.3586 2.49153 3.57648
O 7.93566 9.95902 9.02264
O 12.1812 4.66939 4.7496
O 8.77975 7.81275 10.2259
O 6.65246 2.52083 4.71936
O 9.84256 10.0565 10.1653
N 10.1086 9.95746 7.5895
N 6.93043 2.5461 2.14617
N 8.59168 7.73068 7.6445
N 12.0059 4.69527 2.16206
C 10.0898 10.9023 5.38291
C 6.88149 1.5216 -0.0213988
C 11.3968 11.3834 5.56194
C 8.20925 1.09038 0.1322
C 12.0623 11.0746 6.7475
C 8.8923 1.44633 1.29651
H 9.91309 1.12673 1.45498
C 8.76113 6.57737 5.55169
C 12.1949 5.97675 0.141408
H 5.9301 6.25114 10.0738
C 9.3535 7.26756 6.61132
C 12.766 5.16536 1.12783
H 10.3944 7.54647 6.54291
H 7.18736 4.87821 0.976214
C 9.42711 10.2805 6.44942
C 6.22774 2.15162 1.0434
H 8.4133 9.93694 6.31147
H 11.8093 2.43154 0.913088
C 11.4235 10.2989 7.71797
C 8.25098 2.22328 2.26706
H 11.978 9.96281 8.57777
H 8.80514 2.56565 3.12431
C 7.26998 7.39159 7.72738
C 10.6844 5.02214 2.24399
H 6.67382 7.76577 8.54165
H 10.0787 4.5942 3.023
C 6.67603 6.5765 6.75562
C 10.1184 5.94114 1.35806
H 12.2671 6.15566 6.92013
C 7.4172 6.17804 5.63945
C 10.8574 6.38156 0.25852
C 12.0571 1.84666 4.52926
C 8.63279 10.6256 9.96347
C 6.79396 5.34026 4.57527
C 9.99521 7.23687 10.0831
F 6.7122 1.1945 6.96369
F -0.452418 1.64304 9.57766
F 2.77992 6.50316 4.30948
F 2.29206 6.50054 1.55641
F 9.53714 10.8664 4.15184
F 6.05096 1.50206 9.63242
F 9.45164 6.422 4.40565
F 8.89997 6.46867 1.62631
108
Atoms. Timestep: 7241
Ni 2.72987 8.91063 8.88703
Ni 6.14223 3.64552 3.4676
O 0.942589 4.63669 3.65799
O 4.1072 7.8385 9.0497
O 4.75521 2.57332 3.56033
O 1.35044 9.9908 8.98066
O 5.57849 4.76013 4.71964
O 2.17476 7.82355 10.1584
O 0.0831394 2.4249 4.73066
O 3.26308 10.0565 10.1175
N 3.51263 9.98373 7.54271
N 0.351755 2.47978 2.15461
N 1.97773 7.77318 7.57823
N 5.40859 4.7614 2.13234
C 3.43766 11.1059 5.42135
C 0.332713 1.55572 -0.0577477
H 2.90371 11.301 4.50845
C 4.77881 1.11446 5.56332
C 1.64391 1.08588 0.108927
C 5.46864 11.102 6.71213
C 2.30978 1.3774 1.3023
H -0.107372 11.4228 6.92061
H 3.32352 11.4164 1.4663
C 2.12512 6.62499 5.4811
C 5.58356 5.98538 0.0744691
H 12.5435 6.27398 10.1545
C 2.72151 7.34613 6.51626
C 6.16302 5.20609 1.08219
H 3.75226 7.65408 6.42008
H 0.608176 4.84186 1.02012
C 2.79941 10.409 6.4564
C -0.338049 2.13002 1.02734
H 1.76238 10.1289 6.34738
H 5.19394 2.43926 0.930419
C 4.84106 10.2755 7.64591
C 1.66801 2.14127 2.28233
H 5.40696 9.8878 8.47634
H 2.22665 2.49648 3.12999
C 0.671934 7.38639 7.701
C 4.08492 5.08069 2.20798
H 0.0849477 7.74428 8.53086
H 3.4794 4.65636 2.99092
C 0.0896163 6.52367 6.76291
C 3.51307 5.97637 1.30254
H 5.64333 6.26953 6.87384
C 0.812613 6.14915 5.62623
C 4.24698 6.39313 0.19003
C 5.44808 1.93868 4.52311
C 2.05905 10.6405 9.92551
C 0.207509 5.25701 4.59975
C 3.38229 7.23423 10.0062
Ni 9.32858 8.89272 8.94591
Ni 12.7438 3.56459 3.48805
O 7.5228 4.71596 3.63447
O 10.7161 7.83777 9.12635
O 11.3604 2.48621 3.57523
O 7.93751 9.96292 9.02192
O 12.1791 4.66724 4.7514
O 8.77816 7.81411 10.2288
O 6.65393 2.51869 4.71966
O 9.84428 10.0598 10.1656
N 10.109 9.95727 7.58999
N 6.93091 2.54625 2.14666
N 8.59083 7.73007 7.64717
N 12.0047 4.69398 2.16357
C 10.0939 10.8952 5.37928
C 6.88564 1.52833 -0.0252724
C 11.4008 11.3759 5.559
C 8.21297 1.09679 0.129651
C 12.0646 11.0704 6.74699
C 8.89408 1.44878 1.29702
H 9.91428 1.12738 1.45657
C 8.75841 6.57787 5.55229
C 12.1921 5.97664 0.141925
H 5.92591 6.24935 10.0711
C 9.35221 7.26453 6.61387
C 12.7642 5.1658 1.12885
H 10.3935 7.54233 6.54557
H 7.18628 4.88061 0.976924
C 9.42883 10.2788 6.44788
C 6.22964 2.15298 1.0417
H 8.41454 9.93616 6.31005
H 11.8103 2.42911 0.911645
C 11.4239 10.2985 7.71983
C 8.25097 2.22259 2.26966
H 11.9765 9.96488 8.5828
H 8.80312 2.56208 3.13039
C 7.26879 7.39272 7.73047
C 10.6832 5.02036 2.24683
H 6.67329 7.76887 8.5453
H 10.0786 4.59178 3.02747
C 6.67376 6.57797 6.75798
C 10.1164 5.94016 1.36081
H 12.2652 6.1542 6.92342
C 7.41419 6.18002 5.64031
C 10.8547 6.38081 0.260129
C 12.06 1.84011 4.52729
C 8.63566 10.6311 9.96185
C 6.79126 5.34249 4.57613
C 9.99273 7.23589 10.0849
F 6.71341 1.19391 6.96443
F -0.446377 1.65326 9.57241
F 2.772 6.51128 4.30428
F 2.29004 6.50052 1.55834
F 9.54386 10.8536 4.14607
F 6.05878 1.51649 9.62562
F 9.44678 6.4273 4.40339
F 8.89874 6.46962 1.63066
108
Atoms. Timestep: 7242
Ni 2.72987 8.91063 8.88703
Ni 6.14223 3.64552 3.4676
O 0.942589 4.63669 3.65799
O 4.1072 7.8385 9.0497
O 4.75521 2.57332 3.56033
O 1.35044 9.9908 8.98066
O 5.57849 4.76013 4.71964
O 2.17476 7.82355 10.1584
O 0.0831394 2.4249 4.73066
O 3.26308 10.0565 10.1175
N 3.51263 9.98373 7.54271
N 0.351755 2.47978 2.15461
N 1.97773 7.77318 7.57823
N 5.40859 4.7614 2.13234
C 3.43766 11.1059 5.42135
C 0.332713 1.55572 -0.0577477
H 2.90371 11.301 4.50845
C 4.77881 1.11446 5.56332
C 1.64391 1.08588 0.108927
C 5.46864 11.102 6.71213
C 2.30978 1.3774 1.3023
H -0.107372 11.4228 6.92061
H 3.32352 11.4164 1.4663
C 2.12512 6.62499 5.4811
C 5.58356 5.98538 0.0744691
H 12.5435 6.27398 10.1545
C 2.72151 7.34613 6.51626
C 6.16302 5.20609 1.08219
H 3.75226 7.65408 6.42008
H 0.608176 4.84186 1.02012
C 2.79941 10.409 6.4564
C -0.338049 2.13002 1.02734
H 1.76238 10.1289 6.34738
H 5.19394 2.43926 0.930419
C 4.84106 10.2755 7.64591
C 1.66801 2.14127 2.28233
H 5.40696 9.8878 8.47634
H 2.22665 2.49648 3.12999
C 0.671934 7.38639 7.701
C 4.08492 5.08069 2.20798
H 0.0849477 7.74428 8.53086
H 3.4794 4.65636 2.99092
C 0.0896163 6.52367 6.76291
C 3.51307 5.97637 1.30254
H 5.64333 6.26953 6.87384
C 0.812613 6.14915 5.62623
C 4.24698 6.39313 0.19003
C 5.44808 1.93868 4.52311
C 2.05905 10.6405 9.92551
C 0.207509 5.25701 4.59975
C 3.38229 7.23423 10.0062
Ni 9.32858 8.89272 8.94591
Ni 12.7438 3.56459 3.48805
O 7.5228 4.71596 3.63447
O 10.7161 7.83777 9.12635
O 11.3604 2.48621 3.57523
O 7.93751 9.96292 9.02192
O 12.1791 4.66724 4.7514
O 8.77816 7.81411 10.2288
O 6.65393 2.51869 4.71966
O 9.84428 10.0598 10.1656
N 10.109 9.95727 7.58999
N 6.93091 2.54625 2.14666
N 8.59083 7.73007 7.64717
N 12.0047 4.69398 2.16357
C 10.0939 10.8952 5.37928
C 6.88564 1.52833 -0.0252724
C 11.4008 11.3759 5.559
C 8.21297 1.09679 0.129651
C 12.0646 11.0704 6.74699
C 8.89408 1.44878 1.29702
H 9.91428 1.12738 1.45657
C 8.75841 6.57787 5.55229
C 12.1921 5.97664 0.141925
H 5.92591 6.24935 10.0711
C 9.35221 7.26453 6.61387
C 12.7642 5.1658 1.12885
H 10.3935 7.54233 6.54557
H 7.18628 4.88061 0.976924
C 9.42883 10.2788 6.44788
C 6.22964 2.15298 1.0417
H 8.41454 9.93616 6.31005
H 11.8103 2.42911 0.911645
C 11.4239 10.2985 7.71983
C 8.25097 2.22259 2.26966
H 11.9765 9.96488 8.5828
H 8.80312 2.56208 3.13039
C 7.26879 7.39272 7.73047
C 10.6832 5.02036 2.24683
H 6.67329 7.76887 8.5453
H 10.0786 4.59178 3.02747
C 6.67376 6.57797 6.75798
C 10.1164 5.94016 1.36081
H 12.2652 6.1542 6.92342
C 7.41419 6.18002 5.64031
C 10.8547 6.38081 0.260129
C 12.06 1.84011 4.52729
C 8.63566 10.6311 9.96185
C 6.79126 5.34249 4.57613
C 9.99273 7.23589 10.0849
F 6.71341 1.19391 6.96443
F -0.446377 1.65326 9.57241
F 2.772 6.51128 4.30428
F 2.29004 6.50052 1.55834
F 9.54386 10.8536 4.14607
F 6.05878 1.51649 9.62562
F 9.44678 6.4273 4.40339
F 8.89874 6.46962 1.63066
108
Atoms. Timestep: 7300
Ni 2.72987 8.91063 8.88703
Ni 6.14223 3.64552 3.4676
O 0.942589 4.63669 3.65799
O 4.1072 7.8385 9.0497
O 4.75521 2.57332 3.56033
O 1.35044 9.9908 8.98066
O 5.57849 4.76013 4.71964
O 2.17476 7.82355 10.1584
O 0.0831394 2.4249 4.73066
O 3.26308 10.0565 10.1175
N 3.51263 9.98373 7.54271
N 0.351755 2.47978 2.15461
N 1.97773 7.77318 7.57823
N 5.40859 4.7614 2.13234
C 3.43766 11.1059 5.42135
C 0.332714 1.55572 -0.0577479
H 2.90371 11.301 4.50845
C 4.77881 1.11446 5.56332
C 1.64391 1.08588 0.108927
C 5.46864 11.102 6.71213
C 2.30978 1.3774 1.3023
H -0.107372 11.4228 6.92061
H 3.32352 11.4164 1.4663
C 2.12512 6.62499 5.4811
C 5.58356 5.98538 0.0744692
H 12.5435 6.27398 10.1545
C 2.72151 7.34613 6.51626
C 6.16302 5.20609 1.08219
H 3.75226 7.65408 6.42008
H 0.608176 4.84186 1.02012
C 2.79941 10.409 6.4564
C -0.338049 2.13002 1.02734
H 1.76238 10.1289 6.34738
H 5.19394 2.43926 0.930419
C 4.84106 10.2755 7.64591
C 1.66801 2.14127 2.28233
H 5.40696 9.8878 8.47634
H 2.22665 2.49648 3.12999
C 0.671934 7.38639 7.701
C 4.08492 5.08069 2.20798
H 0.0849477 7.74428 8.53086
H 3.4794 4.65636 2.99092
C 0.0896163 6.52366 6.76291
C 3.51307 5.97637 1.30254
H 5.64333 6.26953 6.87384
C 0.812613 6.14915 5.62623
C 4.24698 6.39313 0.19003
C 5.44808 1.93868 4.52311
C 2.05905 10.6405 9.92551
C 0.207509 5.25701 4.59975
C 3.38229 7.23423 10.0062
Ni 9.32858 8.89272 8.94591
Ni 12.7438 3.56459 3.48805
O 7.5228 4.71596 3.63447
O 10.7161 7.83777 9.12635
O 11.3604 2.48621 3.57523
O 7.93751 9.96292 9.02192
O 12.1791 4.66724 4.7514
O 8.77816 7.81411 10.2288
O 6.65393 2.51869 4.71966
O 9.84428 10.0598 10.1656
N 10.109 9.95727 7.58999
N 6.93091 2.54625 2.14666
N 8.59083 7.73007 7.64717
N 12.0047 4.69398 2.16357
C 10.0939 10.8952 5.37928
C 6.88564 1.52833 -0.0252724
C 11.4008 11.3759 5.559
C 8.21297 1.09679 0.129651
C 12.0646 11.0704 6.74699
C 8.89408 1.44878 1.29702
H 9.91428 1.12738 1.45657
C 8.75841 6.57786 5.55229
C 12.1921 5.97664 0.141925
H 5.92591 6.24935 10.0711
C 9.35221 7.26453 6.61387
C 12.7642 5.1658 1.12885
H 10.3935 7.54233 6.54557
H 7.18628 4.88061 0.976924
C 9.42883 10.2788 6.44788
C 6.22964 2.15298 1.0417
H 8.41454 9.93616 6.31005
H 11.8103 2.42911 0.911645
C 11.4239 10.2985 7.71983
C 8.25097 2.22259 2.26966
H 11.9765 9.96488 8.5828
H 8.80312 2.56208 3.13039
C 7.26879 7.39272 7.73047
C 10.6832 5.02036 2.24683
H 6.67329 7.76887 8.5453
H 10.0786 4.59178 3.02747
C 6.67376 6.57797 6.75798
C 10.1164 5.94016 1.36081
H 12.2652 6.1542 6.92342
C 7.41419 6.18002 5.64031
C 10.8547 6.38081 0.260129
C 12.06 1.84011 4.52729
C 8.63566 10.6311 9.96185
C 6.79126 5.34249 4.57614
C 9.99273 7.23589 10.0849
F 6.71341 1.19391 6.96443
F -0.446376 1.65326 9.57241
F 2.772 6.51128 4.30428
F 2.29004 6.50052 1.55834
F 9.54386 10.8536 4.14607
F 6.05878 1.51649 9.62562
F 9.44678 6.4273 4.40339
F 8.89874 6.46962 1.63066
