Created on Wed Jan 04 05:14:36 2017 

        3424 atoms
        4256 bonds
       12096 angles
       10368 dihedrals
        4032 impropers

           6 atom types
          20 bond types
         119 angle types
           6 dihedral types
           1 improper types
           0.000000  31.164000 xlo xhi
           0.000000  42.744000 ylo yhi
           0.000000  36.997000 zlo zhi
           0.000000   0.000000   0.000000 xy xz yz

Masses

    1   138.905470000 # La3+3
    2     1.007940000 # H_
    3    12.010700000 # C_R
    4    12.010700000 # C_3
    5    15.999400000 # O_R
    6    18.998403200 # F_

Bond Coeffs

    1      117.479435        3.002031  # La3+3 C_R
    2      117.479435        3.054232  # La3+3 C_R
    3      117.479435        2.979286  # La3+3 C_R
    4      174.315904        2.466520  # La3+3 O_R
    5       61.622038        3.895550  # La3+3 La3+3
    6      174.315904        2.444475  # La3+3 O_R
    7      174.315904        2.442729  # La3+3 O_R
    8      174.315904        2.669292  # La3+3 O_R
    9      174.315904        2.769006  # La3+3 O_R
   10      174.315904        2.457060  # La3+3 O_R
   11      174.315904        2.559078  # La3+3 O_R
   12      174.315904        2.712632  # La3+3 O_R
   13      174.315904        2.471282  # La3+3 O_R
   14      357.440381        1.081418  # H_ C_R
   15      391.669513        1.458000  # C_R C_R
   16      646.680887        1.311940  # C_R O_R
   17      462.655054        1.379256  # C_R C_R
   18      369.943935        1.486000  # C_R C_3
   19      417.765733        1.381520  # C_3 F_
   20      349.795899        1.514000  # C_3 C_3

Angle Coeffs

    1                      fourier        5.983259        0.263124        0.133435        0.254375 # La3+3 La3+3 O_R
    2                      fourier        7.079494        0.251689        0.047516        0.250563 # C_R La3+3 O_R
    3                      fourier        9.467797        0.497048        0.661739        0.332349 # O_R La3+3 O_R
    4                      fourier       33.574470        0.343393       -0.374205        0.281131 # O_R La3+3 O_R
    5                      fourier       33.293241        0.403347       -0.496254        0.301116 # O_R La3+3 O_R
    6                      fourier        2.847064        1.043146        1.475091        0.514382 # La3+3 La3+3 O_R
    7                      fourier      294.215482        3.718540       -5.100271        1.406180 # C_R La3+3 O_R
    8                      fourier       11.525355        0.291584        0.241909        0.263861 # O_R La3+3 O_R
    9                      fourier       17.368512        0.256642        0.094525        0.252214 # O_R La3+3 O_R
   10                      fourier       15.239243        0.297800       -0.260374        0.265933 # C_R La3+3 O_R
   11                      fourier        4.102040        6.148094        8.349167        2.216031 # O_R La3+3 O_R
   12                      fourier        2.497807        2.482648        3.440724        0.994216 # C_R La3+3 O_R
   13                      fourier        2.005065        4.768899        6.506014        1.756300 # C_R La3+3 O_R
   14                      fourier       35.282554        0.307780       -0.288055        0.269260 # O_R La3+3 O_R
   15                      fourier      244.135744        3.947760       -5.407279        1.482587 # C_R La3+3 O_R
   16                      fourier       32.336049        0.358178       -0.406253        0.286059 # O_R La3+3 O_R
   17                      fourier       89.276219        0.831460       -1.173174        0.443820 # O_R La3+3 O_R
   18                      fourier        8.304819        0.260284       -0.117898        0.253428 # La3+3 La3+3 O_R
   19                      fourier        7.703206        0.250529        0.026575        0.250176 # C_R La3+3 O_R
   20                      fourier       14.170907        0.299888       -0.266348        0.266629 # C_R La3+3 O_R
   21                      fourier        2.656801        6.534330        8.865018        2.344777 # C_R La3+3 O_R
   22                      fourier        2.797767        2.824318        3.900508        1.108106 # C_R La3+3 O_R
   23                      fourier        4.130089        0.543801        0.738370        0.347934 # C_R La3+3 O_R
   24                      fourier      310.383054        3.889174       -5.328826        1.463058 # C_R La3+3 O_R
   25                      fourier        8.157985        0.560541        0.765177        0.353514 # O_R La3+3 O_R
   26                      fourier        6.724089        0.516517        0.693999        0.338839 # O_R La3+3 O_R
   27                      fourier       88.335563        0.767856       -1.080384        0.422619 # O_R La3+3 O_R
   28                      fourier        7.882708        0.264804        0.141873        0.254935 # C_R La3+3 O_R
   29                      fourier       17.643504        0.250313       -0.020436        0.250104 # O_R La3+3 O_R
   30                      fourier       29.004558        1.000112       -1.414372        0.500037 # La3+3 La3+3 O_R
   31                      fourier       24.862954        0.296028       -0.255220        0.265343 # O_R La3+3 O_R
   32                      fourier        3.096971        9.711495       13.105792        3.403832 # O_R La3+3 O_R
   33                      fourier       40.879489        1.419460       -1.997657        0.639820 # La3+3 La3+3 O_R
   34                      fourier        9.924023        0.458683        0.596375        0.319561 # O_R La3+3 O_R
   35                      fourier        2.098657        4.668344        6.371537        1.722781 # C_R La3+3 O_R
   36                      fourier        4.734119        1.017968        1.439599        0.505989 # O_R La3+3 O_R
   37                      fourier        6.226617        0.323981        0.329198        0.274660 # C_R La3+3 O_R
   38                      fourier        6.790313        0.598503        0.824978        0.366168 # O_R La3+3 O_R
   39                      fourier        8.508782        0.257377        0.099666        0.252459 # C_R La3+3 O_R
   40                      fourier       34.487307        0.293961       -0.249100        0.264654 # O_R La3+3 O_R
   41                      fourier        7.440563        0.250729        0.031183        0.250243 # C_R La3+3 O_R
   42                      fourier       12.873454        0.494333       -0.657197        0.331444 # C_R La3+3 La3+3
   43                      fourier       33.054106        0.310874       -0.296231        0.270291 # O_R La3+3 O_R
   44                      fourier        4.036189        0.271321        0.170985        0.257107 # C_R La3+3 C_R
   45                      fourier        2.805156        1.149085        1.623532        0.549695 # La3+3 La3+3 O_R
   46                      fourier        5.646021        1.043944        1.476215        0.514648 # O_R La3+3 O_R
   47                      fourier        8.573613        0.253042        0.063813        0.251014 # C_R La3+3 O_R
   48                      fourier       13.150362        0.264873       -0.142211        0.254958 # C_R La3+3 O_R
   49                      fourier       12.870511        0.269302       -0.162478        0.256434 # C_R La3+3 O_R
   50                      fourier        7.187292        0.564708        0.771805        0.354903 # O_R La3+3 O_R
   51                      fourier      285.759200        3.435572       -4.721026        1.311857 # C_R La3+3 O_R
   52                      fourier        1.970920        0.505133        0.675202        0.335044 # La3+3 La3+3 C_R
   53                      fourier       24.031138        0.254105       -0.074186        0.251368 # O_R La3+3 O_R
   54                      fourier       20.627649        0.252551       -0.058425        0.250850 # O_R La3+3 O_R
   55                      fourier       32.633312        0.357887       -0.405638        0.285962 # O_R La3+3 O_R
   56                      fourier        5.219903        7.024780        9.519919        2.508260 # O_R La3+3 O_R
   57                      fourier        5.610958        0.251580       -0.045943        0.250527 # C_R La3+3 C_R
   58                      fourier      303.686247        3.465162       -4.760698        1.321721 # C_R La3+3 O_R
   59                      fourier       10.065747        0.250000        0.000526        0.250000 # C_R La3+3 O_R
   60                      fourier       32.873750        0.349682       -0.388038        0.283227 # O_R La3+3 O_R
   61                      fourier       15.164427        0.288786       -0.233216        0.262929 # C_R La3+3 O_R
   62                      fourier        7.532579        0.262611        0.130759        0.254204 # C_R La3+3 O_R
   63                      fourier        5.120652        2.742863        3.790987        1.080954 # O_R La3+3 O_R
   64                      fourier       23.445158        0.253540       -0.068864        0.251180 # O_R La3+3 O_R
   65                      fourier        1.208469       33.948862       45.429064       11.482954 # C_R La3+3 C_R
   66                      fourier        8.608026        0.257739       -0.102106        0.252580 # La3+3 La3+3 O_R
   67                      fourier        2.056190        1.415363        1.992025        0.638454 # La3+3 La3+3 O_R
   68                      fourier        6.706349        1.308994        1.845458        0.602998 # O_R La3+3 O_R
   69                      fourier        7.513937        0.314965        0.306795        0.271655 # O_R La3+3 O_R
   70                      fourier       82.231479        0.748412       -1.051748        0.416137 # O_R La3+3 O_R
   71                      fourier       30.455223        0.293200       -0.246814        0.264400 # O_R La3+3 O_R
   72                      fourier        7.808503        0.271120        0.170155        0.257040 # C_R La3+3 O_R
   73                      fourier       38.723034        0.319391       -0.317933        0.273130 # O_R La3+3 O_R
   74                      fourier      284.922544        3.848517       -5.274377        1.449506 # C_R La3+3 O_R
   75                      fourier        7.171157        0.435768        0.555915        0.311923 # O_R La3+3 O_R
   76                      fourier       12.584035        0.480296       -0.633521        0.326765 # La3+3 La3+3 C_R
   77                      fourier       24.414167        0.286314       -0.225305        0.262105 # O_R La3+3 O_R
   78                      fourier       40.445259        1.454094       -2.045228        0.651365 # La3+3 La3+3 O_R
   79                      fourier        2.108053        0.491444        0.652350        0.330481 # C_R La3+3 La3+3
   80                      fourier        2.082158        0.487773        0.646173        0.329258 # C_R La3+3 La3+3
   81                      fourier       29.939032        1.074813       -1.519605        0.524938 # La3+3 La3+3 O_R
   82                      fourier        5.822651        0.259046        0.110483        0.253015 # O_R La3+3 La3+3
   83                      fourier        8.887680        0.262555       -0.130460        0.254185 # O_R La3+3 La3+3
   84                      fourier        6.252426        0.259340        0.112287        0.253113 # O_R La3+3 La3+3
   85                      fourier       41.314555        1.383332       -1.947964        0.627777 # O_R La3+3 La3+3
   86                      fourier       12.778566        0.500064       -0.666773        0.333355 # La3+3 La3+3 C_R
   87                      fourier        2.863357        0.979770        1.385571        0.493257 # O_R La3+3 La3+3
   88                      fourier       30.573275        1.138795       -1.609170        0.546265 # La3+3 La3+3 O_R
   89                      fourier        2.132075        1.467370        2.063445        0.655790 # O_R La3+3 La3+3
   90                      fourier        2.216037        1.439454        2.025127        0.646485 # O_R La3+3 La3+3
   91              cosine/periodic       25.822633              -1               3 # La3+3 C_R O_R
   92              cosine/periodic      137.761490              -1               3 # C_R C_R O_R
   93              cosine/periodic       18.243888              -1               3 # La3+3 C_R C_R
   94              cosine/periodic      217.450257              -1               3 # O_R C_R O_R
   95              cosine/periodic      101.626578              -1               3 # C_R C_R C_R
   96              cosine/periodic      117.010657              -1               3 # C_R C_R C_R
   97              cosine/periodic       76.817955              -1               3 # H_ C_R C_R
   98              cosine/periodic       96.739224              -1               3 # C_3 C_R C_R
   99                      fourier      105.865807        0.343737        0.374972        0.281246 # C_3 C_3 F_
  100                      fourier      121.635137        0.343737        0.374972        0.281246 # F_ C_3 F_
  101              cosine/periodic       25.141694              -1               3 # La3+3 C_R O_R
  102              cosine/periodic       17.776796              -1               3 # La3+3 C_R C_R
  103              cosine/periodic       16.758184              -1               3 # C_R C_R La3+3
  104              cosine/periodic       23.659269              -1               3 # La3+3 C_R O_R
  105                      fourier       97.888497        0.343737        0.374972        0.281246 # C_R C_3 C_3
  106                      fourier      102.595193        0.343737        0.374972        0.281246 # C_R C_3 C_R
  107                      fourier       93.452663        0.343737        0.374972        0.281246 # C_3 C_3 C_3
  108              cosine/periodic       50.575747              -1               3 # La3+3 O_R C_R
  109              cosine/periodic       19.968790              -1               3 # La3+3 O_R La3+3
  110              cosine/periodic       37.054776              -1               3 # La3+3 O_R C_R
  111              cosine/periodic       50.451137              -1               3 # C_R O_R La3+3
  112              cosine/periodic       32.492756              -1               3 # C_R O_R La3+3
  113              cosine/periodic       17.652603              -1               3 # La3+3 O_R La3+3
  114              cosine/periodic       48.582852              -1               3 # C_R O_R La3+3
  115              cosine/periodic       48.908665              -1               3 # C_R O_R La3+3
  116              cosine/periodic       43.012264              -1               3 # La3+3 O_R C_R
  117              cosine/periodic       49.563679              -1               3 # La3+3 O_R C_R
  118              cosine/periodic       18.903713              -1               3 # La3+3 O_R La3+3
  119              cosine/periodic       34.984095              -1               3 # La3+3 O_R C_R

Dihedral Coeffs

    1        0.416667              -1               2 # La3+3 C_R C_R C_R
    2        1.122852              -1               2 # O_R C_R O_R La3+3
    3        1.684278              -1               2 # O_R C_R O_R La3+3
    4        1.497136              -1               2 # C_R C_R C_R H_
    5        0.083333               1               3 # C_R C_R C_3 C_3
    6        0.066219               1               3 # F_ C_3 C_3 C_3

Improper Coeffs

    1        2.000000        1.000000       -1.000000        0.000000               0 # C_R C_R C_R C_R

Pair Coeffs

    1        0.017000        3.137745 # La3+3 La3+3
    2        0.044000        2.571134 # H_ H_
    3        0.105000        3.430851 # C_R C_R
    4        0.105000        3.430851 # C_3 C_3
    5        0.060000        3.118146 # O_R O_R
    6        0.050000        2.996983 # F_ F_

Atoms

       1      444        1     2.11469    2.30637   10.69583   24.51384
       2      444        1     2.11469    1.58913   10.69583   12.48316
       3      444        1     2.11469    1.58913   21.36217    6.01534
       4      444        1     2.11469    2.30637   21.36217   30.98166
       5      444        1     2.11469    5.48463   10.67617   12.48316
       6      444        1     2.11469    6.20187   10.67617   24.51384
       7      444        1     2.11469    6.20187    0.00983   30.98166
       8      444        1     2.11469    5.48463    0.00983    6.01534
       9      444        2     0.07950    6.34499   14.21238   25.09507
      10      444        2     0.09839    1.81686   15.42204   23.21562
      11      444        2     0.10987    0.93726   17.56351   22.94184
      12      444        2     0.11967    3.60100   19.54897   24.12574
      13      444        2     0.08619    2.88345   20.36110   26.15318
      14      444        2     0.09355    6.19462   19.27968   28.04743
      15      444        2     0.12987    7.05008   18.48037   25.98299
      16      444        2     0.09777    1.56989    6.96727   21.14379
      17      444        2     0.10539    0.51888    5.59733   19.65281
      18      444        2     0.11218    5.12882    8.00381   19.78230
      19      444        2     0.09912    6.24137    9.46352   21.14749
      20      444        2     0.13733    5.26360   16.22562   24.80649
      21      444        2     0.07950    5.34151   14.21238   11.90193
      22      444        2     0.09839    2.07864   15.42204   13.78138
      23      444        2     0.10987    2.95824   17.56351   14.05516
      24      444        2     0.11967    0.29450   19.54897   12.87126
      25      444        2     0.08619    1.01205   20.36110   10.84382
      26      444        2     0.09355    5.49188   19.27968    8.94957
      27      444        2     0.12987    4.63642   18.48037   11.01401
      28      444        2     0.09777    2.32561    6.96727   15.85321
      29      444        2     0.10539    3.37662    5.59733   17.34419
      30      444        2     0.11218    6.55768    8.00381   17.21470
      31      444        2     0.09912    5.44513    9.46352   15.84951
      32      444        2     0.13733    6.42290   16.22562   12.19051
      33      444        2     0.07950    5.34151   17.84562    6.59657
      34      444        2     0.09839    2.07864   16.63596    4.71712
      35      444        2     0.10987    2.95824   14.49449    4.44334
      36      444        2     0.11967    0.29450   12.50903    5.62724
      37      444        2     0.08619    1.01205   11.69690    7.65468
      38      444        2     0.09355    5.49188   12.77832    9.54893
      39      444        2     0.12987    4.63642   13.57763    7.48449
      40      444        2     0.09777    2.32561    3.71873    2.64529
      41      444        2     0.10539    3.37662    5.08867    1.15431
      42      444        2     0.11218    6.55768    2.68219    1.28380
      43      444        2     0.09912    5.44513    1.22248    2.64899
      44      444        2     0.13733    6.42290   15.83238    6.30799
      45      444        2     0.07950    6.34499   17.84562   30.40043
      46      444        2     0.09839    1.81686   16.63596   32.27988
      47      444        2     0.10987    0.93726   14.49449   32.55366
      48      444        2     0.11967    3.60100   12.50903   31.36976
      49      444        2     0.08619    2.88345   11.69690   29.34232
      50      444        2     0.09355    6.19462   12.77832   27.44807
      51      444        2     0.12987    7.05008   13.57763   29.51251
      52      444        2     0.09777    1.56989    3.71873   34.35171
      53      444        2     0.10539    0.51888    5.08867   35.84269
      54      444        2     0.11218    5.12882    2.68219   35.71320
      55      444        2     0.09912    6.24137    1.22248   34.34801
      56      444        2     0.13733    5.26360   15.83238   30.68901
      57      444        2     0.07950    1.44601    7.15962   11.90193
      58      444        2     0.09839    5.97414    5.94996   13.78138
      59      444        2     0.10987    6.85374    3.80849   14.05516
      60      444        2     0.11967    4.19000    1.82303   12.87126
      61      444        2     0.08619    4.90755    1.01090   10.84382
      62      444        2     0.09355    1.59638    2.09232    8.94957
      63      444        2     0.12987    0.74092    2.89163   11.01401
      64      444        2     0.09777    6.22111   14.40473   15.85321
      65      444        2     0.10539    7.27212   15.77467   17.34419
      66      444        2     0.11218    2.66218   13.36819   17.21470
      67      444        2     0.09912    1.54963   11.90848   15.84951
      68      444        2     0.13733    2.52740    5.14638   12.19051
      69      444        2     0.07950    2.44949    7.15962   25.09507
      70      444        2     0.09839    5.71236    5.94996   23.21562
      71      444        2     0.10987    4.83276    3.80849   22.94184
      72      444        2     0.11967    7.49650    1.82303   24.12574
      73      444        2     0.08619    6.77895    1.01090   26.15318
      74      444        2     0.09355    2.29912    2.09232   28.04743
      75      444        2     0.12987    3.15458    2.89163   25.98299
      76      444        2     0.09777    5.46539   14.40473   21.14379
      77      444        2     0.10539    4.41438   15.77467   19.65281
      78      444        2     0.11218    1.23332   13.36819   19.78230
      79      444        2     0.09912    2.34587   11.90848   21.14749
      80      444        2     0.13733    1.36810    5.14638   24.80649
      81      444        2     0.07950    2.44949    3.52638   30.40043
      82      444        2     0.09839    5.71236    4.73604   32.27988
      83      444        2     0.10987    4.83276    6.87751   32.55366
      84      444        2     0.11967    7.49650    8.86297   31.36976
      85      444        2     0.08619    6.77895    9.67510   29.34232
      86      444        2     0.09355    2.29912    8.59368   27.44807
      87      444        2     0.12987    3.15458    7.79437   29.51251
      88      444        2     0.09777    5.46539   17.65327   34.35171
      89      444        2     0.10539    4.41438   16.28333   35.84269
      90      444        2     0.11218    1.23332   18.68981   35.71320
      91      444        2     0.09912    2.34587   20.14952   34.34801
      92      444        2     0.13733    1.36810    5.53962   30.68901
      93      444        2     0.07950    1.44601    3.52638    6.59657
      94      444        2     0.09839    5.97414    4.73604    4.71712
      95      444        2     0.10987    6.85374    6.87751    4.44334
      96      444        2     0.11967    4.19000    8.86297    5.62724
      97      444        2     0.08619    4.90755    9.67510    7.65468
      98      444        2     0.09355    1.59638    8.59368    9.54893
      99      444        2     0.12987    0.74092    7.79437    7.48449
     100      444        2     0.09777    6.22111   17.65327    2.64529
     101      444        2     0.10539    7.27212   16.28333    1.15431
     102      444        2     0.11218    2.66218   18.68981    1.28380
     103      444        2     0.09912    1.54963   20.14952    2.64899
     104      444        2     0.13733    2.52740    5.53962    6.30799
     105      444        3     0.73542    0.84922   13.29125   24.38472
     106      444        3    -0.16746    0.27269   14.62913   24.23673
     107      444        3     0.02510    6.80154   14.89415   24.65480
     108      444        3     0.01412    0.96608   15.61438   23.54859
     109      444        3    -0.17707    0.43630   16.88815   23.33771
     110      444        3     0.08848    6.87945   17.11683   23.75207
     111      444        4     0.67134    5.04078   18.30726   22.39428
     112      444        3     0.10836    5.39137   18.96979   24.90638
     113      444        3    -0.17901    4.12144   19.49340   24.89158
     114      444        3     0.03415    3.70852   19.92725   26.13098
     115      444        3    -0.18050    4.35517   19.80330   27.32598
     116      444        3     0.01979    5.67185   19.30533   27.27789
     117      444        3    -0.17868    6.19385   18.84797   26.03849
     118      444        3     0.69225    0.82585    9.18569   22.38319
     119      444        3    -0.14608    0.12310    8.28165   21.37687
     120      444        3     0.00250    0.70898    7.18099   20.86631
     121      444        3    -0.15817    0.09271    6.36458   19.96358
     122      444        3     0.08270    6.59898    6.69798   19.50482
     123      444        3    -0.14076    6.00686    7.81360   20.02648
     124      444        3     0.75592    3.83940   20.22219   28.59868
     125      444        3    -0.01207    6.63793    8.66207   20.88851
     126      444        3    -0.16440    6.12373   16.08670   24.48461
     127      444        4     0.72748    7.15214   19.58103   23.17492
     128      444        4     0.69171    6.75480    4.91770   17.57357
     129      444        4    -0.33458    6.17047   18.53380   23.58189
     130      444        3     0.73542    3.04628   13.29125   12.61228
     131      444        3    -0.16746    3.62282   14.62913   12.76027
     132      444        3     0.02510    4.88496   14.89415   12.34220
     133      444        3     0.01412    2.92942   15.61438   13.44841
     134      444        3    -0.17707    3.45920   16.88815   13.65929
     135      444        3     0.08848    4.80705   17.11683   13.24493
     136      444        4     0.67134    6.64572   18.30726   14.60272
     137      444        3     0.10836    6.29513   18.96979   12.09062
     138      444        3    -0.17901    7.56506   19.49340   12.10542
     139      444        3     0.03415    0.18698   19.92725   10.86602
     140      444        3    -0.18050    7.33133   19.80330    9.67102
     141      444        3     0.01979    6.01465   19.30533    9.71911
     142      444        3    -0.17868    5.49266   18.84797   10.95851
     143      444        3     0.69225    3.06965    9.18569   14.61382
     144      444        3    -0.14608    3.77240    8.28165   15.62013
     145      444        3     0.00250    3.18652    7.18099   16.13069
     146      444        3    -0.15817    3.80279    6.36458   17.03342
     147      444        3     0.08270    5.08752    6.69798   17.49218
     148      444        3    -0.14076    5.67964    7.81360   16.97052
     149      444        3     0.75592    0.05610   20.22219    8.39832
     150      444        3    -0.01207    5.04857    8.66207   16.10849
     151      444        3    -0.16440    5.56277   16.08670   12.51239
     152      444        4     0.72748    4.53436   19.58103   13.82208
     153      444        4     0.69171    4.93170    4.91770   19.42343
     154      444        4    -0.33458    5.51603   18.53380   13.41511
     155      444        3     0.73542    3.04628   18.76675    5.88622
     156      444        3    -0.16746    3.62282   17.42887    5.73823
     157      444        3     0.02510    4.88496   17.16385    6.15630
     158      444        3     0.01412    2.92942   16.44362    5.05009
     159      444        3    -0.17707    3.45920   15.16985    4.83921
     160      444        3     0.08848    4.80705   14.94117    5.25357
     161      444        4     0.67134    6.64572   13.75074    3.89578
     162      444        3     0.10836    6.29513   13.08821    6.40788
     163      444        3    -0.17901    7.56506   12.56460    6.39308
     164      444        3     0.03415    0.18698   12.13075    7.63248
     165      444        3    -0.18050    7.33133   12.25470    8.82748
     166      444        3     0.01979    6.01465   12.75267    8.77939
     167      444        3    -0.17868    5.49266   13.21003    7.53999
     168      444        3     0.69225    3.06965    1.50031    3.88468
     169      444        3    -0.14608    3.77240    2.40435    2.87837
     170      444        3     0.00250    3.18652    3.50501    2.36781
     171      444        3    -0.15817    3.80279    4.32142    1.46508
     172      444        3     0.08270    5.08752    3.98802    1.00632
     173      444        3    -0.14076    5.67964    2.87240    1.52798
     174      444        3     0.75592    0.05610   11.83581   10.10018
     175      444        3    -0.01207    5.04857    2.02393    2.39001
     176      444        3    -0.16440    5.56277   15.97130    5.98611
     177      444        4     0.72748    4.53436   12.47697    4.67642
     178      444        4     0.69171    4.93170    5.76830   36.07207
     179      444        4    -0.33458    5.51603   13.52420    5.08339
     180      444        3     0.73542    0.84922   18.76675   31.11078
     181      444        3    -0.16746    0.27269   17.42887   31.25877
     182      444        3     0.02510    6.80154   17.16385   30.84070
     183      444        3     0.01412    0.96608   16.44362   31.94691
     184      444        3    -0.17707    0.43630   15.16985   32.15779
     185      444        3     0.08848    6.87945   14.94117   31.74343
     186      444        4     0.67134    5.04078   13.75074   33.10122
     187      444        3     0.10836    5.39137   13.08821   30.58912
     188      444        3    -0.17901    4.12144   12.56460   30.60392
     189      444        3     0.03415    3.70852   12.13075   29.36452
     190      444        3    -0.18050    4.35517   12.25470   28.16952
     191      444        3     0.01979    5.67185   12.75267   28.21761
     192      444        3    -0.17868    6.19385   13.21003   29.45701
     193      444        3     0.69225    0.82585    1.50031   33.11232
     194      444        3    -0.14608    0.12310    2.40435   34.11863
     195      444        3     0.00250    0.70898    3.50501   34.62919
     196      444        3    -0.15817    0.09271    4.32142   35.53192