Created on Wed Feb 20 17:02:11 2019 

         952 atoms
        1040 bonds
        1872 angles
        1920 dihedrals
         576 impropers

           8 atom types
          10 bond types
          16 angle types
           6 dihedral types
           1 improper types
           0.000000  25.832000 xlo xhi
           0.000000  25.832000 ylo yhi
           0.000000  25.832000 zlo zhi
           0.000000   0.000000   0.000000 xy xz yz

Masses

    1    12.010700000 # C_R
    2     1.007940000 # H_
    3    32.065000000 # S_3+6
    4    12.010700000 # C_3
    5    65.380000000 # Zn3+2
    6    15.999400000 # O_2
    7    15.999400000 # O_R
    8    16.04246     # CH4_sp3

Bond Coeffs

    1      391.669513        1.458000  # C_R C_R
    2      646.680887        1.311940  # C_R O_R
    3      462.655054        1.379256  # C_R C_R
    4      320.755144        1.749010  # C_R S_3+6
    5      357.440381        1.081418  # C_R H_
    6      305.918964        1.776839  # S_3+6 C_3
    7      349.795899        1.514000  # C_3 C_3
    8      331.069389        1.109401  # C_3 H_
    9      172.603617        1.941817  # Zn3+2 O_2
   10      160.291409        1.921883  # Zn3+2 O_R

Angle Coeffs

    1              cosine/periodic      137.761490              -1               3 # C_R C_R O_R
    2              cosine/periodic      217.450257              -1               3 # O_R C_R O_R
    3              cosine/periodic      101.626578              -1               3 # C_R C_R C_R
    4              cosine/periodic      117.010657              -1               3 # C_R C_R C_R
    5              cosine/periodic       87.834471              -1               3 # C_R C_R S_3+6
    6              cosine/periodic       76.817955              -1               3 # C_R C_R H_
    7                      fourier       43.654492        0.343737        0.374972        0.281246 # C_R S_3+6 C_3
    8                      fourier       86.652822        0.343737        0.374972        0.281246 # S_3+6 C_3 C_3
    9                      fourier       59.774187        0.343737        0.374972        0.281246 # S_3+6 C_3 H_
   10                      fourier       69.847816        0.343737        0.374972        0.281246 # C_3 C_3 H_
   11                      fourier       61.342703        0.343737        0.374972        0.281246 # H_ C_3 H_
   12                      fourier       41.974052        0.343737        0.374972        0.281246 # C_3 S_3+6 C_3
   13                     harmonic       37.034816      112.637759  # O_2 Zn3+2 O_R
   14                     harmonic       44.641141      106.127381  # O_R Zn3+2 O_R
   15                     harmonic       12.601021      109.471221  # Zn3+2 O_2 Zn3+2
   16              cosine/periodic       44.113892              -1               3 # Zn3+2 O_R C_R

Dihedral Coeffs

    1        0.555556              -1               2 # O_R C_R C_R C_R
    2        2.245703              -1               2 # C_R C_R O_R Zn3+2
    3        1.497136              -1               2 # C_R C_R C_R C_R
    4        0.658808               1               2 # C_R C_R S_3+6 C_3
    5        0.237247               1               2 # C_R S_3+6 C_3 C_3
    6        0.066219               1               3 # S_3+6 C_3 C_3 S_3+6

Improper Coeffs

    1        2.000000        1.000000       -1.000000        0.000000               0 # C_R C_R O_R O_R

Pair Coeffs

    1        0.105000        3.430851 # C_R C_R
    2        0.044000        2.571134 # H_ H_
    3        0.274000        3.594776 # S_3+6 S_3+6
    4        0.105000        3.430851 # C_3 C_3
    5        0.124000        2.461553 # Zn3+2 Zn3+2
    6        0.060000        3.118146 # O_2 O_2
    7        0.060000        3.118146 # O_R O_R
    8        0.314970        3.720000 # CH4_sp3 CH4_sp3

Atoms

       1      444        1     0.00000   15.79110   19.37400    6.45800
       2      444        1     0.00000   10.04090   19.37400    6.45800
       3      444        1     0.00000   14.30576   19.37400    6.45800
       4      444        1     0.00000   11.52624   19.37400    6.45800
       5      444        1     0.00000   13.61088   18.52413    7.30787
       6      444        1     0.00000   12.22112   20.22387    5.60813
       7      444        1     0.00000   12.22112   18.52413    7.30787
       8      444        1     0.00000   13.61088   20.22387    5.60813
       9      444        2     0.00000   11.75873   17.95582    7.87618
      10      444        2     0.00000   14.07327   20.79218    5.03982
      11      444        3     0.00000   14.50983   17.42110    8.41090
      12      444        4     0.00000   15.02906   18.26322    9.38993
      13      444        4     0.00000   14.35484   19.58841    9.29694
      14      444        3     0.00000   12.92117   19.37917   10.29664
      15      444        4     0.00000   11.77681   20.22129    9.63017
      16      444        3     0.00000   11.32217   21.32690    4.50510
      17      444        4     0.00000   10.80294   20.62685    3.40982
      18      444        4     0.00000   11.39450   19.28359    3.64748
      19      444        3     0.00000   12.90567   18.65587    4.16412
      20      444        4     0.00000   13.14332   16.87605    4.29844
      21      444        2     0.00000   11.59857   19.85706    8.62014
      22      444        2     0.00000   10.86494   20.12313   10.21656
      23      444        2     0.00000   12.07129   21.27007    9.59142
      24      444        2     0.00000   14.08361   19.81831    8.26624
      25      444        2     0.00000   14.99289   20.37886    9.68958
      26      444        2     0.00000   12.98575   16.41365    3.32458
      27      444        2     0.00000   14.15594   16.66939    4.63943
      28      444        2     0.00000   12.43036   16.46790    5.01399
      29      444        2     0.00000   10.68153   18.48796    3.43824
      30      444        2     0.00000   10.14939   20.97042    2.60903
      31      444        2     0.00000   16.10109   18.38722    9.23494
      32      444        2     0.00000   14.85082   17.83183   10.37413
      33      444        2     0.00000   11.05351   19.31717    4.68076
      34      444        2     0.00000   11.67348   20.90584    2.81827
      35      444        1     0.00000   15.79110   19.37400   -6.45800
      36      444        1     0.00000   10.04090   19.37400   -6.45800
      37      444        1     0.00000   14.30576   19.37400   -6.45800
      38      444        1     0.00000   11.52624   19.37400   -6.45800
      39      444        1     0.00000   13.61088   18.52413   -5.60813
      40      444        1     0.00000   12.22112   20.22387   -7.30787
      41      444        1     0.00000   12.22112   18.52413   -5.60813
      42      444        1     0.00000   13.61088   20.22387   -7.30787
      43      444        2     0.00000   11.75873   17.95582   -5.03982
      44      444        2     0.00000   14.07327   20.79218   -7.87618
      45      444        3     0.00000   14.50983   17.42110   -4.50510
      46      444        4     0.00000   15.02906   18.26322   -3.52607
      47      444        4     0.00000   14.35484   19.58841   -3.61906
      48      444        3     0.00000   12.92117   19.37917   -2.61936
      49      444        4     0.00000   11.77681   20.22129   -3.28583
      50      444        3     0.00000   11.32217   21.32690   -8.41090
      51      444        4     0.00000   10.80294   20.62685   -9.50618
      52      444        4     0.00000   11.39450   19.28359   -9.26852
      53      444        3     0.00000   12.90567   18.65587   -8.75188
      54      444        4     0.00000   13.14332   16.87605   -8.61756
      55      444        2     0.00000   11.59857   19.85706   -4.29586
      56      444        2     0.00000   10.86494   20.12313   -2.69944
      57      444        2     0.00000   12.07129   21.27007   -3.32458
      58      444        2     0.00000   14.08361   19.81831   -4.64976
      59      444        2     0.00000   14.99289   20.37886   -3.22642
      60      444        2     0.00000   12.98575   16.41365   -9.59142
      61      444        2     0.00000   14.15594   16.66939   -8.27657
      62      444        2     0.00000   12.43036   16.46790   -7.90201
      63      444        2     0.00000   10.68153   18.48796   -9.47776
      64      444        2     0.00000   10.14939   20.97042  -10.30697
      65      444        2     0.00000   16.10109   18.38722   -3.68106
      66      444        2     0.00000   14.85082   17.83183   -2.54187
      67      444        2     0.00000   11.05351   19.31717   -8.23524
      68      444        2     0.00000   11.67348   20.90584  -10.09773
      69      444        1     0.00000   15.79110    6.45800    6.45800
      70      444        1     0.00000   10.04090    6.45800    6.45800
      71      444        1     0.00000   14.30576    6.45800    6.45800
      72      444        1     0.00000   11.52624    6.45800    6.45800
      73      444        1     0.00000   13.61088    5.60813    7.30787
      74      444        1     0.00000   12.22112    7.30787    5.60813
      75      444        1     0.00000   12.22112    5.60813    7.30787
      76      444        1     0.00000   13.61088    7.30787    5.60813
      77      444        2     0.00000   11.75873    5.03982    7.87618
      78      444        2     0.00000   14.07327    7.87618    5.03982
      79      444        3     0.00000   14.50983    4.50510    8.41090
      80      444        4     0.00000   15.02906    5.34722    9.38993
      81      444        4     0.00000   14.35484    6.67241    9.29694
      82      444        3     0.00000   12.92117    6.46317   10.29664
      83      444        4     0.00000   11.77681    7.30529    9.63017
      84      444        3     0.00000   11.32217    8.41090    4.50510
      85      444        4     0.00000   10.80294    7.71085    3.40982
      86      444        4     0.00000   11.39450    6.36759    3.64748
      87      444        3     0.00000   12.90567    5.73987    4.16412
      88      444        4     0.00000   13.14332    3.96005    4.29844
      89      444        2     0.00000   11.59857    6.94106    8.62014
      90      444        2     0.00000   10.86494    7.20713   10.21656
      91      444        2     0.00000   12.07129    8.35407    9.59142
      92      444        2     0.00000   14.08361    6.90231    8.26624
      93      444        2     0.00000   14.99289    7.46286    9.68958
      94      444        2     0.00000   12.98575    3.49765    3.32458
      95      444        2     0.00000   14.15594    3.75339    4.63943
      96      444        2     0.00000   12.43036    3.55190    5.01399
      97      444        2     0.00000   10.68153    5.57196    3.43824
      98      444        2     0.00000   10.14939    8.05442    2.60903
      99      444        2     0.00000   16.10109    5.47122    9.23494
     100      444        2     0.00000   14.85082    4.91583   10.37413
     101      444        2     0.00000   11.05351    6.40117    4.68076
     102      444        2     0.00000   11.67348    7.98984    2.81827
     103      444        1     0.00000   15.79110    6.45800   -6.45800
     104      444        1     0.00000   10.04090    6.45800   -6.45800
     105      444        1     0.00000   14.30576    6.45800   -6.45800
     106      444        1     0.00000   11.52624    6.45800   -6.45800
     107      444        1     0.00000   13.61088    5.60813   -5.60813
     108      444        1     0.00000   12.22112    7.30787   -7.30787
     109      444        1     0.00000   12.22112    5.60813   -5.60813
     110      444        1     0.00000   13.61088    7.30787   -7.30787
     111      444        2     0.00000   11.75873    5.03982   -5.03982
     112      444        2     0.00000   14.07327    7.87618   -7.87618
     113      444        3     0.00000   14.50983    4.50510   -4.50510
     114      444        4     0.00000   15.02906    5.34722   -3.52607
     115      444        4     0.00000   14.35484    6.67241   -3.61906
     116      444        3     0.00000   12.92117    6.46317   -2.61936
     117      444        4     0.00000   11.77681    7.30529   -3.28583
     118      444        3     0.00000   11.32217    8.41090   -8.41090
     119      444        4     0.00000   10.80294    7.71085   -9.50618
     120      444        4     0.00000   11.39450    6.36759   -9.26852
     121      444        3     0.00000   12.90567    5.73987   -8.75188
     122      444        4     0.00000   13.14332    3.96005   -8.61756
     123      444        2     0.00000   11.59857    6.94106   -4.29586
     124      444        2     0.00000   10.86494    7.20713   -2.69944
     125      444        2     0.00000   12.07129    8.35407   -3.32458
     126      444        2     0.00000   14.08361    6.90231   -4.64976
     127      444        2     0.00000   14.99289    7.46286   -3.22642
     128      444        2     0.00000   12.98575    3.49765   -9.59142
     129      444        2     0.00000   14.15594    3.75339   -8.27657
     130      444        2     0.00000   12.43036    3.55190   -7.90201
     131      444        2     0.00000   10.68153    5.57196   -9.47776
     132      444        2     0.00000   10.14939    8.05442  -10.30697
     133      444        2     0.00000   16.10109    5.47122   -3.68106
     134      444        2     0.00000   14.85082    4.91583   -2.54187
     135      444        2     0.00000   11.05351    6.40117   -8.23524
     136      444        2     0.00000   11.67348    7.98984  -10.09773
     137      444        1     0.00000    2.87510   19.37400    6.45800
     138      444        1     0.00000   -2.87510   19.37400    6.45800
     139      444        1     0.00000    1.38976   19.37400    6.45800
     140      444        1     0.00000   -1.38976   19.37400    6.45800
     141      444        1     0.00000    0.69488   18.52413    7.30787
     142      444        1     0.00000   -0.69488   20.22387    5.60813
     143      444        1     0.00000   -0.69488   18.52413    7.30787
     144      444        1     0.00000    0.69488   20.22387    5.60813
     145      444        2     0.00000   -1.15727   17.95582    7.87618
     146      444        2     0.00000    1.15727   20.79218    5.03982
     147      444        3     0.00000    1.59383   17.42110    8.41090
     148      444        4     0.00000    2.11306   18.26322    9.38993
     149      444        4     0.00000    1.43884   19.58841    9.29694
     150      444        3     0.00000    0.00517   19.37917   10.29664
     151      444        4     0.00000   -1.13919   20.22129    9.63017
     152      444        3     0.00000   -1.59383   21.32690    4.50510
     153      444        4     0.00000   -2.11306   20.62685    3.40982
     154      444        4     0.00000   -1.52150   19.28359    3.64748
     155      444        3     0.00000   -0.01033   18.65587    4.16412
     156      444        4     0.00000    0.22732   16.87605    4.29844
     157      444        2     0.00000   -1.31743   19.85706    8.62014
     158      444        2     0.00000   -2.05106   20.12313   10.21656
     159      444        2     0.00000   -0.84471   21.27007    9.59142
     160      444        2     0.00000    1.16761   19.81831    8.26624
     161      444        2     0.00000    2.07689   20.37886    9.68958
     162      444        2     0.00000    0.06975   16.41365    3.32458
     163      444        2     0.00000    1.23994   16.66939    4.63943
     164      444        2     0.00000   -0.48564   16.46790    5.01399
     165      444        2     0.00000   -2.23447   18.48796    3.43824
     166      444        2     0.00000   -2.76661   20.97042    2.60903
     167      444        2     0.00000    3.18509   18.38722    9.23494
     168      444        2     0.00000    1.93482   17.83183   10.37413
     169      444        2     0.00000   -1.86249   19.31717    4.68076
     170      444        2     0.00000   -1.24252   20.90584    2.81827
     171      444        1     0.00000    2.87510   19.37400   -6.45800
     172      444        1     0.00000   -2.87510   19.37400   -6.45800
     173      444        1     0.00000    1.38976   19.37400   -6.45800
     174      444        1     0.00000   -1.38976   19.37400   -6.45800
     175      444        1     0.00000    0.69488   18.52413   -5.60813
     176      444        1     0.00000   -0.69488   20.22387   -7.30787
     177      444        1     0.00000   -0.69488   18.52413   -5.60813
     178      444        1     0.00000    0.69488   20.22387   -7.30787
     179      444        2     0.00000   -1.15727   17.95582   -5.03982
     180      444        2     0.00000    1.15727   20.79218   -7.87618
     181      444        3     0.00000    1.59383   17.42110   -4.50510
     182      444        4     0.00000    2.11306   18.26322   -3.52607
     183      444        4     0.00000    1.43884   19.58841   -3.61906
     184      444        3     0.00000    0.00517   19.37917   -2.61936
     185      444        4     0.00000   -1.13919   20.22129   -3.28583
     186      444        3     0.00000   -1.59383   21.32690   -8.41090
     187      444        4     0.00000   -2.11306   20.62685   -9.50618
     188      444        4     0.00000   -1.52150   19.28359   -9.26852
     189      444        3     0.00000   -0.01033   18.65587   -8.75188
     190      444        4     0.00000    0.22732   16.87605   -8.61756
     191      444        2     0.00000   -1.31743   19.85706   -4.29586
     192      444        2     0.00000   -2.05106   20.12313   -2.69944
     193      444        2     0.00000   -0.84471   21.27007   -3.32458
     194      444        2     0.00000    1.16761   19.81831   -4.64976
     195      444        2     0.00000    2.07689   20.37886   -3.22642
     196      444        2     0.00000    0.06975   16.41365   -9.59142
     197      444        2     0.00000    1.23994   16.66939   -8.27657
     198      444        2     0.00000   -0.48564   16.46790   -7.90201
     199      444        2     0.00000   -2.23447   18.48796   -9.47776
     200      444        2     0.00000   -2.76661   20.97042  -10.30697
     201      444        2     0.00000    3.18509   18.38722   -3.68106
     202      444        2     0.00000    1.93482   17.83183   -2.54187
     203      444        2     0.00000   -1.86249   19.31717   -8.23524
     204      444        2     0.00000   -1.24252   20.90584  -10.09773
     205      444        1     0.00000    2.87510    6.45800    6.45800
     206      444        1     0.00000   -2.87510    6.45800    6.45800
     207      444        1     0.00000    1.38976    6.45800    6.45800
     208      444        1     0.00000   -1.38976    6.45800    6.45800
     209      444        1     0.00000    0.69488    5.60813    7.30787
     210      444        1     0.00000   -0.69488    7.30787    5.60813
     211      444        1     0.00000   -0.69488    5.60813    7.30787
     212      444        1     0.00000    0.69488    7.30787    5.60813
     213      444        2     0.00000   -1.15727    5.03982    7.87618
     214      444        2     0.00000    1.15727    7.87618    5.03982
     215      444        3     0.00000    1.59383    4.50510    8.41090
     216      444        4     0.00000    2.11306    5.34722    9.38993
     217      444        4     0.00000    1.43884    6.67241    9.29694
     218      444        3     0.00000    0.00517    6.46317   10.29664
     219      444        4     0.00000   -1.13919    7.30529    9.63017
     220      444        3     0.00000   -1.59383    8.41090    4.50510
     221      444        4     0.00000   -2.11306    7.71085    3.40982
     222      444        4     0.00000   -1.52150    6.36759    3.64748
     223      444        3     0.00000   -0.01033    5.73987    4.16412
     224      444        4     0.00000    0.22732    3.96005    4.29844
     225      444        2     0.00000   -1.31743    6.94106    8.62014
     226      444        2     0.00000   -2.05106    7.20713   10.21656
     227      444        2     0.00000   -0.84471    8.35407    9.59142
     228      444        2     0.00000    1.16761    6.90231    8.26624
     229      444        2     0.00000    2.07689    7.46286    9.68958
     230      444        2     0.00000    0.06975    3.49765    3.32458
     231      444        2     0.00000    1.23994    3.75339    4.63943
     232      444        2     0.00000   -0.48564    3.55190    5.01399
     233      444        2     0.00000   -2.23447    5.57196    3.43824
     234      444        2     0.00000   -2.76661    8.05442    2.60903
     235      444        2     0.00000    3.18509    5.47122    9.23494
     236      444        2     0.00000    1.93482    4.91583   10.37413
     237      444        2     0.00000   -1.86249    6.40117    4.68076
     238      444        2     0.00000   -1.24252    7.98984    2.81827
     239      444        1     0.00000    2.87510    6.45800   -6.45800
     240      444        1     0.00000   -2.87510    6.45800   -6.45800
     241      444        1     0.00000    1.38976    6.45800   -6.45800
     242      444        1     0.00000   -1.38976    6.45800   -6.45800
     243      444        1     0.00000    0.69488    5.60813   -5.60813
     244      444        1     0.00000   -0.69488    7.30787   -7.30787
     245      444        1     0.00000   -0.69488    5.60813   -5.60813
     246      444        1     0.00000    0.69488    7.30787   -7.30787
     247      444        2     0.00000   -1.15727    5.03982   -5.03982
     248      444        2     0.00000    1.15727    7.87618   -7.87618
     249      444        3     0.00000    1.59383    4.50510   -4.50510
     250      444        4     0.00000    2.11306    5.34722   -3.52607
     251      444        4     0.00000    1.43884    6.67241   -3.61906
     252      444        3     0.00000    0.00517    6.46317   -2.61936
     253      444        4     0.00000   -1.13919    7.30529   -3.28583
     254      444        3     0.00000   -1.59383    8.41090   -8.41090
     255      444        4     0.00000   -2.11306    7.71085   -9.50618
     256      444        4     0.00000   -1.52150    6.36759   -9.26852
     257      444        3     0.00000   -0.01033    5.73987   -8.75188
     258      444        4     0.00000    0.22732    3.96005   -8.61756
     259      444        2     0.00000   -1.31743    6.94106   -4.29586
     260      444        2     0.00000   -2.05106    7.20713   -2.69944
     261      444        2     0.00000   -0.84471    8.35407   -3.32458
     262      444        2     0.00000    1.16761    6.90231   -4.64976
     263      444        2     0.00000    2.07689    7.46286   -3.22642
     264      444        2     0.00000    0.06975    3.49765   -9.59142
     265      444        2     0.00000    1.23994    3.75339   -8.27657
     266      444        2     0.00000   -0.48564    3.55190   -7.90201
     267      444        2     0.00000   -2.23447    5.57196   -9.47776
     268      444        2     0.00000   -2.76661    8.05442  -10.30697
     269      444        2     0.00000    3.18509    5.47122   -3.68106
     270      444        2     0.00000    1.93482    4.91583   -2.54187
     271      444        2     0.00000   -1.86249    6.40117   -8.23524
     272      444        2     0.00000   -1.24252    7.98984  -10.09773
     273      444        1     0.00000    6.45800   19.37400   10.04090
     274      444        1     0.00000    6.45800   19.37400   15.79110
     275      444        1     0.00000    6.45800   19.37400   11.52624
     276      444        1     0.00000    6.45800   19.37400   14.30576
     277      444        1     0.00000    7.30787   18.52413   12.22112
     278      444        1     0.00000    5.60813   20.22387   13.61088
     279      444        1     0.00000    7.30787   18.52413   13.61088
     280      444        1     0.00000    5.60813   20.22387   12.22112
     281      444        2     0.00000    7.87618   17.95582   14.07327
     282      444        2     0.00000    5.03982   20.79218   11.75873
     283      444        3     0.00000    8.41090   17.42110   11.32217
     284      444        4     0.00000    9.38993   18.26322   10.80294
     285      444        4     0.00000    9.29694   19.58841   11.47716
     286      444        3     0.00000   10.29664   19.37917   12.91083
     287      444        4     0.00000    9.63017   20.22129   14.05519
     288      444        3     0.00000    4.50510   21.32690   14.50983
     289      444        4     0.00000    3.40982   20.62685   15.02906
     290      444        4     0.00000    3.64748   19.28359   14.43750
     291      444        3     0.00000    4.16412   18.65587   12.92633
     292      444        4     0.00000    4.29844   16.87605   12.68868
     293      444        2     0.00000    8.62014   19.85706   14.23343
     294      444        2     0.00000   10.21656   20.12313   14.96706
     295      444        2     0.00000    9.59142   21.27007   13.76071
     296      444        2     0.00000    8.26624   19.81831   11.74839
     297      444        2     0.00000    9.68958   20.37886   10.83911
     298      444        2     0.00000    3.32458   16.41365   12.84625
     299      444        2     0.00000    4.63943   16.66939   11.67606
     300      444        2     0.00000    5.01399   16.46790   13.40164
     301      444        2     0.00000    3.43824   18.48796   15.15047
     302      444        2     0.00000    2.60903   20.97042   15.68261
     303      444        2     0.00000    9.23494   18.38722    9.73091
     304      444        2     0.00000   10.37413   17.83183   10.98118
     305      444        2     0.00000    4.68076   19.31717   14.77590
     306      444        2     0.00000    2.81827   20.90584   14.15852
     307      444        1     0.00000    6.45800    6.45800   10.04090
     308      444        1     0.00000    6.45800    6.45800   15.79110
     309      444        1     0.00000    6.45800    6.45800   11.52624
     310      444        1     0.00000    6.45800    6.45800   14.30576
     311      444        1     0.00000    7.30787    5.60813   12.22112
     312      444        1     0.00000    5.60813    7.30787   13.61088
     313      444        1     0.00000    7.30787    5.60813   13.61088
     314      444        1     0.00000    5.60813    7.30787   12.22112
     315      444        2     0.00000    7.87618    5.03982   14.07327
     316      444        2     0.00000    5.03982    7.87618   11.75873
     317      444        3     0.00000    8.41090    4.50510   11.32217
     318      444        4     0.00000    9.38993    5.34722   10.80294
     319      444        4     0.00000    9.29694    6.67241   11.47716
     320      444        3     0.00000   10.29664    6.46317   12.91083
     321      444        4     0.00000    9.63017    7.30529   14.05519
     322      444        3     0.00000    4.50510    8.41090   14.50983
     323      444        4     0.00000    3.40982    7.71085   15.02906
     324      444        4     0.00000    3.64748    6.36759   14.43750
     325      444        3     0.00000    4.16412    5.73987   12.92633
     326      444        4     0.00000    4.29844    3.96005   12.68868
     327      444        2     0.00000    8.62014    6.94106   14.23343
     328      444        2     0.00000   10.21656    7.20713   14.96706
     329      444        2     0.00000    9.59142    8.35407   13.76071
     330      444        2     0.00000    8.26624    6.90231   11.74839
     331      444        2     0.00000    9.68958    7.46286   10.83911
     332      444        2     0.00000    3.32458    3.49765   12.84625
     333      444        2     0.00000    4.63943    3.75339   11.67606
     334      444        2     0.00000    5.01399    3.55190   13.40164
     335      444        2     0.00000    3.43824    5.57196   15.15047
     336      444        2     0.00000    2.60903    8.05442   15.68261
     337      444        2     0.00000    9.23494    5.47122    9.73091
     338      444        2     0.00000   10.37413    4.91583   10.98118
     339      444        2     0.00000    4.68076    6.40117   14.77590
     340      444        2     0.00000    2.81827    7.98984   14.15852
     341      444        1     0.00000   -6.45800   19.37400   10.04090
     342      444        1     0.00000   -6.45800   19.37400   15.79110
     343      444        1     0.00000   -6.45800   19.37400   11.52624
     344      444        1     0.00000   -6.45800   19.37400   14.30576
     345      444        1     0.00000   -5.60813   18.52413   12.22112
     346      444        1     0.00000   -7.30787   20.22387   13.61088
     347      444        1     0.00000   -5.60813   18.52413   13.61088
     348      444        1     0.00000   -7.30787   20.22387   12.22112
     349      444        2     0.00000   -5.03982   17.95582   14.07327
     350      444        2     0.00000   -7.87618   20.79218   11.75873
     351      444        3     0.00000   -4.50510   17.42110   11.32217
     352      444        4     0.00000   -3.52607   18.26322   10.80294
     353      444        4     0.00000   -3.61906   19.58841   11.47716
     354      444        3     0.00000   -2.61936   19.37917   12.91083
     355      444        4     0.00000   -3.28583   20.22129   14.05519
     356      444        3     0.00000   -8.41090   21.32690   14.50983
     357      444        4     0.00000   -9.50618   20.62685   15.02906
     358      444        4     0.00000   -9.26852   19.28359   14.43750
     359      444        3     0.00000   -8.75188   18.65587   12.92633
     360      444        4     0.00000   -8.61756   16.87605   12.68868
     361      444        2     0.00000   -4.29586   19.85706   14.23343
     362      444        2     0.00000   -2.69944   20.12313   14.96706
     363      444        2     0.00000   -3.32458   21.27007   13.76071