Created on Mon Feb 28 10:57:36 2022 

        1116 atoms
        1188 bonds
        1836 angles
        2160 dihedrals
        1512 impropers

           7 atom types
          10 bond types
          17 angle types
           3 dihedral types
           1 improper types
           0.000000  31.854000 xlo xhi
           0.000000  35.635800 ylo yhi
           0.000000  28.367197 zlo zhi
           0.000000   0.013863   0.000000 xy xz yz

Masses

    1    58.693400000 # Ni4+2
    2    15.999400000 # O_2
    3    12.010700000 # C_R
    4     1.007940000 # H_
    5    14.006700000 # N_R
    6    12.010700000 # C_1
    7    15.999400000 # O_R

Bond Coeffs

    1      328.673665        1.841585  # Ni4+2 N_R
    2      321.720028        1.793457  # Ni4+2 O_R
    3      852.955211        1.196287  # O_2 C_1
    4      462.655054        1.379256  # C_R C_R
    5      357.440381        1.081418  # C_R H_
    6      663.718927        1.345073  # C_R N_R
    7      529.459447        1.043423  # H_ N_R
    8      410.805866        1.435000  # C_R C_1
    9      646.680887        1.311940  # O_R C_R
   10      391.669513        1.458000  # C_R C_R

Angle Coeffs

    1      171.515475               1               4 # N_R Ni4+2 O_R
    2      161.490108               1               4 # O_R Ni4+2 O_R
    3      111.297508              -1               3 # C_R C_R C_R
    4       57.289016              -1               3 # C_R C_R H_
    5      153.699352              -1               3 # C_R C_R N_R
    6       79.786967              -1               3 # H_ C_R N_R
    7       88.904516              -1               3 # Ni4+2 N_R C_R
    8      120.000516              -1               3 # C_R N_R C_R
    9       62.535612              -1               3 # C_R N_R H_
   10       35.647060              -1               3 # H_ N_R H_
   11      104.760596              -1               3 # C_R C_R C_1
   12      128.255556               1               1 # O_2 C_1 O_2
   13       80.154455               1               1 # O_2 C_1 C_R
   14      119.173173              -1               3 # Ni4+2 O_R C_R
   15      102.183280              -1               3 # C_R C_R C_R
   16      187.136328              -1               3 # O_R C_R O_R
   17      131.755710              -1               3 # O_R C_R C_R

Dihedral Coeffs

    1        3.368555              -1               2 # C_R C_R C_R C_R
    2        6.737110              -1               2 # Ni4+2 O_R C_R O_R
    3        1.250000              -1               2 # C_R C_R C_R O_R

Improper Coeffs

    1        2.000000        1.000000       -1.000000        0.000000               0 # C_R C_R C_R H_

Pair Coeffs

    1        0.015000        2.524807 # Ni4+2 Ni4+2
    2        0.060000        3.118146 # O_2 O_2
    3        0.105000        3.430851 # C_R C_R
    4        0.044000        2.571134 # H_ H_
    5        0.069000        3.260689 # N_R N_R
    6        0.105000        3.430851 # C_1 C_1
    7        0.060000        3.118146 # O_R O_R

Atoms

       1      444        1     0.00000    5.29536    2.95183    0.32551
       2      444        2     0.00000    0.32121   -1.54422    5.45359
       3      444        2     0.00000    1.38209   -1.66300    3.57710
       4      444        3     0.00000    2.22241    0.23757    6.63651
       5      444        3     0.00000    3.21943    0.45139    4.45152
       6      444        3     0.00000    4.03728    1.42543    4.99688
       7      444        4     0.00000    4.78023    2.01936    4.35366
       8      444        4     0.00000    4.22727    0.47514    2.67503
       9      444        5     0.00000    4.03792    1.78179    6.29468
      10      444        5     0.00000    3.40993    0.08315    3.18493
      11      444        3     0.00000    2.23237   -0.14254    5.29616
      12      444        4     0.00000    2.86825   -0.68896    2.83459
      13      444        6     0.00000    1.27649   -1.18786    4.76853
      14      444        3     0.00000    3.15702    1.17598    7.11449
      15      444        4     0.00000    3.18939    1.44919    8.16337
      16      444        4     0.00000    1.49011   -0.23757    7.34781
      17      444        7     0.00000    5.90653    4.06129    5.97059
      18      444        7     0.00000    6.97348    4.44141    7.83006
      19      444        3     0.00000    7.31593    6.19944    4.61747
      20      444        3     0.00000    8.72696    6.36812    6.56417
      21      444        3     0.00000    9.51127    7.31009    5.84293
      22      444        4     0.00000   10.41721    7.71871    6.28617
      23      444        4     0.00000    9.77898    6.69478    8.28393
      24      444        5     0.00000    9.16135    7.75316    4.63591
      25      444        5     0.00000    9.04399    6.12223    7.83573
      26      444        3     0.00000    7.61599    5.75875    5.90605
      27      444        4     0.00000    8.42309    5.48079    8.35130
      28      444        3     0.00000    6.81148    4.74194    6.58474
      29      444        3     0.00000    8.08438    7.20437    4.01467
      30      444        4     0.00000    7.84394    7.60230    3.03245
      31      444        4     0.00000    6.45031    5.82170    4.07991
      32      444        1     0.00000    5.29882    2.95183    7.41731
      33      444        2     0.00000    0.32467   -1.54422   12.54539
      34      444        2     0.00000    1.38555   -1.66300   10.66890
      35      444        3     0.00000    2.22587    0.23757   13.72830
      36      444        3     0.00000    3.22290    0.45139   11.54332
      37      444        3     0.00000    4.04075    1.42543   12.08868
      38      444        4     0.00000    4.78369    2.01936   11.44545
      39      444        4     0.00000    4.23074    0.47514    9.76683
      40      444        5     0.00000    4.04138    1.78179   13.38648
      41      444        5     0.00000    3.41340    0.08315   10.27673
      42      444        3     0.00000    2.23583   -0.14254   12.38795
      43      444        4     0.00000    2.87171   -0.68896    9.92639
      44      444        6     0.00000    1.27996   -1.18786   11.86032
      45      444        3     0.00000    3.16049    1.17598   14.20629
      46      444        4     0.00000    3.19286    1.44919   15.25517
      47      444        4     0.00000    1.49358   -0.23757   14.43961
      48      444        7     0.00000    5.90999    4.06129   13.06238
      49      444        7     0.00000    6.97695    4.44141   14.92185
      50      444        3     0.00000    7.31940    6.19944   11.70927
      51      444        3     0.00000    8.73042    6.36812   13.65597
      52      444        3     0.00000    9.51474    7.31009   12.93473
      53      444        4     0.00000   10.42067    7.71871   13.37797
      54      444        4     0.00000    9.78244    6.69478   15.37573
      55      444        5     0.00000    9.16482    7.75316   11.72771
      56      444        5     0.00000    9.04746    6.12223   14.92753
      57      444        3     0.00000    7.61946    5.75875   12.99785
      58      444        4     0.00000    8.42656    5.48079   15.44310
      59      444        3     0.00000    6.81495    4.74194   13.67653
      60      444        3     0.00000    8.08785    7.20437   11.10647
      61      444        4     0.00000    7.84740    7.60230   10.12425
      62      444        4     0.00000    6.45377    5.82170   11.17171
      63      444        1     0.00000    5.30229    2.95183   14.50911
      64      444        2     0.00000    0.32814   -1.54422   19.63719
      65      444        2     0.00000    1.38902   -1.66300   17.76070
      66      444        3     0.00000    2.22934    0.23757   20.82010
      67      444        3     0.00000    3.22636    0.45139   18.63512
      68      444        3     0.00000    4.04421    1.42543   19.18048
      69      444        4     0.00000    4.78716    2.01936   18.53725
      70      444        4     0.00000    4.23420    0.47514   16.85862
      71      444        5     0.00000    4.04485    1.78179   20.47828
      72      444        5     0.00000    3.41687    0.08315   17.36853
      73      444        3     0.00000    2.23930   -0.14254   19.47975
      74      444        4     0.00000    2.87518   -0.68896   17.01819
      75      444        6     0.00000    1.28342   -1.18786   18.95212
      76      444        3     0.00000    3.16395    1.17598   21.29809
      77      444        4     0.00000    3.19632    1.44919   22.34697
      78      444        4     0.00000    1.49704   -0.23757   21.53141
      79      444        7     0.00000    5.91346    4.06129   20.15418
      80      444        7     0.00000    6.98041    4.44141   22.01365
      81      444        3     0.00000    7.32287    6.19944   18.80107
      82      444        3     0.00000    8.73389    6.36812   20.74777
      83      444        3     0.00000    9.51821    7.31009   20.02653
      84      444        4     0.00000   10.42414    7.71871   20.46977
      85      444        4     0.00000    9.78591    6.69478   22.46753
      86      444        5     0.00000    9.16828    7.75316   18.81951
      87      444        5     0.00000    9.05093    6.12223   22.01933
      88      444        3     0.00000    7.62292    5.75875   20.08965
      89      444        4     0.00000    8.43002    5.48079   22.53490
      90      444        3     0.00000    6.81841    4.74194   20.76833
      91      444        3     0.00000    8.09131    7.20437   18.19827
      92      444        4     0.00000    7.85087    7.60230   17.21605
      93      444        4     0.00000    6.45724    5.82170   18.26351
      94      444        1     0.00000    5.30575    2.95183   21.60091
      95      444        2     0.00000    0.33160   -1.54422   26.72899
      96      444        2     0.00000    1.39249   -1.66300   24.85250
      97      444        3     0.00000    2.23280    0.23757   27.91190
      98      444        3     0.00000    3.22983    0.45139   25.72692
      99      444        3     0.00000    4.04768    1.42543   26.27228
     100      444        4     0.00000    4.79062    2.01936   25.62905
     101      444        4     0.00000    4.23767    0.47514   23.95042
     102      444        5     0.00000    4.04831    1.78179   27.57008
     103      444        5     0.00000    3.42033    0.08315   24.46032
     104      444        3     0.00000    2.24277   -0.14254   26.57155
     105      444        4     0.00000    2.87864   -0.68896   24.10999
     106      444        6     0.00000    1.28689   -1.18786   26.04392
     107      444        3     0.00000    3.16742    1.17598   28.38989
     108      444        4     0.00000    3.19979    1.44919   29.43877
     109      444        4     0.00000    1.50051   -0.23757   28.62321
     110      444        7     0.00000    5.91692    4.06129   27.24598
     111      444        7     0.00000    6.98388    4.44141   29.10545
     112      444        3     0.00000    7.32633    6.19944   25.89287
     113      444        3     0.00000    8.73735    6.36812   27.83957
     114      444        3     0.00000    9.52167    7.31009   27.11833
     115      444        4     0.00000   10.42760    7.71871   27.56157
     116      444        4     0.00000    9.78938    6.69478   29.55933
     117      444        5     0.00000    9.17175    7.75316   25.91131
     118      444        5     0.00000    9.05439    6.12223   29.11113
     119      444        3     0.00000    7.62639    5.75875   27.18145
     120      444        4     0.00000    8.43349    5.48079   29.62670
     121      444        3     0.00000    6.82188    4.74194   27.86013
     122      444        3     0.00000    8.09478    7.20437   25.29006
     123      444        4     0.00000    7.85433    7.60230   24.30785
     124      444        4     0.00000    6.46070    5.82170   25.35531
     125      444        1     0.00000    5.29536   14.83043    0.32551
     126      444        2     0.00000    0.32121   10.33438    5.45359
     127      444        2     0.00000    1.38209   10.21560    3.57710
     128      444        3     0.00000    2.22241   12.11617    6.63651
     129      444        3     0.00000    3.21943   12.32999    4.45152
     130      444        3     0.00000    4.03728   13.30403    4.99688
     131      444        4     0.00000    4.78023   13.89796    4.35366
     132      444        4     0.00000    4.22727   12.35374    2.67503
     133      444        5     0.00000    4.03792   13.66039    6.29468
     134      444        5     0.00000    3.40993   11.96175    3.18493
     135      444        3     0.00000    2.23237   11.73606    5.29616
     136      444        4     0.00000    2.86825   11.18964    2.83459
     137      444        6     0.00000    1.27649   10.69074    4.76853
     138      444        3     0.00000    3.15702   13.05458    7.11449
     139      444        4     0.00000    3.18939   13.32779    8.16337
     140      444        4     0.00000    1.49011   11.64103    7.34781
     141      444        7     0.00000    5.90653   15.93989    5.97059
     142      444        7     0.00000    6.97348   16.32001    7.83006
     143      444        3     0.00000    7.31593   18.07804    4.61747
     144      444        3     0.00000    8.72696   18.24672    6.56417
     145      444        3     0.00000    9.51127   19.18869    5.84293
     146      444        4     0.00000   10.41721   19.59731    6.28617
     147      444        4     0.00000    9.77898   18.57338    8.28393
     148      444        5     0.00000    9.16135   19.63176    4.63591
     149      444        5     0.00000    9.04399   18.00083    7.83573
     150      444        3     0.00000    7.61599   17.63735    5.90605
     151      444        4     0.00000    8.42309   17.35939    8.35130
     152      444        3     0.00000    6.81148   16.62054    6.58474
     153      444        3     0.00000    8.08438   19.08297    4.01467
     154      444        4     0.00000    7.84394   19.48090    3.03245
     155      444        4     0.00000    6.45031   17.70030    4.07991
     156      444        1     0.00000    5.29882   14.83043    7.41731
     157      444        2     0.00000    0.32467   10.33438   12.54539
     158      444        2     0.00000    1.38555   10.21560   10.66890
     159      444        3     0.00000    2.22587   12.11617   13.72830
     160      444        3     0.00000    3.22290   12.32999   11.54332
     161      444        3     0.00000    4.04075   13.30403   12.08868
     162      444        4     0.00000    4.78369   13.89796   11.44545
     163      444        4     0.00000    4.23074   12.35374    9.76683
     164      444        5     0.00000    4.04138   13.66039   13.38648
     165      444        5     0.00000    3.41340   11.96175   10.27673
     166      444        3     0.00000    2.23583   11.73606   12.38795
     167      444        4     0.00000    2.87171   11.18964    9.92639
     168      444        6     0.00000    1.27996   10.69074   11.86032
     169      444        3     0.00000    3.16049   13.05458   14.20629
     170      444        4     0.00000    3.19286   13.32779   15.25517
     171      444        4     0.00000    1.49358   11.64103   14.43961
     172      444        7     0.00000    5.90999   15.93989   13.06238
     173      444        7     0.00000    6.97695   16.32001   14.92185
     174      444        3     0.00000    7.31940   18.07804   11.70927
     175      444        3     0.00000    8.73042   18.24672   13.65597
     176      444        3     0.00000    9.51474   19.18869   12.93473
     177      444        4     0.00000   10.42067   19.59731   13.37797
     178      444        4     0.00000    9.78244   18.57338   15.37573
     179      444        5     0.00000    9.16482   19.63176   11.72771
     180      444        5     0.00000    9.04746   18.00083   14.92753
     181      444        3     0.00000    7.61946   17.63735   12.99785
     182      444        4     0.00000    8.42656   17.35939   15.44310
     183      444        3     0.00000    6.81495   16.62054   13.67653
     184      444        3     0.00000    8.08785   19.08297   11.10647
     185      444        4     0.00000    7.84740   19.48090   10.12425
     186      444        4     0.00000    6.45377   17.70030   11.17171
     187      444        1     0.00000    5.30229   14.83043   14.50911
     188      444        2     0.00000    0.32814   10.33438   19.63719
     189      444        2     0.00000    1.38902   10.21560   17.76070
     190      444        3     0.00000    2.22934   12.11617   20.82010
     191      444        3     0.00000    3.22636   12.32999   18.63512
     192      444        3     0.00000    4.04421   13.30403   19.18048
     193      444        4     0.00000    4.78716   13.89796   18.53725
     194      444        4     0.00000    4.23420   12.35374   16.85862
     195      444        5     0.00000    4.04485   13.66039   20.47828
     196      444        5     0.00000    3.41687   11.96175   17.36853
     197      444        3     0.00000    2.23930   11.73606   19.47975
     198      444        4     0.00000    2.87518   11.18964   17.01819
     199      444        6     0.00000    1.28342   10.69074   18.95212
     200      444        3     0.00000    3.16395   13.05458   21.29809
     201      444        4     0.00000    3.19632   13.32779   22.34697
     202      444        4     0.00000    1.49704   11.64103   21.53141
     203      444        7     0.00000    5.91346   15.93989   20.15418
     204      444        7     0.00000    6.98041   16.32001   22.01365
     205      444        3     0.00000    7.32287   18.07804   18.80107
     206      444        3     0.00000    8.73389   18.24672   20.74777
     207      444        3     0.00000    9.51821   19.18869   20.02653
     208      444        4     0.00000   10.42414   19.59731   20.46977
     209      444        4     0.00000    9.78591   18.57338   22.46753
     210      444        5     0.00000    9.16828   19.63176   18.81951
     211      444        5     0.00000    9.05093   18.00083   22.01933
     212      444        3     0.00000    7.62292   17.63735   20.08965
     213      444        4     0.00000    8.43002   17.35939   22.53490
     214      444        3     0.00000    6.81841   16.62054   20.76833
     215      444        3     0.00000    8.09131   19.08297   18.19827
     216      444        4     0.00000    7.85087   19.48090   17.21605
     217      444        4     0.00000    6.45724   17.70030   18.26351
     218      444        1     0.00000    5.30575   14.83043   21.60091
     219      444        2     0.00000    0.33160   10.33438   26.72899
     220      444        2     0.00000    1.39249   10.21560   24.85250
     221      444        3     0.00000    2.23280   12.11617   27.91190
     222      444        3     0.00000    3.22983   12.32999   25.72692
     223      444        3     0.00000    4.04768   13.30403   26.27228
     224      444        4     0.00000    4.79062   13.89796   25.62905
     225      444        4     0.00000    4.23767   12.35374   23.95042
     226      444        5     0.00000    4.04831   13.66039   27.57008
     227      444        5     0.00000    3.42033   11.96175   24.46032
     228      444        3     0.00000    2.24277   11.73606   26.57155
     229      444        4     0.00000    2.87864   11.18964   24.10999
     230      444        6     0.00000    1.28689   10.69074   26.04392
     231      444        3     0.00000    3.16742   13.05458   28.38989
     232      444        4     0.00000    3.19979   13.32779   29.43877
     233      444        4     0.00000    1.50051   11.64103   28.62321
     234      444        7     0.00000    5.91692   15.93989   27.24598
     235      444        7     0.00000    6.98388   16.32001   29.10545
     236      444        3     0.00000    7.32633   18.07804   25.89287
     237      444        3     0.00000    8.73735   18.24672   27.83957
     238      444        3     0.00000    9.52167   19.18869   27.11833
     239      444        4     0.00000   10.42760   19.59731   27.56157
     240      444        4     0.00000    9.78938   18.57338   29.55933
     241      444        5     0.00000    9.17175   19.63176   25.91131
     242      444        5     0.00000    9.05439   18.00083   29.11113
     243      444        3     0.00000    7.62639   17.63735   27.18145
     244      444        4     0.00000    8.43349   17.35939   29.62670
     245      444        3     0.00000    6.82188   16.62054   27.86013
     246      444        3     0.00000    8.09478   19.08297   25.29006
     247      444        4     0.00000    7.85433   19.48090   24.30785
     248      444        4     0.00000    6.46070   17.70030   25.35531
     249      444        1     0.00000    5.29536   26.70903    0.32551
     250      444        2     0.00000    0.32121   22.21298    5.45359
     251      444        2     0.00000    1.38209   22.09420    3.57710
     252      444        3     0.00000    2.22241   23.99477    6.63651
     253      444        3     0.00000    3.21943   24.20859    4.45152
     254      444        3     0.00000    4.03728   25.18263    4.99688
     255      444        4     0.00000    4.78023   25.77656    4.35366
     256      444        4     0.00000    4.22727   24.23234    2.67503
     257      444        5     0.00000    4.03792   25.53899    6.29468
     258      444        5     0.00000    3.40993   23.84035    3.18493
     259      444        3     0.00000    2.23237   23.61466    5.29616
     260      444        4     0.00000    2.86825   23.06824    2.83459
     261      444        6     0.00000    1.27649   22.56934    4.76853
     262      444        3     0.00000    3.15702   24.93318    7.11449
     263      444        4     0.00000    3.18939   25.20639    8.16337
     264      444        4     0.00000    1.49011   23.51963    7.34781
     265      444        7     0.00000    5.90653   27.81849    5.97059
     266      444        7     0.00000    6.97348   28.19861    7.83006
     267      444        3     0.00000    7.31593   29.95664    4.61747
     268      444        3     0.00000    8.72696   30.12532    6.56417
     269      444        3     0.00000    9.51127   31.06729    5.84293
     270      444        4     0.00000   10.41721   31.47591    6.28617
     271      444        4     0.00000    9.77898   30.45198    8.28393
     272      444        5     0.00000    9.16135   31.51036    4.63591
     273      444        5     0.00000    9.04399   29.87943    7.83573
     274      444        3     0.00000    7.61599   29.51595    5.90605
     275      444        4     0.00000    8.42309   29.23799    8.35130
     276      444        3     0.00000    6.81148   28.49914    6.58474
     277      444        3     0.00000    8.08438   30.96157    4.01467
     278      444        4     0.00000    7.84394   31.35950    3.03245
     279      444        4     0.00000    6.45031   29.57890    4.07991
     280      444        1     0.00000    5.29882   26.70903    7.41731
     281      444        2     0.00000    0.32467   22.21298   12.54539
     282      444        2     0.00000    1.38555   22.09420   10.66890
     283      444        3     0.00000    2.22587   23.99477   13.72830
     284      444        3     0.00000    3.22290   24.20859   11.54332
     285      444        3     0.00000    4.04075   25.18263   12.08868
     286      444        4     0.00000    4.78369   25.77656   11.44545
     287      444        4     0.00000    4.23074   24.23234    9.76683
     288      444        5     0.00000    4.04138   25.53899   13.38648
     289      444        5     0.00000    3.41340   23.84035   10.27673
     290      444        3     0.00000    2.23583   23.61466   12.38795
     291      444        4     0.00000    2.87171   23.06824    9.92639
     292      444        6     0.00000    1.27996   22.56934   11.86032
     293      444        3     0.00000    3.16049   24.93318   14.20629
     294      444        4     0.00000    3.19286   25.20639   15.25517
     295      444        4     0.00000    1.49358   23.51963   14.43961
     296      444        7     0.00000    5.90999   27.81849   13.06238
     297      444        7     0.00000    6.97695   28.19861   14.92185
     298      444        3     0.00000    7.31940   29.95664   11.70927
     299      444        3     0.00000    8.73042   30.12532   13.65597
     300      444        3     0.00000    9.51474   31.06729   12.93473
     301      444        4     0.00000   10.42067   31.47591   13.37797
     302      444        4     0.00000    9.78244   30.45198   15.37573
     303      444        5     0.00000    9.16482   31.51036   11.72771
     304      444        5     0.00000    9.04746   29.87943   14.92753
     305      444        3     0.00000    7.61946   29.51595   12.99785
     306      444        4     0.00000    8.42656   29.23799   15.44310
     307      444        3     0.00000    6.81495   28.49914   13.67653
     308      444        3     0.00000    8.08785   30.96157   11.10647
     309      444        4     0.00000    7.84740   31.35950   10.12425
     310      444        4     0.00000    6.45377   29.57890   11.17171
     311      444        1     0.00000    5.30229   26.70903   14.50911
     312      444        2     0.00000    0.32814   22.21298   19.63719
     313      444        2     0.00000    1.38902   22.09420   17.76070
     314      444        3     0.00000    2.22934   23.99477   20.82010
     315      444        3     0.00000    3.22636   24.20859   18.63512
     316      444        3     0.00000    4.04421   25.18263   19.18048
     317      444        4     0.00000    4.78716   25.77656   18.53725
     318      444        4     0.00000    4.23420   24.23234   16.85862
     319      444        5     0.00000    4.04485   25.53899   20.47828
     320      444        5     0.00000    3.41687   23.84035   17.36853
     321      444        3     0.00000    2.23930   23.61466   19.47975
     322      444        4     0.00000    2.87518   23.06824   17.01819
     323      444        6     0.00000    1.28342   22.56934   18.95212
     324      444        3     0.00000    3.16395   24.93318   21.29809
     325      444        4     0.00000    3.19632   25.20639   22.34697
     326      444        4     0.00000    1.49704   23.51963   21.53141
     327      444        7     0.00000    5.91346   27.81849   20.15418
     328      444        7     0.00000    6.98041   28.19861   22.01365
     329      444        3     0.00000    7.32287   29.95664   18.80107
     330      444        3     0.00000    8.73389   30.12532   20.74777
     331      444        3     0.00000    9.51821   31.06729   20.02653
     332      444        4     0.00000   10.42414   31.47591   20.46977
     333      444        4     0.00000    9.78591   30.45198   22.46753
     334      444        5     0.00000    9.16828   31.51036   18.81951
     335      444        5     0.00000    9.05093   29.87943   22.01933
     336      444        3     0.00000    7.62292   29.51595   20.08965
     337      444        4     0.00000    8.43002   29.23799   22.53490
     338      444        3     0.00000    6.81841   28.49914   20.76833
     339      444        3     0.00000    8.09131   30.96157   18.19827
     340      444        4     0.00000    7.85087   31.35950   17.21605
     341      444        4     0.00000    6.45724   29.57890   18.26351
     342      444        1     0.00000    5.30575   26.70903   21.60091
     343      444        2     0.00000    0.33160   22.21298   26.72899
     344      444        2     0.00000    1.39249   22.09420   24.85250
     345      444        3     0.00000    2.23280   23.99477   27.91190
     346      444        3     0.00000    3.22983   24.20859   25.72692
     347      444        3     0.00000    4.04768   25.18263   26.27228
     348      444        4     0.00000    4.79062   25.77656   25.62905
     349      444        4     0.00000    4.23767   24.23234   23.95042
     350      444        5     0.00000    4.04831   25.53899   27.57008
     351      444        5     0.00000    3.42033   23.84035   24.46032
     352      444        3     0.00000    2.24277   23.61466   26.57155
     353      444        4     0.00000    2.87864   23.06824   24.10999
     354      444        6     0.00000    1.28689   22.56934   26.04392
     355      444        3     0.00000    3.16742   24.93318   28.38989
     356      444        4     0.00000    3.19979   25.20639   29.43877
     357      444        4     0.00000    1.50051   23.51963   28.62321
     358      444        7     0.00000    5.91692   27.81849   27.24598
     359      444        7     0.00000    6.98388   28.19861   29.10545
     360      444        3     0.00000    7.32633   29.95664   25.89287
     361      444        3     0.00000    8.73735   30.12532   27.83957
     362      444        3     0.00000    9.52167   31.06729   27.11833
     363      444        4     0.00000   10.42760   31.47591   27.56157
     364      444        4     0.00000    9.78938   30.45198   29.55933
     365      444        5     0.00000    9.17175   31.51036   25.91131
     366      444        5     0.00000    9.05439   29.87943   29.11113
     367      444        3     0.00000    7.62639   29.51595   27.18145
     368      444        4     0.00000    8.43349   29.23799   29.62670
     369      444        3     0.00000    6.82188   28.49914   27.86013
     370      444        3     0.00000    8.09478   30.96157   25.29006
     371      444        4     0.00000    7.85433   31.35950   24.30785
     372      444        4     0.00000    6.46070   29.57890   25.35531
     373      444        1     0.00000   15.91336    2.95183    0.32551
     374      444        2     0.00000   10.93921   -1.54422    5.45359