Created on Tue Aug 25 11:51:32 2020 

         164 atoms
         184 bonds
         348 angles
         368 dihedrals
         168 impropers

           7 atom types
          11 bond types
          19 angle types
           6 dihedral types
           1 improper types
           0.000000  12.505600 xlo xhi
           0.000000  12.523400 ylo yhi
           0.000000  10.274279 zlo zhi
           0.000000  -0.227594   0.000000 xy xz yz

Masses

    1    58.693400000 # Ni4+2
    2    15.999400000 # O_R
    3    14.006700000 # N_R
    4    12.010700000 # C_R
    5     1.007940000 # H_
    6    15.999400000 # O_3
    7    12.010700000 # C_3

Bond Coeffs

    1      321.720028        1.793457  # Ni4+2 O_R
    2      328.673665        1.841585  # Ni4+2 N_R
    3      646.680887        1.311940  # O_R C_R
    4      663.718927        1.345073  # N_R C_R
    5      462.655054        1.379256  # C_R C_R
    6      357.440381        1.081418  # C_R H_
    7      572.510195        1.366311  # C_R O_3
    8      391.669513        1.458000  # C_R C_R
    9      539.248552        1.393845  # O_3 C_3
   10      349.795899        1.514000  # C_3 C_3
   11      331.069389        1.109401  # C_3 H_

Angle Coeffs

    1              cosine/periodic      322.980216               1               4 # O_R Ni4+2 O_R
    2              cosine/periodic      343.030950               1               4 # O_R Ni4+2 N_R
    3              cosine/periodic      364.965660               1               4 # N_R Ni4+2 N_R
    4              cosine/periodic      238.346347              -1               3 # C_R O_R Ni4+2
    5              cosine/periodic      177.809033              -1               3 # Ni4+2 N_R C_R
    6              cosine/periodic      240.001032              -1               3 # C_R N_R C_R
    7              cosine/periodic      114.578032              -1               3 # C_R C_R H_
    8              cosine/periodic      222.595017              -1               3 # C_R C_R C_R
    9              cosine/periodic      271.563462              -1               3 # C_R C_R O_3
   10              cosine/periodic      204.366560              -1               3 # C_R C_R C_R
   11              cosine/periodic      307.398705              -1               3 # N_R C_R C_R
   12              cosine/periodic      159.573934              -1               3 # N_R C_R H_
   13              cosine/periodic      263.511421              -1               3 # O_R C_R C_R
   14              cosine/periodic      374.272657              -1               3 # O_R C_R O_R
   15                      fourier      320.948910        0.300235        0.267331        0.266745 # C_R O_3 C_3
   16                      fourier      290.032745        0.343737        0.374972        0.281246 # O_3 C_3 C_3
   17                      fourier      165.777838        0.343737        0.374972        0.281246 # O_3 C_3 H_
   18                      fourier      117.318683        0.343737        0.374972        0.281246 # C_3 C_3 H_
   19                      fourier       75.498766        0.343737        0.374972        0.281246 # H_ C_3 H_

Dihedral Coeffs

    1        2.245703              -1               2 # Ni4+2 O_R C_R C_R
    2        1.497136              -1               2 # Ni4+2 N_R C_R C_R
    3        0.833333               1               2 # C_R C_R O_3 C_3
    4        0.555556              -1               2 # C_R C_R C_R O_R
    5        0.128665               1               2 # C_R O_3 C_3 C_3
    6        0.066219               1               3 # O_3 C_3 C_3 H_

Improper Coeffs

    1        2.000000        1.000000       -1.000000        0.000000               0 # Ni4+2 N_R C_R C_R

Pair Coeffs

    1        0.015000        2.524807 # Ni4+2 Ni4+2
    2        0.060000        3.118146 # O_R O_R
    3        0.069000        3.260689 # N_R N_R
    4        0.105000        3.430851 # C_R C_R
    5        0.044000        2.571134 # H_ H_
    6        0.060000        3.118146 # O_3 O_3
    7        0.105000        3.430851 # C_3 C_3

Atoms

       1      444        1     0.00000    2.89857    9.41116    8.59265
       2      444        1     0.00000    6.17525    3.10579    3.48481
       3      444        2     0.00000    1.44827    4.35425    3.93374
       4      444        2     0.00000    4.44160    8.15245    9.05464
       5      444        2     0.00000    4.63665    1.84729    3.87523
       6      444        2     0.00000    1.36499   10.67435    9.00295
       7      444        2     0.00000    5.80609    4.46033    4.96242
       8      444        2     0.00000    2.54244    8.03270   10.06753
       9      444        2     0.00000    0.25117    1.69264    4.94273
      10      444        2     0.00000    3.23722   10.80466   10.06262
      11      444        3     0.00000    3.69677   10.66058    7.24160
      12      444        3     0.00000    0.71256    1.86420    2.11704
      13      444        3     0.00000    2.17217    8.14409    7.25198
      14      444        3     0.00000    5.44023    4.39481    2.13747
      15      444        4     0.00000    3.48546   12.14832    5.36301
      16      444        4     0.00000    0.47488    0.38955    0.22920
      17      444        5     0.00000    2.86453   12.51808    4.55267
      18      444        4     0.00000    4.76073    0.14740    5.61481
      19      444        4     0.00000    1.74333   12.36991    0.47412
      20      444        4     0.00000    5.50345   12.15023    6.68209
      21      444        4     0.00000    2.49852    0.35508    1.54004
      22      444        5     0.00000    0.24768   12.50843    6.91993
      23      444        5     0.00000    3.49155   12.50668    1.77336
      24      444        4     0.00000    2.48363    6.63370    5.40822
      25      444        4     0.00000    5.72803    5.90364    0.28669
      26      444        4     0.00000    2.92756    7.68099    6.23068
      27      444        4     0.00000    6.18830    4.86756    1.11596
      28      444        5     0.00000    3.89994    8.14655    6.08890
      29      444        5     0.00000    0.91589    4.41889    0.97634
      30      444        4     0.00000    2.98256   11.13588    6.19748
      31      444        4     0.00000   -0.01036    1.40553    1.07106
      32      444        5     0.00000    1.99392   10.70905    6.04703
      33      444        5     0.00000    5.26093    1.85011    0.92351
      34      444        4     0.00000    4.93641   11.13810    7.47507
      35      444        4     0.00000    1.94823    1.37190    2.34060
      36      444        5     0.00000    5.48559   10.70967    8.30944
      37      444        5     0.00000    2.50886    1.79214    3.17267
      38      444        4     0.00000    0.94573    7.62654    7.47302
      39      444        4     0.00000    4.21083    4.90458    2.35686
      40      444        5     0.00000    0.36328    8.05184    8.28732
      41      444        5     0.00000    3.63605    4.47744    3.17528
      42      444        4     0.00000    0.43859    6.57577    6.69176
      43      444        4     0.00000    3.68763    5.94500    1.56944
      44      444        5     0.00000    2.69824    6.32683    1.80071
      45      444        4     0.00000    1.22745    6.06471    5.65205
      46      444        4     0.00000    4.46338    6.45777    0.52027
      47      444        4     0.00000    5.31260    1.24381    4.79419
      48      444        4     0.00000    2.05020   11.26755    9.92158
      49      444        4     0.00000    0.73548    4.94016    4.83586
      50      444        4     0.00000    3.73174    7.56629    9.95688
      51      444        1     0.00000    9.15137    9.41116    8.59265
      52      444        1     0.00000   12.42805    3.10579    3.48481
      53      444        2     0.00000    7.70109    4.35425    3.93374
      54      444        2     0.00000   10.69440    8.15245    9.05464
      55      444        2     0.00000   10.88945    1.84729    3.87523
      56      444        2     0.00000    7.61779   10.67435    9.00295
      57      444        2     0.00000   12.05889    4.46033    4.96242
      58      444        2     0.00000    8.79524    8.03270   10.06753
      59      444        2     0.00000    6.50397    1.69264    4.94273
      60      444        2     0.00000    9.49002   10.80466   10.06262
      61      444        3     0.00000    9.94957   10.66058    7.24160
      62      444        3     0.00000    6.96536    1.86420    2.11704
      63      444        3     0.00000    8.42499    8.14409    7.25198
      64      444        3     0.00000   11.69303    4.39481    2.13747
      65      444        4     0.00000    9.73826   12.14832    5.36301
      66      444        4     0.00000    6.72768    0.38955    0.22920
      67      444        4     0.00000   11.01353    0.14740    5.61481
      68      444        4     0.00000    7.99613   12.36991    0.47412
      69      444        4     0.00000   11.75625   12.15023    6.68209
      70      444        4     0.00000    8.75132    0.35508    1.54004
      71      444        5     0.00000    9.74435   12.50668    1.77336
      72      444        4     0.00000    8.73644    6.63370    5.40822
      73      444        4     0.00000   11.98084    5.90364    0.28669
      74      444        5     0.00000    9.38574    6.27291    4.61605
      75      444        4     0.00000    9.18036    7.68099    6.23068
      76      444        4     0.00000   12.44110    4.86756    1.11596
      77      444        5     0.00000   10.15274    8.14655    6.08890
      78      444        5     0.00000    7.16869    4.41889    0.97634
      79      444        4     0.00000    9.23536   11.13588    6.19748
      80      444        4     0.00000    6.24244    1.40553    1.07106
      81      444        5     0.00000    8.24672   10.70905    6.04703
      82      444        5     0.00000   11.51373    1.85011    0.92351
      83      444        4     0.00000   11.18921   11.13810    7.47507
      84      444        4     0.00000    8.20102    1.37190    2.34060
      85      444        5     0.00000   11.73839   10.70967    8.30944
      86      444        5     0.00000    8.76167    1.79214    3.17267
      87      444        4     0.00000    7.19853    7.62654    7.47302
      88      444        4     0.00000   10.46363    4.90458    2.35686
      89      444        5     0.00000    6.61608    8.05184    8.28732
      90      444        5     0.00000    9.88885    4.47744    3.17528
      91      444        4     0.00000    6.69139    6.57577    6.69176
      92      444        4     0.00000    9.94043    5.94500    1.56944
      93      444        5     0.00000   11.96054    6.17693    6.91975
      94      444        5     0.00000    8.95104    6.32683    1.80071
      95      444        4     0.00000    7.48025    6.06471    5.65205
      96      444        4     0.00000   10.71618    6.45777    0.52027
      97      444        4     0.00000   11.56540    1.24381    4.79419
      98      444        4     0.00000    8.30300   11.26755    9.92158
      99      444        4     0.00000    6.98827    4.94016    4.83586
     100      444        4     0.00000    9.98454    7.56629    9.95688
     101      444        6     0.00000    6.75756    0.10659    6.93440
     102      444        7     0.00000    7.59367   12.20727    7.94965
     103      444        7     0.00000    8.89700    0.46502    7.88949
     104      444        5     0.00000    7.81731   11.12445    7.83122
     105      444        5     0.00000    7.11274   12.38513    8.93636
     106      444        5     0.00000    9.39738    0.29583    6.91233
     107      444        5     0.00000    9.57351    0.12944    8.70360
     108      444        5     0.00000    8.69612    1.55057    8.01226
     109      444        6     0.00000   12.00890   12.44864    9.45370
     110      444        7     0.00000   10.74932    0.36846    9.09942
     111      444        7     0.00000   10.26786   12.12363    7.87856
     112      444        5     0.00000   10.78379    1.45208    8.85218
     113      444        5     0.00000   10.03731    0.19719    9.93621
     114      444        5     0.00000   10.96318   12.28652    7.02776
     115      444        5     0.00000    9.25535   12.47571    7.58892
     116      444        5     0.00000   10.22023   11.03755    8.10669
     117      444        6     0.00000    3.25279    6.16390    4.38036
     118      444        7     0.00000    4.50474    6.63203    4.03105
     119      444        7     0.00000    5.02266    5.84720    2.83596
     120      444        5     0.00000    5.20987    6.50066    4.88081
     121      444        5     0.00000    4.44474    7.70790    3.75643
     122      444        5     0.00000    5.09615    4.76876    3.09173
     123      444        5     0.00000    6.02919    6.21920    2.55042
     124      444        5     0.00000    4.33461    5.97031    1.97264
     125      444        6     0.00000    6.26720    6.37841    9.53103
     126      444        7     0.00000    7.52698    5.92650    9.18863
     127      444        7     0.00000    8.03704    6.71104    7.98996
     128      444        5     0.00000    8.22742    6.07381   10.03964
     129      444        5     0.00000    7.48368    4.84808    8.92091
     130      444        5     0.00000    8.09386    7.79210    8.23884
     131      444        5     0.00000    9.04984    6.35206    7.70995
     132      444        5     0.00000    7.35361    6.57216    7.12539
     133      444        6     0.00000    9.00482    0.10604    4.31313
     134      444        7     0.00000    7.73993   12.20702    3.95238
     135      444        7     0.00000    7.27409    0.46548    2.73412
     136      444        5     0.00000    7.02777   12.38449    4.78777
     137      444        5     0.00000    7.75900   11.12435    3.69945
     138      444        5     0.00000    7.24194    1.55091    2.96792
     139      444        5     0.00000    6.25740    0.13016    2.43929
     140      444        5     0.00000    7.96974    0.29672    1.88472
     141      444        6     0.00000    5.75610   12.44864    9.45369
     142      444        7     0.00000    4.49656    0.36851    9.09936
     143      444        7     0.00000    4.01508   12.12363    7.87855
     144      444        5     0.00000    3.78451    0.19733    9.93617
     145      444        5     0.00000    4.53108    1.45211    8.85208
     146      444        5     0.00000    3.96735   11.03759    8.10675
     147      444        5     0.00000    3.00259   12.47576    7.58888
     148      444        5     0.00000    4.71041   12.28644    7.02776
     149      444        6     0.00000    5.45360    6.04883    6.92652
     150      444        7     0.00000    4.57777    6.45729    7.91374
     151      444        7     0.00000    3.30983    5.62080    7.84246
     152      444        5     0.00000    5.04319    6.32074    8.91440
     153      444        5     0.00000    4.31196    7.52696    7.76661
     154      444        5     0.00000    3.55291    4.54752    7.99352
     155      444        5     0.00000    2.60163    5.94471    8.63403
     156      444        5     0.00000    2.82514    5.74805    6.85114
     157      444        6     0.00000    0.01441    6.37842    9.53104
     158      444        7     0.00000    1.27422    5.92656    9.18869
     159      444        7     0.00000    1.78426    6.71106    7.98999
     160      444        5     0.00000    1.23099    4.84812    8.92101
     161      444        5     0.00000    1.97464    6.07394   10.03970
     162      444        5     0.00000    1.10087    6.57209    7.12541
     163      444        5     0.00000    2.79709    6.35212    7.71001
     164      444        5     0.00000    1.84101    7.79213    8.23881

Bonds

       1        1        1        4
       2        1        1        6
       3        1        1        8
       4        1        1       10
       5        2        1       11
       6        2        1       13
       7        1        2        5
       8        1        2        7
       9        2        2       14
      10        1        2       53
      11        1        2       59
      12        2        2       62
      13        3        3       49
      14        1        3       52
      15        3        4       50
      16        3        5       47
      17        3        6       48
      18        3        7       99
      19        3        8       50
      20        1        9       52
      21        3        9       97
      22        3       10       48
      23        4       11       30
      24        4       11       34
      25        4       12       31
      26        4       12       35
      27        2       12       52
      28        4       13       26
      29        4       13       38
      30        4       14       27
      31        4       14       39
      32        6       15       17
      33        5       15       18
      34        5       15       30
      35        5       16       19
      36        5       16       31
      37        7       16      109
      38        5       18       20
      39        8       18       47
      40        5       19       21
      41        8       19       48
      42        5       20       34
      43        7       20      101
      44        6       21       23
      45        5       21       35
      46        6       22       69
      47        5       24       26
      48        5       24       45
      49        7       24      117
      50        5       25       27
      51        5       25       46
      52        7       25      125
      53        6       26       28
      54        6       27       78
      55        6       29       76
      56        6       30       32
      57        6       31       82
      58        6       33       80
      59        6       34       36
      60        6       35       37
      61        6       38       40
      62        5       38       42
      63        6       39       41
      64        5       39       43
      65        5       42       45
      66        6       42       93
      67        6       43       44
      68        5       43       46
      69        8       45       49
      70        8       46       50
      71        3       47       59
      72        3       49       57
      73        1       51       54
      74        1       51       56
      75        1       51       58
      76        1       51       60
      77        2       51       61
      78        2       51       63
      79        1       52       55
      80        1       52       57
      81        2       52       64
      82        3       53       99
      83        3       54      100
      84        3       55       97
      85        3       56       98
      86        3       58      100
      87        3       60       98
      88        4       61       79
      89        4       61       83
      90        4       62       80
      91        4       62       84
      92        4       63       75
      93        4       63       87
      94        4       64       76
      95        4       64       88
      96        5       65       67
      97        5       65       79
      98        7       65      133
      99        5       66       68
     100        5       66       80
     101        7       66      141
     102        5       67       69
     103        8       67       97
     104        5       68       70
     105        8       68       98
     106        5       69       83
     107        6       70       71
     108        5       70       84
     109        6       72       74
     110        5       72       75
     111        5       72       95
     112        5       73       76
     113        5       73       96
     114        7       73      157
     115        6       75       77
     116        6       79       81
     117        6       83       85
     118        6       84       86
     119        6       87       89
     120        5       87       91
     121        6       88       90
     122        5       88       92
     123        5       91       95
     124        7       91      149
     125        6       92       94
     126        5       92       96
     127        8       95       99
     128        8       96      100
     129        9      101      102
     130       10      102      103
     131       11      102      104
     132       11      102      105
     133       11      103      106
     134       11      103      107
     135       11      103      108
     136        9      109      110
     137       10      110      111
     138       11      110      112
     139       11      110      113
     140       11      111      114
     141       11      111      115
     142       11      111      116
     143        9      117      118
     144       10      118      119
     145       11      118      120
     146       11      118      121
     147       11      119      122
     148       11      119      123
     149       11      119      124
     150        9      125      126
     151       10      126      127
     152       11      126      128
     153       11      126      129
     154       11      127      130
     155       11      127      131
     156       11      127      132
     157        9      133      134
     158       10      134      135
     159       11      134      136
     160       11      134      137
     161       11      135      138
     162       11      135      139
     163       11      135      140
     164        9      141      142
     165       10      142      143
     166       11      142      144
     167       11      142      145
     168       11      143      146
     169       11      143      147
     170       11      143      148
     171        9      149      150
     172       10      150      151
     173       11      150      152
     174       11      150      153
     175       11      151      154
     176       11      151      155
     177       11      151      156
     178        9      157      158
     179       10      158      159
     180       11      158      160
     181       11      158      161
     182       11      159      162
     183       11      159      163
     184       11      159      164

Angles

       1        1        4        1        6
       2        1        4        1        8
       3        1        4        1       10
       4        2        4        1       11
       5        2        4        1       13
       6        1        6        1        8
       7        1        6        1       10
       8        2        6        1       11
       9        2        6        1       13
      10        1        8        1       10
      11        2        8        1       11
      12        2        8        1       13
      13        2       10        1       11
      14        2       10        1       13
      15        3       11        1       13
      16        2       14        2        5
      17        2       14        2        7
      18        2       14        2       53
      19        2       14        2       59
      20        3       14        2       62
      21        1        5        2        7
      22        1        5        2       53
      23        1        5        2       59
      24        2        5        2       62
      25        1        7        2       53
      26        1        7        2       59
      27        2        7        2       62
      28        1       53        2       59
      29        2       53        2       62
      30        2       59        2       62
      31        4       49        3       52
      32        4        1        4       50
      33        4        2        5       47
      34        4        1        6       48
      35        4        2        7       99
      36        4        1        8       50
      37        4       52        9       97
      38        4        1       10       48
      39        5        1       11       30
      40        5        1       11       34
      41        6       30       11       34
      42        6       31       12       35
      43        5       31       12       52
      44        5       35       12       52
      45        5        1       13       26
      46        5        1       13       38
      47        6       26       13       38
      48        5        2       14       27
      49        5        2       14       39
      50        6       27       14       39
      51        7       18       15       17
      52        8       18       15       30
      53        7       17       15       30
      54        8       19       16       31
      55        9       19       16      109
      56        9       31       16      109
      57        8       15       18       20
      58       10       15       18       47
      59       10       20       18       47
      60        8       16       19       21
      61       10       16       19       48
      62       10       21       19       48
      63        8       18       20       34
      64        9       18       20      101
      65        9       34       20      101
      66        8       19       21       35
      67        7       19       21       23
      68        7       35       21       23
      69        8       26       24       45
      70        9       26       24      117
      71        9       45       24      117
      72        8       27       25       46
      73        9       27       25      125
      74        9       46       25      125
      75       11       13       26       24
      76       12       13       26       28
      77        7       24       26       28
      78       11       14       27       25
      79       12       14       27       78
      80        7       25       27       78
      81       11       11       30       15
      82       12       11       30       32
      83        7       15       30       32
      84       11       12       31       16
      85       12       12       31       82
      86        7       16       31       82
      87       11       20       34       11
      88        7       20       34       36
      89       12       11       34       36
      90       11       12       35       21
      91       12       12       35       37
      92        7       21       35       37
      93       11       13       38       42
      94       12       13       38       40
      95        7       42       38       40
      96       11       14       39       43
      97       12       14       39       41
      98        7       43       39       41
      99        8       38       42       45
     100        7       38       42       93
     101        7       45       42       93
     102        8       39       43       46
     103        7       39       43       44
     104        7       46       43       44
     105        8       24       45       42
     106       10       24       45       49
     107       10       42       45       49
     108        8       25       46       43
     109       10       25       46       50
     110       10       43       46       50
     111       13        5       47       18
     112       14        5       47       59
     113       13       18       47       59
     114       13       10       48       19
     115       14       10       48        6
     116       13       19       48        6
     117       13        3       49       45
     118       14        3       49       57
     119       13       45       49       57
     120       13        8       50       46
     121       14        8       50        4
     122       13       46       50        4
     123        1       54       51       56
     124        1       54       51       58
     125        1       54       51       60
     126        2       54       51       61
     127        2       54       51       63
     128        1       56       51       58
     129        1       56       51       60
     130        2       56       51       61
     131        2       56       51       63
     132        1       58       51       60
     133        2       58       51       61
     134        2       58       51       63
     135        2       60       51       61
     136        2       60       51       63
     137        3       61       51       63
     138        2        9       52       12
     139        1        9       52       55
     140        1        9       52        3
     141        1        9       52       57
     142        2        9       52       64
     143        2       12       52       55
     144        2       12       52        3
     145        2       12       52       57
     146        3       12       52       64
     147        1       55       52        3
     148        1       55       52       57
     149        2       55       52       64
     150        1        3       52       57
     151        2        3       52       64
     152        2       57       52       64
     153        4        2       53       99
     154        4       51       54      100
     155        4       52       55       97
     156        4       51       56       98
     157        4       49       57       52
     158        4       51       58      100
     159        4        2       59       47
     160        4       51       60       98
     161        5       51       61       79
     162        5       51       61       83
     163        6       79       61       83
     164        5        2       62       84
     165        5        2       62       80
     166        6       84       62       80