ITEM: TIMESTEP
0
ITEM: NUMBER OF ATOMS
164
ITEM: BOX BOUNDS xy xz yz pp pp pp
-2.4425875324595372e-01 1.3298148492053500e+01 0.0000000000000000e+00
0.0000000000000000e+00 1.0593633331512200e+01 -2.4425875324595372e-01
0.0000000000000000e+00 1.1026576179693199e+01 0.0000000000000000e+00
ITEM: ATOMS id type x y z
1 1 2.67883 9.13174 8.97194
2 1 6.16786 3.55719 3.30408
3 2 0.885621 4.64835 3.81469
4 2 4.15688 8.12065 9.03493
5 2 4.68233 2.56845 3.42442
6 2 1.21692 10.1143 9.22943
7 2 5.6799 4.7045 4.51064
8 2 2.25155 7.89456 10.1617
9 2 13.183 2.52346 5.02655
10 2 3.14736 10.1894 10.3185
11 3 3.3763 10.3906 7.66824
12 3 0.220709 2.34437 2.43929
13 3 1.91524 8.06696 7.54333
14 3 5.47787 4.75716 1.94581
15 4 3.28327 0.752641 5.43658
16 4 0.0167613 0.932818 0.486559
17 5 2.76439 0.792403 4.49571
18 4 4.61924 1.18125 5.53226
19 4 1.41902 0.707012 0.458904
20 4 5.25559 1.02336 6.76183
21 4 2.17135 1.23752 1.52161
22 5 13.0713 0.73435 6.95057
23 5 3.23624 1.07124 1.56403
24 4 1.95329 7.09009 5.31466
25 4 5.80335 6.36553 0.199712
26 4 2.56636 7.84861 6.35555
27 4 6.20381 5.80279 1.43688
28 5 3.55375 8.25954 6.20276
29 5 0.526099 4.53003 1.11767
30 4 2.64288 0.174305 6.56627
31 4 12.7369 1.64863 1.5644
32 5 1.63176 10.4253 6.46229
33 5 5.46784 0.832333 2.08452
34 4 4.71529 0.102573 7.6877
35 4 1.56342 2.09471 2.47091
36 5 5.36741 10.2093 8.38837
37 5 2.16639 2.55801 3.23172
38 4 0.582168 7.76667 7.61737
39 4 4.13063 4.74511 1.67869
40 5 0.0331034 8.02012 8.50836
41 5 3.4631 4.17684 2.29413
42 4 -0.0439527 6.97213 6.63664
43 4 3.57278 5.62026 0.726362
44 5 2.50252 5.7302 0.675291
45 4 0.676972 6.52812 5.52338
46 4 4.15578 6.41696 10.9502
47 4 5.3283 1.90766 4.40631
48 4 1.87969 0.0780512 10.268
49 4 0.141324 5.38162 4.67714
50 4 3.5019 7.40443 9.97773
51 1 9.34787 8.71517 8.94691
52 1 12.7453 3.59909 3.68574
53 2 7.6394 4.53651 3.51105
54 2 10.8162 7.73088 9.14575
55 2 11.296 2.59144 3.82676
56 2 7.86676 9.6975 9.04311
57 2 12.2128 4.83352 4.84899
58 2 8.87244 7.57695 10.2125
59 2 6.57228 2.40755 4.54629
60 2 9.75467 9.90308 10.2137
61 3 10.1057 9.85544 7.59608
62 3 6.94335 2.37034 1.9847
63 3 8.67762 7.53339 7.59522
64 3 12.075 4.66655 2.25228
65 4 10.1112 0.303394 5.40602
66 4 6.67814 0.66644 0.342257
67 4 11.3688 0.879974 5.67586
68 4 7.80296 0.764671 10.9697
69 4 12.0606 0.419639 6.78586
70 4 8.80212 1.77283 0.550928
71 5 9.83643 1.89947 0.299019
72 4 8.88842 6.44119 5.45592
73 4 12.2621 5.59177 0.0143075
74 5 9.45719 6.32922 4.55414
75 4 9.46145 7.11668 6.55243
76 4 12.8225 4.9094 1.14272
77 5 10.4631 7.48924 6.46382
78 5 7.22622 5.94277 1.73573
79 4 9.49553 10.0754 6.38947
80 4 6.36767 1.17941 1.61452
81 5 8.53886 9.62123 6.17863
82 5 11.6749 1.81886 1.55955
83 4 11.423 10.1899 7.72647
84 4 8.19872 2.63844 1.48651
85 5 11.9759 9.83815 8.57531
86 5 8.73186 3.51879 1.78346
87 4 7.33398 7.26285 7.56288
88 4 10.8339 5.213 2.35989
89 5 6.67701 7.71382 8.28449
90 5 10.1898 4.89764 3.15882
91 4 6.81754 6.32044 6.65823
92 4 10.3731 6.14742 1.42143
93 5 12.306 6.51945 6.86824
94 5 9.42863 6.64225 1.58951
95 4 7.54382 6.04009 5.50491
96 4 11.0571 6.32515 0.210287
97 4 11.9568 1.97636 4.8249
98 4 8.48878 10.3675 10.0327
99 4 6.92372 5.21336 4.41992
100 4 10.1352 7.08472 10.1104
101 6 6.11333 2.01902 7.19753
102 7 7.4499 1.63256 7.00205
103 7 8.33606 2.83603 6.68383
104 5 7.54258 0.9321 6.1549
105 5 7.8213 1.18621 7.93082
106 5 8.65238 2.86044 5.62211
107 5 9.26345 2.78829 7.26665
108 5 7.81767 3.77125 6.92633
109 6 12.3318 0.801879 10.3655
110 7 12.4646 2.00411 9.63253
111 7 11.1189 2.50862 9.1483
112 5 -0.15887 1.82347 8.78549
113 5 12.9233 2.83277 10.1991
114 5 11.2602 3.06134 8.19852
115 5 10.6911 3.20878 9.89043
116 5 10.4008 1.68321 8.99523
117 6 2.63268 6.86273 4.13398
118 7 2.46414 7.964 3.25752
119 7 3.82478 8.57578 2.94968
120 5 1.78526 8.77434 3.62623
121 5 2.02067 7.59033 2.31096
122 5 4.54072 7.78697 2.64485
123 5 4.22568 9.08776 3.84842
124 5 3.73138 9.31027 2.12414
125 6 6.47547 6.31253 10.1907
126 7 6.75705 4.94092 9.91662
127 7 8.19166 4.65478 9.52661
128 5 6.67091 4.27889 10.7849
129 5 6.04403 4.56856 9.18046
130 5 8.84147 4.80265 10.4026
131 5 8.27663 3.58004 9.27845
132 5 8.54493 5.23851 8.66774
133 6 9.45945 0.565356 4.21732
134 7 9.74124 10.1372 3.2768
135 7 8.49123 9.29865 3.0342
136 5 10.5941 9.46322 3.54321
137 5 10.0301 0.028093 2.32319
138 5 7.57967 9.92264 3.10527
139 5 8.41485 8.50318 3.79677
140 5 8.53183 8.83373 2.02737
141 6 5.43141 0.767294 10.4165
142 7 5.20735 2.15205 10.1559
143 7 3.80791 2.53553 9.70724
144 5 5.5233 2.78421 0.0261968
145 5 5.95589 2.47442 9.43059
146 5 3.08336 2.36001 10.5098
147 5 3.78736 3.63376 9.56959
148 5 3.4841 2.06484 8.77108
149 6 5.92715 5.3743 7.11251
150 7 4.60987 5.71449 6.78724
151 7 3.79711 4.44745 6.5768
152 5 4.16873 6.24562 7.63592
153 5 4.55061 6.31803 5.85695
154 5 4.43381 3.63927 6.22026
155 5 3.37738 4.10292 7.52326
156 5 2.98345 4.6008 5.84139
157 6 12.34 5.17292 9.75357
158 7 0.438934 5.15315 9.5229
159 7 0.74147 4.49649 8.18406
160 5 1.0115 4.54947 10.2443
161 5 0.835816 6.16603 9.56629
162 5 13.1278 4.35852 7.56932
163 5 1.22713 3.50943 8.31949
164 5 1.45995 5.12594 7.64602
