164
Atoms. Timestep: 0
Ni 2.89857 9.41116 8.59265
Ni 6.17525 3.10579 3.48481
O 1.44827 4.35425 3.93374
O 4.4416 8.15245 9.05464
O 4.63665 1.84729 3.87523
O 1.36499 10.6744 9.00295
O 5.80609 4.46033 4.96242
O 2.54244 8.0327 10.0675
O 0.25117 1.69264 4.94273
O 3.23722 10.8047 10.0626
N 3.69677 10.6606 7.2416
N 0.71256 1.8642 2.11704
N 2.17217 8.14409 7.25198
N 5.44023 4.39481 2.13747
C 3.48546 12.1483 5.36301
C 0.47488 0.38955 0.2292
H 2.86453 12.5181 4.55267
C 4.76073 0.1474 5.61481
C 1.74333 12.3699 0.47412
C 5.50345 12.1502 6.68209
C 2.49852 0.35508 1.54004
H 0.24768 12.5084 6.91993
H 3.49155 12.5067 1.77336
C 2.48363 6.6337 5.40822
C 5.72803 5.90364 0.28669
C 2.92756 7.68099 6.23068
C 6.1883 4.86756 1.11596
H 3.89994 8.14655 6.0889
H 0.91589 4.41889 0.97634
C 2.98256 11.1359 6.19748
C -0.01036 1.40553 1.07106
H 1.99392 10.709 6.04703
H 5.26093 1.85011 0.92351
C 4.93641 11.1381 7.47507
C 1.94823 1.3719 2.3406
H 5.48559 10.7097 8.30944
H 2.50886 1.79214 3.17267
C 0.94573 7.62654 7.47302
C 4.21083 4.90458 2.35686
H 0.36328 8.05184 8.28732
H 3.63605 4.47744 3.17528
C 0.43859 6.57577 6.69176
C 3.68763 5.945 1.56944
H 2.69824 6.32683 1.80071
C 1.22745 6.06471 5.65205
C 4.46338 6.45777 0.52027
C 5.3126 1.24381 4.79419
C 2.0502 11.2675 9.92158
C 0.73548 4.94016 4.83586
C 3.73174 7.56629 9.95688
Ni 9.15137 9.41116 8.59265
Ni 12.4281 3.10579 3.48481
O 7.70109 4.35425 3.93374
O 10.6944 8.15245 9.05464
O 10.8895 1.84729 3.87523
O 7.61779 10.6744 9.00295
O 12.0589 4.46033 4.96242
O 8.79524 8.0327 10.0675
O 6.50397 1.69264 4.94273
O 9.49002 10.8047 10.0626
N 9.94957 10.6606 7.2416
N 6.96536 1.8642 2.11704
N 8.42499 8.14409 7.25198
N 11.693 4.39481 2.13747
C 9.73826 12.1483 5.36301
C 6.72768 0.38955 0.2292
C 11.0135 0.1474 5.61481
C 7.99613 12.3699 0.47412
C 11.7562 12.1502 6.68209
C 8.75132 0.35508 1.54004
H 9.74435 12.5067 1.77336
C 8.73644 6.6337 5.40822
C 11.9808 5.90364 0.28669
H 9.38574 6.27291 4.61605
C 9.18036 7.68099 6.23068
C 12.4411 4.86756 1.11596
H 10.1527 8.14655 6.0889
H 7.16869 4.41889 0.97634
C 9.23536 11.1359 6.19748
C 6.24244 1.40553 1.07106
H 8.24672 10.709 6.04703
H 11.5137 1.85011 0.92351
C 11.1892 11.1381 7.47507
C 8.20102 1.3719 2.3406
H 11.7384 10.7097 8.30944
H 8.76167 1.79214 3.17267
C 7.19853 7.62654 7.47302
C 10.4636 4.90458 2.35686
H 6.61608 8.05184 8.28732
H 9.88885 4.47744 3.17528
C 6.69139 6.57577 6.69176
C 9.94043 5.945 1.56944
H 11.9605 6.17693 6.91975
H 8.95104 6.32683 1.80071
C 7.48025 6.06471 5.65205
C 10.7162 6.45777 0.52027
C 11.5654 1.24381 4.79419
C 8.303 11.2675 9.92158
C 6.98827 4.94016 4.83586
C 9.98454 7.56629 9.95688
O 6.75756 0.10659 6.9344
C 7.59367 12.2073 7.94965
C 8.897 0.46502 7.88949
H 7.81731 11.1244 7.83122
H 7.11274 12.3851 8.93636
H 9.39738 0.29583 6.91233
H 9.57351 0.12944 8.7036
H 8.69612 1.55057 8.01226
O 12.0089 12.4486 9.4537
C 10.7493 0.36846 9.09942
C 10.2679 12.1236 7.87856
H 10.7838 1.45208 8.85218
H 10.0373 0.19719 9.93621
H 10.9632 12.2865 7.02776
H 9.25535 12.4757 7.58892
H 10.2202 11.0375 8.10669
O 3.25279 6.1639 4.38036
C 4.50474 6.63203 4.03105
C 5.02266 5.8472 2.83596
H 5.20987 6.50066 4.88081
H 4.44474 7.7079 3.75643
H 5.09615 4.76876 3.09173
H 6.02919 6.2192 2.55042
H 4.33461 5.97031 1.97264
O 6.2672 6.37841 9.53103
C 7.52698 5.9265 9.18863
C 8.03704 6.71104 7.98996
H 8.22742 6.07381 10.0396
H 7.48368 4.84808 8.92091
H 8.09386 7.7921 8.23884
H 9.04984 6.35206 7.70995
H 7.35361 6.57216 7.12539
O 9.00482 0.10604 4.31313
C 7.73993 12.207 3.95238
C 7.27409 0.46548 2.73412
H 7.02777 12.3845 4.78777
H 7.759 11.1243 3.69945
H 7.24194 1.55091 2.96792
H 6.2574 0.13016 2.43929
H 7.96974 0.29672 1.88472
O 5.7561 12.4486 9.45369
C 4.49656 0.36851 9.09936
C 4.01508 12.1236 7.87855
H 3.78451 0.19733 9.93617
H 4.53108 1.45211 8.85208
H 3.96735 11.0376 8.10675
H 3.00259 12.4758 7.58888
H 4.71041 12.2864 7.02776
O 5.4536 6.04883 6.92652
C 4.57777 6.45729 7.91374
C 3.30983 5.6208 7.84246
H 5.04319 6.32074 8.9144
H 4.31196 7.52696 7.76661
H 3.55291 4.54752 7.99352
H 2.60163 5.94471 8.63403
H 2.82514 5.74805 6.85114
O 0.01441 6.37842 9.53104
C 1.27422 5.92656 9.18869
C 1.78426 6.71106 7.98999
H 1.23099 4.84812 8.92101
H 1.97464 6.07394 10.0397
H 1.10087 6.57209 7.12541
H 2.79709 6.35212 7.71001
H 1.84101 7.79213 8.23881
164
Atoms. Timestep: 599
Ni 2.6134 9.06763 8.96955
Ni 6.18769 3.5321 3.3428
O 0.896803 4.56896 3.82256
O 4.08617 8.07505 9.0974
O 4.69569 2.5607 3.50587
O 1.12018 10.0329 9.16495
O 5.77473 4.67122 4.58168
O 2.15481 7.82865 10.1596
O -0.0926527 2.37487 4.93953
O 3.02396 10.1339 10.3246
N 3.36542 10.3262 7.63801
N 0.166721 2.34756 2.34234
N 1.89845 7.98524 7.55488
N 5.45838 4.73587 2.02771
C 3.30341 11.4008 5.44222
C -0.0919097 1.01125 0.337186
H 2.77504 11.5501 4.51387
C 4.64565 1.08977 5.5623
C 1.29426 11.4108 0.350426
C 5.28219 11.5742 6.77541
C 2.06056 1.16912 1.4138
H -0.172547 11.3392 6.89784
H 3.10044 11.6436 1.48345
C 1.95799 7.04616 5.31843
C 5.69989 6.10062 0.0808445
C 2.56375 7.77518 6.37842
C 6.21449 5.60063 1.30425
H 3.54754 8.20276 6.23634
H 0.580752 4.80559 1.29103
C 2.65215 10.7309 6.52825
C 12.6854 1.72417 1.43802
H 1.65483 10.3638 6.37655
H 5.22248 1.07146 1.81498
C 4.72167 10.5935 7.64734
C 1.50073 2.05068 2.36112
H 5.36577 10.0728 8.33516
H 2.12937 2.49808 3.11006
C 0.569579 7.66171 7.63094
C 4.08819 4.86127 1.94564
H 0.0407179 7.83011 8.55763
H 3.46436 4.44427 2.71851
C -0.0679962 6.94195 6.60488
C 3.49811 5.70165 0.973303
H 2.4588 5.96575 1.071
C 0.676262 6.47454 5.514
C 4.29254 6.32221 -0.00426222
C 5.35381 1.88036 4.46011
C 1.73259 10.5605 10.2409
C 0.180501 5.25429 4.7419
C 3.41128 7.33809 10.0003
Ni 9.40402 8.8262 8.96251
Ni 12.7727 3.52917 3.67446
O 7.68629 4.51403 3.49172
O 10.8996 7.90589 9.23892
O 11.3134 2.50265 3.80485
O 7.87516 9.7519 8.98649
O 12.2813 4.70224 4.9147
O 8.92119 7.7015 10.2346
O 6.6216 2.36043 4.57154
O 9.70607 10.0647 10.2181
N 10.1697 9.96183 7.62835
N 6.90174 2.35768 1.97367
N 8.82819 7.58131 7.59097
N 12.0823 4.68305 2.31268
C 10.159 10.8663 5.37926
C 6.54894 0.846372 0.150784
C 11.4554 11.4072 5.57523
C 7.94838 0.858773 -0.194703
C 12.1652 10.9608 6.6966
C 8.74996 1.75316 0.519594
H 9.78303 1.87681 0.248223
C 9.0054 6.52942 5.39726
C 12.3004 5.74789 0.14644
H 9.53489 6.45972 4.46643
C 9.5845 7.25934 6.48121
C -0.463719 5.05355 1.26411
H 10.5484 7.70832 6.34039
H 7.26782 5.70905 1.51063
C 9.50607 10.2288 6.47546
C 6.18883 1.32965 1.4301
H 8.50073 9.8477 6.36171
H 11.6323 1.95526 1.42964
C 11.5118 10.2143 7.69265
C 8.22274 2.48077 1.60941
H 12.0646 9.87945 8.54927
H 8.90041 3.06385 2.20347
C 7.51294 7.22972 7.59564
C 10.8427 5.22848 2.44268
H 6.8564 7.62715 8.34957
H 10.191 4.86318 3.21528
C 7.00912 6.30822 6.67143
C 10.4147 6.25566 1.57121
H 12.2814 6.53342 6.79357
H 9.48055 6.76139 1.76244
C 7.68588 6.05731 5.49428
C 11.1001 6.46927 0.356031
C 12.0099 1.82368 4.74517
C 8.41933 10.4649 9.9908
C 7.0167 5.19475 4.43165
C 10.206 7.26598 10.1965
O 6.09378 1.83612 7.29375
C 7.4472 1.56393 7.05677
C 8.25047 2.8452 6.93776
H 7.58872 0.997991 6.12283
H 7.84173 1.03403 7.91189
H 9.15964 2.6829 6.31997
H 8.56465 3.20214 7.92503
H 7.65139 3.62034 6.47106
O 12.2403 0.90821 10.1479
C 12.2836 2.17232 9.5076
C 11.0851 2.46456 8.62153
H -0.12773 2.19325 8.8925
H 12.2434 2.99765 10.2398
H 11.3927 2.51137 7.56289
H 10.6963 3.4809 8.8368
H 10.2872 1.71627 8.77648
O 2.64677 6.86095 4.13586
C 2.78782 8.09933 3.44406
C 4.22729 8.24308 2.94042
H 2.54983 9.01332 4.04191
H 2.08584 8.09509 2.58302
H 4.80101 7.31537 3.13154
H 4.75986 9.0715 3.45611
H 4.2309 8.45037 1.85098
O 6.22775 6.00319 9.89962
C 6.88381 4.73076 9.81376
C 8.36305 4.86227 9.96349
H 6.58177 3.98703 10.5684
H 6.72574 4.27482 8.83818
H 8.78032 5.36114 -0.0574747
H 8.85784 3.88557 10.0343
H 8.77918 5.38634 9.09126
O 9.56725 10.8749 4.12483
C 9.32099 9.53486 3.70816
C 8.60439 9.51532 2.37518
H 8.62132 9.02427 4.39641
H 10.2654 8.95072 3.63669
H 8.13545 10.4934 2.2234
H 7.79301 8.7557 2.36017
H 9.32192 9.29578 1.56522
O 5.31712 0.855871 10.1342
C 4.81993 2.19093 9.94769
C 3.438 2.29866 9.32205
H 4.99173 2.79158 -0.0893705
H 5.475 2.698 9.25848
H 3.00485 1.3704 9.08696
H 2.74026 2.8596 9.97167
H 3.46984 2.69219 8.30836
O 6.07871 5.41017 7.07332
C 4.82174 5.89721 6.77462
C 3.87462 4.75175 6.93742
H 4.5904 6.64895 7.51119
H 4.73974 6.33841 5.75255
H 4.36652 3.79241 6.67821
H 3.57583 4.77146 8.00371
H 2.99635 4.85431 6.27757
O 12.4077 5.39117 9.8071
C 0.440655 4.99774 9.68965
C 0.760582 4.582 8.26374
H 0.692919 4.11537 10.3125
H 1.09615 5.81175 10.0086
H -0.157207 4.49221 7.65404
H 1.28673 3.61545 8.22776
H 1.46747 5.29989 7.84456
164
Atoms. Timestep: 5952
Ni 2.66849 9.15788 8.956
Ni 6.16646 3.52689 3.32398
O 0.87147 4.61338 3.83251
O 4.14409 8.14327 9.02405
O 4.67673 2.54151 3.44935
O 1.20757 10.1469 9.20816
O 5.68618 4.67914 4.53192
O 2.23846 7.92104 10.153
O -0.12571 2.47677 5.0428
O 3.13759 10.2251 10.3009
N 3.37376 10.4128 7.64704
N 0.207972 2.30928 2.44828
N 1.90096 8.0852 7.52944
N 5.47322 4.73072 1.96242
C 3.28327 11.4134 5.43287
C 0.0079824 11.6272 0.495028
H 2.76588 11.4747 4.49251
C 4.61468 1.12297 5.54319
C 1.40767 11.3803 0.480626
C 5.25693 0.925392 6.76499
C 2.15867 1.18483 1.54115
H -0.225277 11.3624 6.94292
H 3.22209 1.009 1.59219
C 1.94215 7.07112 5.31512
C 5.78981 6.36523 0.238017
C 2.5529 7.85019 6.34513
C 6.18756 5.79524 1.47406
H 3.5385 8.26289 6.18601
H 0.507959 4.53075 1.14661
C 2.64456 10.7961 6.54461
C 12.7551 1.61949 1.56745
H 1.63581 10.4471 6.42977
H 5.46759 11.5244 2.11999
C 4.71358 10.7179 7.67233
C 1.55047 2.0531 2.48379
H 5.36036 10.235 8.38149
H 2.15331 2.51577 3.24549
C 0.567908 7.78127 7.60769
C 4.12819 4.7026 1.67633
H 0.0193826 8.04125 8.49742
H 3.46399 4.09772 2.2583
C -0.0603571 6.97829 6.6319
C 3.56413 5.59882 0.743367
H 2.49344 5.69727 0.687038
C 0.663157 6.51283 5.52772
C 4.38684 6.42168 -0.0373198
C 5.32168 1.88007 4.43093
C 1.87011 10.7124 10.2428
C 0.130787 5.34452 4.70004
C 3.49002 7.42897 9.96873
Ni 9.35931 8.75316 8.93535
Ni 12.761 3.56064 3.70395
O 7.64387 4.50367 3.5267
O 10.8264 7.76214 9.13619
O 11.3133 2.54777 3.84694
O 7.87841 9.74039 9.03175
O 12.232 4.79382 4.87488
O 8.87908 7.60542 10.197
O 6.56807 2.37649 4.56966
O 9.76151 9.94063 10.211
N 10.1257 9.9013 7.58865
N 6.93927 2.33124 2.00207
N 8.6882 7.57444 7.57441
N 12.0814 4.63523 2.27416
C 10.1295 10.9751 5.41145
C 6.67952 11.339 0.378981
C 11.3881 11.5504 5.68609
C 8.05137 11.4237 -0.0163821
C 12.0844 11.0665 6.78537
C 8.801 1.71746 0.569258
H 9.83148 1.85351 0.302905
C 8.8932 6.46055 5.44141
C 12.2651 5.58546 0.0438188
H 9.45892 6.33677 4.5386
C 9.46753 7.15945 6.52659
C 12.8291 4.89663 1.16926
H 10.4687 7.53432 6.431
H 7.20488 5.94707 1.7837
C 9.51413 10.1389 6.38578
C 6.36885 1.13196 1.64789
H 8.55805 9.68587 6.16961
H 11.6943 1.80041 1.55361
C 11.4444 10.2339 7.72107
C 8.19183 2.59906 1.49269
H 11.9979 9.87254 8.56633
H 8.71656 3.49249 1.76799
C 7.34564 7.29753 7.54902
C 10.8353 5.17205 2.38366
H 6.6924 7.74207 8.27873
H 10.1945 4.85067 3.18385
C 6.82859 6.34142 6.65618
C 10.3677 6.1129 1.45113
H 12.3108 6.54118 6.8607
H 9.41731 6.59525 1.62033
C 7.55301 6.04206 5.50556
C 11.0561 6.31515 0.245147
C 11.9748 1.92826 4.84288
C 8.49596 10.4097 10.0256
C 6.93224 5.18491 4.4368
C 10.1411 7.10722 10.0933
O 6.11661 1.90682 7.22532
C 7.45474 1.54375 6.99648
C 8.31202 2.77193 6.68755
H 7.54442 11.5915 6.13551
H 7.85172 1.08522 7.90865
H 8.68812 2.76778 5.64442
H 9.20275 2.78863 7.32534
H 7.7418 3.6953 6.8598
O 12.3615 11.4962 10.3074
C 12.4889 1.9685 9.57962
C 11.1403 2.45737 9.08605
H -0.155385 1.79625 8.73687
H -0.395928 2.80289 10.1524
H 11.2779 2.99044 8.12404
H 10.7059 3.16923 9.81456
H 10.4275 1.62335 8.94998
O 2.61416 6.84589 4.12981
C 2.42069 7.94005 3.24899
C 3.764 8.59344 2.95033
H 1.71292 8.72937 3.60896
H 1.9965 7.55138 2.29988
H 4.50274 7.82813 2.63895
H 4.14789 9.10857 3.85466
H 3.65048 9.33402 2.13248
O 6.45908 6.30085 10.164
C 6.73476 4.92596 9.89678
C 8.16685 4.64679 9.49192
H 6.89324 4.26394 -0.197338
H 6.01227 4.54436 9.17276
H 8.82729 4.82222 10.354
H 8.25914 3.56792 9.26823
H 8.50104 5.21846 8.61586
O 9.48651 11.2329 4.21701
C 9.81013 10.2293 3.27015
C 8.5941 9.34794 3.01382
H 10.6853 9.5846 3.53632
H 10.0858 10.7307 2.32155
H 7.6676 9.95322 3.00407
H 8.49932 8.59161 3.81425
H 8.69669 8.83406 2.03608
O 5.43881 11.4439 10.3853
C 5.21334 2.09651 10.1299
C 3.82168 2.46547 9.64704
H 5.50299 2.726 0.0665957
H 5.98122 2.43743 9.43303
H 3.07619 2.24368 10.4169
H 3.78038 3.56717 9.54939
H 3.54104 2.02163 8.68328
O 5.94086 5.40258 7.12602
C 4.62209 5.72525 6.78886
C 3.82535 4.44333 6.59761
H 4.17284 6.26611 7.6272
H 4.55831 6.31811 5.85132
H 4.48274 3.61597 6.31536
H 3.35941 4.14743 7.53877
H 3.04586 4.56106 5.81842
O 12.3443 5.17319 9.71851
C 0.414932 5.14439 9.49119
C 0.715603 4.48718 8.15232
H 0.979605 4.53052 10.2097
H 0.824554 6.15516 9.54094
H -0.198266 4.34763 7.54099
H 1.20444 3.50143 8.28638
H 1.43307 5.11534 7.61211
164
Atoms. Timestep: 5958
Ni 2.67078 9.14119 8.96029
Ni 6.16647 3.54266 3.32349
O 0.875354 4.62354 3.82992
O 4.14551 8.1317 9.02628
O 4.67743 2.56155 3.44693
O 1.21056 10.1264 9.21072
O 5.68516 4.69001 4.52979
O 2.23969 7.90982 10.1562
O -0.119851 2.49692 5.04148
O 3.14075 10.2042 10.3043
N 3.37476 10.3913 7.65067
N 0.211458 2.33037 2.44831
N 1.90439 8.0724 7.5326
N 5.47347 4.73985 1.96187
C 3.28512 11.3839 5.43321
C 0.0125035 11.5957 0.490701
H 2.76811 11.4447 4.49215
C 4.61577 1.15238 5.54338
C 1.41113 11.3506 0.47608
C 5.25729 0.954448 6.76624
C 2.16191 1.21343 1.53767
H -0.220578 11.3335 6.9443
H 3.22454 1.0389 1.58894
C 1.94459 7.06703 5.31579
C 5.79021 6.366 0.232938
C 2.5558 7.84126 6.34619
C 6.18856 5.80029 1.46967
H 3.54072 8.25187 6.18714
H 0.512501 4.54044 1.14322
C 2.64635 10.7709 6.54548
C 12.7499 1.64513 1.56342
H 1.63835 10.423 6.43112
H 5.46773 11.4936 2.117
C 4.71418 10.6918 7.67392
C 1.55394 2.07707 2.48162
H 5.36074 10.2119 8.38472
H 2.15607 2.53746 3.2442
C 0.571505 7.77297 7.60986
C 4.12888 4.71047 1.67413
H 0.0234749 8.03102 8.50041
H 3.46544 4.10975 2.25619
C -0.0565378 6.97484 6.63312
C 3.56602 5.6025 0.739515
H 2.49573 5.70058 0.683065
C 0.666599 6.51153 5.52775
C 4.38808 6.42072 -0.0419162
C 5.32191 1.90336 4.43155
C 1.87213 10.6881 10.2483
C 0.13501 5.35117 4.70029
C 3.49237 7.42092 9.97359
Ni 9.35665 8.73895 8.93956
Ni 12.7566 3.57616 3.70352
O 7.64315 4.51471 3.52417
O 10.8231 7.75221 9.13849
O 11.3096 2.56779 3.84464
O 7.8768 9.72151 9.03411
O 12.2262 4.8038 4.87332
O 8.8755 7.59591 10.2002
O 6.56903 2.39678 4.56769
O 9.76007 9.9215 10.2143
N 10.1219 9.88288 7.59198
N 6.93912 2.3532 2.00106
N 8.68692 7.56476 7.57814
N 12.0781 4.64602 2.27329
C 10.127 10.9476 5.41219
C 6.67882 11.3081 0.373989
C 11.3845 11.5204 5.6861
C 8.05004 11.3939 -0.0210183
C 12.0804 11.039 6.78669
C 8.79894 1.7434 0.565452
H 9.82927 1.879 0.298768
C 8.89116 6.45932 5.44167
C 12.2602 5.58993 0.0397403
H 9.45651 6.33651 4.53826
C 9.46557 7.15357 6.5275
C 12.8253 4.90392 1.16523
H 10.466 7.52733 6.43242
H 7.20444 5.94913 1.78056
C 9.51108 10.1165 6.38692
C 6.36761 1.15838 1.64382
H 8.55564 9.66579 6.1707
H 11.69 1.82615 1.55066
C 11.4407 10.2111 7.72324
C 8.19152 2.62173 1.49045
H 11.9934 9.85183 8.56949
H 8.71539 3.50984 1.7656
C 7.34481 7.29251 7.55075
C 10.8319 5.17853 2.38082
H 6.69169 7.73388 8.28178
H 10.1917 4.85844 3.18225
C 6.82808 6.34255 6.65742
C 10.364 6.11458 1.44742
H 12.3057 6.53906 6.86196
H 9.4144 6.59385 1.61695
C 7.55166 6.04307 5.50576
C 11.0524 6.31541 0.240624
C 11.9703 1.95206 4.84309
C 8.49301 10.3868 10.0304
C 6.93178 5.19284 4.43727
C 10.1382 7.10109 10.099
O 6.11708 1.93522 7.22715
C 7.45332 1.56879 6.9985
C 8.31161 2.79261 6.68831
H 7.54307 11.5604 6.13606
H 7.85037 1.11462 7.91108
H 8.68619 2.78787 5.64501
H 9.20057 2.80857 7.32728
H 7.74006 3.71144 6.86152
O 12.3562 11.463 10.3134
C 12.4844 1.99443 9.58226
C 11.137 2.47988 9.08939
H -0.151103 1.82142 8.74028
H -0.391488 2.82406 10.1567
H 11.274 3.00959 8.12649
H 10.7021 3.18769 9.81901
H 10.4235 1.64869 8.95333
O 2.61708 6.83965 4.13005
C 2.42292 7.93135 3.24627
C 3.76553 8.58091 2.94882
H 1.71541 8.71674 3.60751
H 1.99925 7.54349 2.29743
H 4.50445 7.81809 2.63653
H 4.14945 9.09276 3.85367
H 3.65224 9.31732 2.12937
O 6.45837 6.30487 10.1694
C 6.73443 4.93084 9.90033
C 8.16525 4.65726 9.4964
H 6.89341 4.27425 -0.202164
H 6.01197 4.55426 9.17612
H 8.82508 4.8303 10.3585
H 8.25755 3.58116 9.27155
H 8.49932 5.22464 8.61877
O 9.48344 11.207 4.21714
C 9.80808 10.2061 3.26788
C 8.59232 9.32942 3.01139
H 10.6827 9.56456 3.53479
H 10.0832 10.7058 2.31908
H 7.66593 9.93285 3.00225
H 8.49742 8.57741 3.81346
H 8.69482 8.81894 2.03318
O 5.43909 11.4099 10.3908
C 5.21343 2.1232 10.1337
C 3.82281 2.48573 9.65128
H 5.50291 2.74725 0.0620973
H 5.98116 2.45903 9.4366
H 3.07806 2.26686 10.4216
H 3.78165 3.58485 9.5531
H 3.54251 2.04586 8.68645
O 5.94016 5.40421 7.12771
C 4.62344 5.73031 6.79031
C 3.82558 4.45256 6.59911
H 4.17393 6.26646 7.6295
H 4.55938 6.31831 5.8517
H 4.48418 3.63005 6.31622
H 3.36119 4.15919 7.54082
H 3.04783 4.57078 5.81898
O 12.3398 5.17916 9.72294
C 0.41854 5.15017 9.49474
C 0.718436 4.49772 8.15509
H 0.983401 4.53983 10.2145
H 0.828389 6.15742 9.54505
H -0.194146 4.35833 7.54308
H 1.20844 3.51549 8.28919
H 1.4367 5.12243 7.61423
164
Atoms. Timestep: 10134
Ni 2.67215 9.14763 8.95901
Ni 6.16707 3.53989 3.31821
O 0.874839 4.62954 3.83024
O 4.14776 8.13478 9.02372
O 4.67965 2.55332 3.4407
O 1.21163 10.1341 9.21271
O 5.68307 4.68938 4.52483
O 2.2425 7.9108 10.1525
O -0.122814 2.49906 5.04298
O 3.1417 10.2102 10.3045
N 3.37477 10.403 7.65367
N 0.211483 2.32596 2.45275
N 1.90576 8.07957 7.5327
N 5.47475 4.7414 1.95923
C 3.28403 11.3858 5.43358
C 0.0106544 11.5825 0.502022
H 2.76705 11.4369 4.49248
C 4.61797 1.14792 5.53797
C 1.41191 11.3466 0.48208
C 5.25858 0.963987 6.76184
C 2.16322 1.21126 1.54226
H -0.226086 11.3426 6.94746
H 3.22766 1.04113 1.58933
C 1.94266 7.08256 5.31245
C 5.7934 6.36745 0.229377
C 2.55574 7.85236 6.34608
C 6.19184 5.80085 1.46535
H 3.54216 8.26377 6.18875
H 0.51594 4.53749 1.14472
C 2.64392 10.7857 6.55233
C 12.7491 1.63146 1.57605
H 1.63416 10.4399 6.44154
H 5.47124 11.4788 2.11261
C 4.71516 10.7041 7.67551
C 1.55431 2.07459 2.48669
H 5.36366 10.2167 8.37969
H 2.15662 2.5388 3.24772
C 0.572985 7.77719 7.61148
C 4.12872 4.71851 1.68143
H 0.0264395 8.03174 8.50391
H 3.46341 4.12934 2.27826
C -0.0563346 6.98029 6.63367
C 3.56657 5.60574 0.741417
H 2.49602 5.70811 0.687409
C 0.664663 6.52391 5.52497
C 4.3905 6.41973 -0.0465076
C 5.32529 1.89254 4.42185
C 1.87426 10.6957 10.2486
C 0.13228 5.36213 4.69429
C 3.4934 7.41961 9.96679
Ni 9.35555 8.73492 8.9355
Ni 12.7555 3.57838 3.70286
O 7.64154 4.5173 3.52192
O 10.822 7.74623 9.1347
O 11.3079 2.56823 3.84483
O 7.87592 9.72033 9.0308
O 12.2244 4.81245 4.86932
O 8.87608 7.59156 10.1981
O 6.57037 2.3905 4.5617
O 9.76053 9.92197 10.2076
N 10.1194 9.87845 7.58844
N 6.94123 2.34891 1.99856
N 8.68412 7.55672 7.5794
N 12.0797 4.64785 2.27205
C 10.1263 10.939 5.40696
C 6.68097 11.3025 0.37118
C 11.3843 11.5139 5.68172
C 8.05134 11.3943 -0.0260674
C 12.0781 11.0379 6.78468
C 8.80188 1.74376 0.565874
H 9.83375 1.87745 0.304826
C 8.8906 6.45068 5.44546
C 12.2647 5.58926 0.0400739
H 9.45744 6.3306 4.54324
C 9.46516 7.13902 6.53469
C 12.8281 4.90458 1.16667
H 10.4668 7.51185 6.44173
H 7.21047 5.95009 1.77177
C 9.50956 10.109 6.38364
C 6.37126 1.15096 1.64082
H 8.55333 9.65592 6.16851
H 11.6876 1.80753 1.5653
C 11.4378 10.2096 7.72101
C 8.19378 2.61922 1.49224
H 11.9896 9.85235 8.56873
H 8.71825 3.51122 1.77092
C 7.34031 7.2869 7.54992
C 10.8339 5.18431 2.3798
H 6.6862 7.73552 8.276
H 10.1916 4.86204 3.17797
C 6.82201 6.33727 6.65333
C 10.3682 6.12249 1.44627
H 12.31 6.53562 6.8656
H 9.41909 6.60774 1.61479
C 7.54756 6.04326 5.50287
C 11.0555 6.31712 0.239313
C 11.9688 1.9514 4.84173
C 8.49515 10.3895 10.0225
C 6.92782 5.1968 4.43042
C 10.1381 7.09521 10.0942
O 6.11774 1.95037 7.21348
C 7.4555 1.57934 6.99586
C 8.32187 2.79902 6.68094
H 7.54586 11.5595 6.14078
H 7.84461 1.1272 7.91428
H 8.68021 2.80032 5.6318
H 9.22396 2.79845 7.30295
H 7.76657 3.72658 6.87232
O 12.3516 11.4514 10.3258
C 12.4804 1.98394 9.59663
C 11.1339 2.47577 9.10065
H -0.153559 1.81036 8.7553
H -0.394812 2.81725 10.1695
H 11.2754 3.0099 8.14
H 10.7003 3.18822 9.82849
H 10.4189 1.64458 8.96206
O 2.61665 6.85522 4.12865
C 2.43831 7.95441 3.25115
C 3.79119 8.5882 2.95348
H 1.74291 8.75324 3.61417
H 2.00793 7.57446 2.3012
H 4.5196 7.81201 2.64536
H 4.181 9.09954 3.85739
H 3.69 9.3281 2.13354
O 6.46431 6.30684 10.1664
C 6.74167 4.93301 9.89719
C 8.17402 4.64977 9.49645
H 6.90041 4.27171 -0.206919
H 6.02146 4.55458 9.17018
H 8.83179 4.81429 10.3629
H 8.26204 3.57217 9.2644
H 8.51505 5.22476 8.62592
O 9.48104 11.1998 4.21442
C 9.78787 10.1892 3.26958
C 8.55836 9.32413 3.01922
H 10.655 9.5333 3.53492
H 10.0679 10.6843 2.31897
H 7.63636 9.93574 3.04786
H 8.47529 8.54892 3.80212
H 8.63313 8.83339 2.02698
O 5.43751 11.4065 10.3902
C 5.21227 2.11994 10.134
C 3.81828 2.49572 9.66287
H 5.51012 2.74952 0.0600259
H 5.97418 2.45444 9.4283
H 3.07933 2.29219 10.4446
H 3.78639 3.59641 9.55094
H 3.52164 2.04324 8.70845
O 5.93286 5.39656 7.11812
C 4.61482 5.72472 6.78373
C 3.81317 4.44758 6.58579
H 4.1675 6.26175 7.62518
H 4.55311 6.32115 5.84854
H 4.46477 3.62564 6.28185
H 3.36109 4.13667 7.52873
H 3.02366 4.57654 5.81897
O 12.3441 5.17454 9.72538
C 0.423725 5.14547 9.49744
C 0.723263 4.49041 8.15728
H 0.989171 4.53209 10.2161
H 0.832075 6.15558 9.54707
H -0.190836 4.35111 7.54628
H 1.21253 3.50471 8.28969
H 1.43896 5.12051 7.61695
164
Atoms. Timestep: 10137
Ni 2.67289 9.14154 8.96283
Ni 6.16699 3.54564 3.3164
O 0.876239 4.633 3.82893
O 4.14809 8.13082 9.0276
O 4.67998 2.56114 3.439
O 1.21277 10.1259 9.21678
O 5.68308 4.69271 4.52421
O 2.24332 7.90731 10.1575
O -0.12116 2.507 5.04287
O 3.14229 10.2019 10.3096
N 3.37535 10.3943 7.65618
N 0.2131 2.33426 2.45008
N 1.90676 8.07572 7.53509
N 5.4749 4.74462 1.95608
C 3.2847 11.3749 5.43388
C 0.0123876 11.5712 0.497395
H 2.76789 11.426 4.49184
C 4.61826 1.15871 5.53837
C 1.41325 11.3359 0.477434
C 5.25866 0.975168 6.76346
C 2.16432 1.22192 1.53867
H -0.224467 11.3318 6.94927
H 3.22846 1.05215 1.58579
C 1.9437 7.08083 5.31263
C 5.79351 6.36724 0.224475
C 2.5566 7.849 6.34729
C 6.19182 5.80184 1.46168
H 3.54274 8.25955 6.1898
H 0.517517 4.54113 1.14074
C 2.64473 10.7761 6.55374
C 12.7472 1.64124 1.57249
H 1.63526 10.431 6.44284
H 5.47139 11.4677 2.10959
C 4.71537 10.6947 7.67803
C 1.55555 2.08343 2.48404
H 5.36367 10.2083 8.38292
H 2.15767 2.54666 3.24583
C 0.574354 7.77399 7.61395
C 4.12925 4.72176 1.67799
H 0.0279387 8.028 8.50726
H 3.46411 4.13384 2.27541
C -0.0547647 6.97878 6.63516
C 3.56729 5.60712 0.737031
H 2.49704 5.70928 0.68297
C 0.666069 6.52336 5.52536
C 4.39101 6.4194 -0.0516766
C 5.32541 1.90175 4.42114
C 1.87518 10.6864 10.2537
C 0.133859 5.36404 4.69385
C 3.49389 7.41715 9.97161
Ni 9.35442 8.7297 8.93929
Ni 12.7536 3.58404 3.70143
O 7.64104 4.52099 3.5203
O 10.8204 7.74309 9.13868
O 11.3063 2.57602 3.84354
O 7.87519 9.71304 9.03468
O 12.2226 4.81552 4.86904
O 8.87503 7.58875 10.2032
O 6.57016 2.39867 4.56111
O 9.75926 9.91425 10.2126
N 10.1181 9.87083 7.59089
N 6.94097 2.35716 1.99544
N 8.68321 7.55397 7.58185
N 12.078 4.65127 2.2692
C 10.1251 10.9291 5.40723
C 6.68082 11.2919 0.36642
C 11.3827 11.5028 5.68226
C 8.05083 11.3835 -0.031216
C 12.0762 11.0278 6.78633
C 8.80114 1.7533 0.561315
H 9.83273 1.88672 0.300006
C 8.88969 6.45028 5.44577
C 12.263 5.59068 0.0349926
H 9.4564 6.33045 4.54265
C 9.46407 7.13717 6.53608
C 12.8262 4.90744 1.16271
H 10.4654 7.50921 6.44303
H 7.21015 5.95075 1.76841
C 9.50845 10.1009 6.38488
C 6.37116 1.16173 1.63733
H 8.5525 9.64875 6.16954
H 11.686 1.81694 1.56174
C 11.4362 10.2012 7.72359
C 8.19319 2.62692 1.48861
H 11.9878 9.84477 8.57215
H 8.7175 3.51704 1.76756
C 7.33978 7.28474 7.55232
C 10.8325 5.18659 2.37704
H 6.68583 7.7324 8.27913
H 10.1904 4.865 3.17602
C 6.82165 6.33711 6.65484
C 10.367 6.12279 1.44259
H 12.3081 6.53504 6.86732
H 9.41814 6.60701 1.61128
C 7.54703 6.04372 5.50324
C 11.0542 6.31701 0.234425
C 11.967 1.9605 4.84144
C 8.49422 10.3808 10.0273
C 6.92749 5.19906 4.42972
C 10.1367 7.09344 10.0992
O 6.11756 1.9595 7.21555
C 7.45495 1.58922 6.99772
C 8.32109 2.80633 6.68247
H 7.54531 11.5483 6.14178
H 7.84393 1.13804 7.91705
H 8.67935 2.80763 5.63229
H 9.22291 2.80577 7.30511
H 7.76594 3.73194 6.87405
O 12.3495 11.4404 10.331
C 12.4784 1.99298 9.60108
C 11.1323 2.48377 9.1046
H -0.152015 1.81976 8.75892
H -0.39324 2.82453 10.1746
H 11.2737 3.01677 8.143
H 10.6987 3.19472 9.83317
H 10.4175 1.65433 8.96588
O 2.61755 6.85395 4.12765
C 2.43927 7.95083 3.24927
C 3.79179 8.58329 2.9513
H 1.74406 8.74798 3.61265
H 2.00904 7.57169 2.29837
H 4.52001 7.80873 2.64287
H 4.18147 9.09355 3.85611
H 3.69065 9.32163 2.13054
O 6.46395 6.30677 10.1714
C 6.74124 4.9358 9.90194
C 8.17321 4.65318 9.50081
H 6.90023 4.27591 -0.212252
H 6.02126 4.55819 9.1742
H 8.83076 4.81735 10.3681
H 8.2612 3.57784 9.26851
H 8.51416 5.22695 8.6294
O 9.47999 11.1894 4.21351
C 9.78678 10.1809 3.26771
C 8.55761 9.31766 3.0171
H 10.6537 9.52638 3.53333
H 10.0668 10.6749 2.31616
H 7.63587 9.92799 3.04577
H 8.47454 8.54408 3.80079
H 8.63239 8.82796 2.02388
O 5.43743 11.3956 10.3954
C 5.21227 2.1287 10.139
C 3.81868 2.50367 9.66738
H 5.51031 2.75694 0.0549591
H 5.97398 2.46248 9.43258
H 3.07991 2.30057 10.4499
H 3.7868 3.60205 9.55534
H 3.52215 2.05215 8.71201
O 5.93274 5.39837 7.1201
C 4.61508 5.72587 6.78537
C 3.81365 4.4514 6.58724
H 4.16786 6.26175 7.62766
H 4.55341 6.32103 5.84925
H 4.46509 3.6312 6.28299
H 3.36169 4.14116 7.53111
H 3.02439 4.5801 5.81965
O 12.3421 5.17683 9.72997
C 0.425089 5.14782 9.50178
C 0.724572 4.49416 8.16029
H 0.990355 4.53574 10.2212
H 0.833321 6.15581 9.55147
H -0.18925 4.35514 7.54869
H 1.2137 3.51052 8.29283
H 1.4401 5.12292 7.61942
164
Atoms. Timestep: 13948
Ni 2.67357 9.14342 8.9618
Ni 6.16722 3.54487 3.3149
O 0.876597 4.63503 3.82716
O 4.14959 8.13111 9.0258
O 4.68051 2.55765 3.43661
O 1.21287 10.1288 9.21633
O 5.68187 4.69368 4.52129
O 2.24437 7.90655 10.1542
O -0.121651 2.50626 5.03997
O 3.14298 10.2045 10.3075
N 3.37502 10.3995 7.65721
N 0.213013 2.33155 2.45079
N 1.90777 8.07652 7.5351
N 5.47541 4.74564 1.95624
C 3.28394 11.375 5.43425
C 0.0116804 11.5666 0.499825
H 2.76669 11.4228 4.49308
C 4.61857 1.15741 5.53634
C 1.41332 11.3339 0.477926
C 5.25818 0.979918 6.76154
C 2.16473 1.21943 1.53872
H -0.226994 11.3366 6.94847
H 3.22937 1.0506 1.58461
C 1.94426 7.08517 5.31265
C 5.79545 6.36735 0.222645
C 2.55768 7.85182 6.34798
C 6.19443 5.80193 1.45883
H 3.54434 8.26302 6.19162
H 0.518143 4.5373 1.13964
C 2.64355 10.7811 6.55587
C 12.7468 1.63648 1.57468
H 1.6334 10.4363 6.44684
H 5.47134 11.463 2.10678
C 4.71528 10.7007 7.6782
C 1.55585 2.08101 2.48423
H 5.3646 10.2129 8.38119
H 2.15821 2.54525 3.24516
C 0.574934 7.77483 7.6131
C 4.12901 4.72535 1.68151
H 0.0281723 8.02863 8.50556
H 3.46318 4.14197 2.28367
C -0.0540236 6.97918 6.63451
C 3.56782 5.60923 0.738369
H 2.49733 5.71347 0.685268
C 0.66664 6.526 5.52449
C 4.39246 6.41895 -0.0532574
C 5.32629 1.89709 4.41794
C 1.87547 10.6893 10.2529
C 0.133543 5.36787 4.69057
C 3.49509 7.41565 9.9686
Ni 9.35383 8.72887 8.93771
Ni 12.7535 3.58443 3.69961
O 7.64067 4.52281 3.51933
O 10.8205 7.74117 9.13659
O 11.3056 2.57506 3.84124
O 7.87416 9.71358 9.03308
O 12.2219 4.81863 4.86503
O 8.87515 7.58697 10.201
O 6.57097 2.3957 4.558
O 9.75958 9.91597 10.2084
N 10.1163 9.87121 7.58993
N 6.94198 2.35519 1.9957
N 8.68244 7.55018 7.58302
N 12.0791 4.65298 2.26826
C 10.1234 10.9267 5.40637
C 6.6809 11.2898 0.365159
C 11.3813 11.5017 5.68021
C 8.05081 11.3838 -0.0327908
C 12.0745 11.0294 6.78484
C 8.8021 1.75284 0.562599
H 9.83451 1.88525 0.303647
C 8.88978 6.44763 5.44799
C 12.2645 5.59021 0.0349069
H 9.45723 6.32913 4.54604
C 9.46417 7.13221 6.53907
C 12.8274 4.90664 1.16204
H 10.4659 7.50454 6.44728
H 7.21394 5.94918 1.7634
C 9.5066 10.0991 6.38457
C 6.3712 1.15854 1.63538
H 8.55034 9.64568 6.17027
H 11.6851 1.81109 1.56517
C 11.4346 10.2026 7.72208
C 8.19492 2.62567 1.49105
H 11.9863 9.84684 8.57031
H 8.72075 3.51558 1.77328
C 7.33845 7.28139 7.55243
C 10.8341 5.19096 2.37572
H 6.68377 7.73099 8.27726
H 10.1913 4.86975 3.17379
C 6.82021 6.33396 6.6539
C 10.3693 6.12789 1.44105
H 12.3097 6.53237 6.86668
H 9.42104 6.61502 1.60933
C 7.54599 6.0431 5.5029
C 11.0559 6.31858 0.23321
C 11.9664 1.95882 4.83845
C 8.49414 10.3828 10.0241
C 6.92629 5.20162 4.42765
C 10.1373 7.09153 10.0974
O 6.11707 1.96858 7.20919
C 7.45455 1.59363 6.997
C 8.32576 2.8092 6.68054
H 7.54535 11.5489 6.14416
H 7.83944 1.14341 7.91813
H 8.67475 2.81468 5.62838
H 9.23367 2.79835 7.29415
H 7.77878 3.73892 6.88279
O 12.3475 11.4354 10.3352
C 12.4772 1.98974 9.6051
C 11.1311 2.48425 9.11098
H -0.15467 1.81464 8.76288
H -0.391329 2.82209 10.1768
H 11.273 3.02186 8.15241
H 10.6986 3.19458 9.84133
H 10.4153 1.65444 8.96954
O 2.6194 6.85756 4.12957
C 2.44446 7.95763 3.2526
C 3.79983 8.5851 2.95296
H 1.75357 8.75972 3.61707
H 2.01084 7.57977 2.30325
H 4.52475 7.80529 2.64587
H 4.19243 9.09625 3.85577
H 3.70142 9.32378 2.13164
O 6.46675 6.30862 10.171
C 6.74511 4.93532 9.90067
C 8.17785 4.65105 9.5021
H 6.90408 4.2741 -0.214645
H 6.02632 4.55828 9.17183
H 8.83405 4.81119 10.3707
H 8.26474 3.57412 9.26607
H 8.52181 5.22799 8.63427
O 9.47675 11.188 4.21472
C 9.77789 10.175 3.27062
C 8.54354 9.31622 3.02158
H 10.6417 9.51481 3.53613
H 10.0602 10.668 2.31953
H 7.62354 9.93017 3.06341
H 8.46384 8.534 3.79766
H 8.60891 8.83419 2.02434
O 5.4364 11.3929 10.3961
C 5.21143 2.1286 10.1389
C 3.81603 2.5067 9.67365
H 5.51391 2.75879 0.0530971
H 5.97002 2.45997 9.42825
H 3.08076 2.31076 10.461
H 3.78747 3.60681 9.55506
H 3.51207 2.04969 8.72385
O 5.93075 5.39199 7.11624
C 4.61289 5.72296 6.78396
C 3.80868 4.44818 6.583
H 4.16695 6.25843 7.62711
H 4.55178 6.32107 5.84992
H 4.45708 3.62936 6.26693
H 3.36412 4.12941 7.52694
H 3.01351 4.58289 5.82327
O 12.3439 5.1745 9.73157
C 0.426991 5.14739 9.50319
C 0.727255 4.49243 8.16312
H 0.993869 4.53588 10.2224
H 0.83288 6.158 9.55181
H -0.186329 4.35345 7.55126
H 1.21584 3.50645 8.29594
H 1.44344 5.12264 7.6234
164
Atoms. Timestep: 13950