ITEM: TIMESTEP
0
ITEM: NUMBER OF ATOMS
164
ITEM: BOX BOUNDS xy xz yz pp pp pp
-2.2759399999999999e-01 1.2505599999999999e+01 0.0000000000000000e+00
0.0000000000000000e+00 1.2523400000000001e+01 -2.2759399999999999e-01
0.0000000000000000e+00 1.0274279000000000e+01 0.0000000000000000e+00
ITEM: ATOMS id type x y z
1 1 2.99261 9.32972 8.92401
2 1 6.31243 3.09723 3.89711
3 2 0.95179 4.61428 3.68068
4 2 4.26493 7.99635 9.06579
5 2 4.96467 1.87846 4.07751
6 2 1.7295 10.6698 9.00348
7 2 5.89633 4.24334 5.19572
8 2 2.45873 8.13963 10.2405
9 2 0.096998 2.32899 4.80779
10 2 3.67662 10.4687 0.0433347
11 3 3.994 10.4702 7.60138
12 3 0.869172 2.06722 2.26058
13 3 2.04078 8.23296 7.5059
14 3 5.41483 4.26406 2.55195
15 4 4.25447 11.5264 5.38135
16 4 0.922467 0.650974 0.239842
17 5 3.91629 11.5857 4.36305
18 5 6.68658 0.890276 9.5813
19 4 5.21639 12.4526 5.85152
20 4 1.99199 12.3851 0.695218
21 4 5.68783 12.226 7.16265
22 4 2.49873 0.18766 1.9856
23 5 0.130431 0.578946 6.97659
24 5 3.3888 12.2102 2.33126
25 4 1.83224 7.23318 5.23899
26 4 5.64253 5.76336 0.605551
27 5 2.27045 7.14311 4.25837
28 5 11.7065 5.5893 9.07552
29 4 2.59917 7.89483 6.28284
30 4 6.13937 4.73655 1.47418
31 5 3.64204 8.1056 6.09843
32 4 3.55146 10.6662 6.30099
33 4 0.313077 1.64626 1.06635
34 5 2.55194 10.3661 6.03101
35 5 5.62527 2.02313 1.08867
36 4 5.11087 11.2159 8.0278
37 4 1.92454 1.26813 2.79115
38 4 0.791757 7.67845 7.82002
39 4 4.16975 4.86813 2.83259
40 4 0.119101 6.75873 6.84846
41 4 3.66862 5.93198 1.97281
42 5 5.58348 6.6275 6.63458
43 5 2.67759 6.3257 2.14723
44 4 0.646162 6.49981 5.5327
45 4 4.39265 6.37499 0.826671
46 4 5.64762 1.23614 5.04254
47 4 2.37536 11.2406 10.0422
48 4 0.135978 5.27943 4.52479
49 4 3.56528 7.4061 10.0544
50 1 9.28593 9.59025 8.5768
51 1 12.2485 3.29781 3.40788
52 2 7.65918 4.33188 3.9459
53 2 10.4546 8.24628 8.6577
54 2 11.0326 1.94194 3.3888
55 2 8.09711 10.9791 8.77357
56 2 11.4738 4.55134 4.57566
57 2 8.62317 8.43032 9.85651
58 2 6.77667 1.90325 5.22436
59 2 9.92292 10.7069 9.94867
60 3 10.2043 10.7096 7.18935
61 3 7.18553 1.94945 2.53624
62 3 8.40981 8.47915 7.16111
63 3 11.499 4.29426 1.84942
64 4 10.2463 11.7848 5.00488
65 4 7.3186 0.901685 0.29653
66 5 9.92672 11.6804 3.99369
67 5 0.330379 0.519906 9.50973
68 4 11.3145 0.127358 5.32563
69 4 8.50466 0.16936 0.572981
70 4 11.8793 12.4301 6.60571
71 4 9.10376 0.495125 1.85271
72 5 6.4846 0.326106 7.53149
73 5 10.0666 0.0675648 2.07855
74 4 8.82024 6.49227 5.78623
75 4 11.348 5.61619 10.0738
76 5 9.55706 5.73521 5.58222
77 5 6.01586 6.07025 10.0331
78 4 9.22213 7.77782 6.26113
79 4 12.2305 4.79051 0.793537
80 5 7.12227 4.33475 1.28275
81 4 9.53066 11.0902 6.0466
82 4 6.61649 1.65487 1.31297
83 5 11.8764 2.06147 0.74373
84 4 11.344 11.4343 7.49773
85 4 8.42873 1.39737 2.85275
86 5 11.7161 11.4294 8.49656
87 4 7.14551 7.9355 7.37106
88 4 10.1708 4.67477 1.92732
89 5 6.72225 7.94204 8.3389
90 5 9.53774 4.17885 2.62235
91 4 6.60903 6.94195 6.5016
92 4 9.6411 5.78133 1.16909
93 5 11.7008 6.27908 7.1181
94 5 8.67645 6.197 1.42506
95 4 7.47321 6.16132 5.72681
96 4 10.3642 6.30543 0.0899265
97 4 11.6901 1.4296 4.46095
98 4 8.83837 11.5337 9.78302
99 4 6.97844 4.95554 4.91644
100 4 9.68219 7.61265 9.56275
101 6 5.42672 11.311 9.39053
102 7 5.9647 10.124 9.97556
103 7 6.68435 10.313 1.10466
104 5 6.63053 9.58501 9.36782
105 5 5.26392 9.39406 10.1934
106 5 7.77751 10.1993 1.16043
107 5 6.30753 9.50049 1.7719
108 5 6.32143 11.2832 1.49263
109 6 2.6592 1.69103 3.92609
110 7 2.25948 1.13482 5.18785
111 7 2.86723 1.27417 6.63492
112 5 1.54613 0.291974 5.11038
113 5 1.93731 2.07439 5.50901
114 5 2.93339 0.319142 7.15257
115 5 2.17622 1.72983 7.4013
116 5 3.8108 1.84061 6.70957
117 6 0.396207 7.60797 9.18363
118 7 0.0305756 8.82323 9.89427
119 7 12.1727 8.57719 1.00068
120 5 12.0426 9.57496 9.29403
121 5 1.03589 9.37176 0.0423596
122 5 11.1126 8.85315 1.02361
123 5 0.101111 9.21958 1.80994
124 5 12.3891 7.54119 1.30411
125 6 3.25336 4.25832 3.72884
126 7 3.4958 4.5356 5.11183
127 7 2.50194 4.44955 6.29661
128 5 3.95039 3.58864 5.39667
129 5 4.03858 5.50034 5.24293
130 5 1.50946 4.03585 6.10283
131 5 2.91769 3.85293 7.13313
132 5 2.47004 5.38844 6.86114
133 6 8.16207 11.254 6.11517
134 7 7.45244 10.3604 5.28263
135 7 7.15889 10.9729 3.96229
136 5 7.90843 9.40724 5.05252
137 5 6.51087 10.0779 5.78598
138 5 7.98137 10.7113 3.27477
139 5 6.17149 10.6008 3.63542
140 5 7.11398 12.0539 4.01412
141 6 8.80671 1.29471 4.24601
142 7 9.18668 2.44781 5.09758
143 7 9.60549 2.10762 6.55216
144 5 8.43861 3.09848 5.43849
145 5 9.75379 3.20878 4.60679
146 5 9.28634 1.09112 6.83859
147 5 9.12937 2.77032 7.31685
148 5 10.6843 2.28648 6.71551
149 6 10.5055 8.21502 5.98977
150 7 10.6349 8.68623 4.65539
151 7 10.8048 7.60576 3.61217
152 5 9.80202 9.30036 4.30694
153 5 11.5317 9.34092 4.61686
154 5 10.2337 7.89528 2.71481
155 5 11.8755 7.49016 3.38776
156 5 10.402 6.63523 3.8792
157 6 1.10546 4.65376 0.786837
158 7 1.33586 4.12144 9.82949
159 7 2.68778 3.43166 10.0267
160 5 1.47714 4.95379 9.10763
161 5 0.625397 3.39355 9.37143
162 5 2.72485 2.47529 9.47245
163 5 3.10346 3.20403 0.820549
164 5 3.50647 4.07206 9.64168
