164
Atoms. Timestep: 0
Ni 2.89857 9.41116 8.59265
Ni 6.17525 3.10579 3.48481
O 1.44827 4.35425 3.93374
O 4.4416 8.15245 9.05464
O 4.63665 1.84729 3.87523
O 1.36499 10.6744 9.00295
O 5.80609 4.46033 4.96242
O 2.54244 8.0327 10.0675
O 0.25117 1.69264 4.94273
O 3.23722 10.8047 10.0626
N 3.69677 10.6606 7.2416
N 0.71256 1.8642 2.11704
N 2.17217 8.14409 7.25198
N 5.44023 4.39481 2.13747
C 3.48546 12.1483 5.36301
C 0.47488 0.38955 0.2292
H 2.86453 12.5181 4.55267
C 4.76073 0.1474 5.61481
C 1.74333 12.3699 0.47412
C 5.50345 12.1502 6.68209
C 2.49852 0.35508 1.54004
H 0.24768 12.5084 6.91993
H 3.49155 12.5067 1.77336
C 2.48363 6.6337 5.40822
C 5.72803 5.90364 0.28669
C 2.92756 7.68099 6.23068
C 6.1883 4.86756 1.11596
H 3.89994 8.14655 6.0889
H 0.91589 4.41889 0.97634
C 2.98256 11.1359 6.19748
C -0.01036 1.40553 1.07106
H 1.99392 10.709 6.04703
H 5.26093 1.85011 0.92351
C 4.93641 11.1381 7.47507
C 1.94823 1.3719 2.3406
H 5.48559 10.7097 8.30944
H 2.50886 1.79214 3.17267
C 0.94573 7.62654 7.47302
C 4.21083 4.90458 2.35686
H 0.36328 8.05184 8.28732
H 3.63605 4.47744 3.17528
C 0.43859 6.57577 6.69176
C 3.68763 5.945 1.56944
H 2.69824 6.32683 1.80071
C 1.22745 6.06471 5.65205
C 4.46338 6.45777 0.52027
C 5.3126 1.24381 4.79419
C 2.0502 11.2675 9.92158
C 0.73548 4.94016 4.83586
C 3.73174 7.56629 9.95688
Ni 9.15137 9.41116 8.59265
Ni 12.4281 3.10579 3.48481
O 7.70109 4.35425 3.93374
O 10.6944 8.15245 9.05464
O 10.8895 1.84729 3.87523
O 7.61779 10.6744 9.00295
O 12.0589 4.46033 4.96242
O 8.79524 8.0327 10.0675
O 6.50397 1.69264 4.94273
O 9.49002 10.8047 10.0626
N 9.94957 10.6606 7.2416
N 6.96536 1.8642 2.11704
N 8.42499 8.14409 7.25198
N 11.693 4.39481 2.13747
C 9.73826 12.1483 5.36301
C 6.72768 0.38955 0.2292
C 11.0135 0.1474 5.61481
C 7.99613 12.3699 0.47412
C 11.7562 12.1502 6.68209
C 8.75132 0.35508 1.54004
H 9.74435 12.5067 1.77336
C 8.73644 6.6337 5.40822
C 11.9808 5.90364 0.28669
H 9.38574 6.27291 4.61605
C 9.18036 7.68099 6.23068
C 12.4411 4.86756 1.11596
H 10.1527 8.14655 6.0889
H 7.16869 4.41889 0.97634
C 9.23536 11.1359 6.19748
C 6.24244 1.40553 1.07106
H 8.24672 10.709 6.04703
H 11.5137 1.85011 0.92351
C 11.1892 11.1381 7.47507
C 8.20102 1.3719 2.3406
H 11.7384 10.7097 8.30944
H 8.76167 1.79214 3.17267
C 7.19853 7.62654 7.47302
C 10.4636 4.90458 2.35686
H 6.61608 8.05184 8.28732
H 9.88885 4.47744 3.17528
C 6.69139 6.57577 6.69176
C 9.94043 5.945 1.56944
H 11.9605 6.17693 6.91975
H 8.95104 6.32683 1.80071
C 7.48025 6.06471 5.65205
C 10.7162 6.45777 0.52027
C 11.5654 1.24381 4.79419
C 8.303 11.2675 9.92158
C 6.98827 4.94016 4.83586
C 9.98454 7.56629 9.95688
O 6.75756 0.10659 6.9344
C 7.59367 12.2073 7.94965
C 8.897 0.46502 7.88949
H 7.81731 11.1244 7.83122
H 7.11274 12.3851 8.93636
H 9.39738 0.29583 6.91233
H 9.57351 0.12944 8.7036
H 8.69612 1.55057 8.01226
O 12.0089 12.4486 9.4537
C 10.7493 0.36846 9.09942
C 10.2679 12.1236 7.87856
H 10.7838 1.45208 8.85218
H 10.0373 0.19719 9.93621
H 10.9632 12.2865 7.02776
H 9.25535 12.4757 7.58892
H 10.2202 11.0375 8.10669
O 3.25279 6.1639 4.38036
C 4.50474 6.63203 4.03105
C 5.02266 5.8472 2.83596
H 5.20987 6.50066 4.88081
H 4.44474 7.7079 3.75643
H 5.09615 4.76876 3.09173
H 6.02919 6.2192 2.55042
H 4.33461 5.97031 1.97264
O 6.2672 6.37841 9.53103
C 7.52698 5.9265 9.18863
C 8.03704 6.71104 7.98996
H 8.22742 6.07381 10.0396
H 7.48368 4.84808 8.92091
H 8.09386 7.7921 8.23884
H 9.04984 6.35206 7.70995
H 7.35361 6.57216 7.12539
O 9.00482 0.10604 4.31313
C 7.73993 12.207 3.95238
C 7.27409 0.46548 2.73412
H 7.02777 12.3845 4.78777
H 7.759 11.1243 3.69945
H 7.24194 1.55091 2.96792
H 6.2574 0.13016 2.43929
H 7.96974 0.29672 1.88472
O 5.7561 12.4486 9.45369
C 4.49656 0.36851 9.09936
C 4.01508 12.1236 7.87855
H 3.78451 0.19733 9.93617
H 4.53108 1.45211 8.85208
H 3.96735 11.0376 8.10675
H 3.00259 12.4758 7.58888
H 4.71041 12.2864 7.02776
O 5.4536 6.04883 6.92652
C 4.57777 6.45729 7.91374
C 3.30983 5.6208 7.84246
H 5.04319 6.32074 8.9144
H 4.31196 7.52696 7.76661
H 3.55291 4.54752 7.99352
H 2.60163 5.94471 8.63403
H 2.82514 5.74805 6.85114
O 0.01441 6.37842 9.53104
C 1.27422 5.92656 9.18869
C 1.78426 6.71106 7.98999
H 1.23099 4.84812 8.92101
H 1.97464 6.07394 10.0397
H 1.10087 6.57209 7.12541
H 2.79709 6.35212 7.71001
H 1.84101 7.79213 8.23881
164
Atoms. Timestep: 280
Ni 2.88686 9.39119 8.74906
Ni 6.14046 3.09251 3.6376
O 1.35646 4.14514 3.89421
O 4.37701 8.3749 8.87385
O 4.60203 2.12164 3.78959
O 1.40003 10.4015 8.98828
O 5.71044 4.27412 4.88819
O 2.4677 8.12 9.98107
O 0.299983 1.88427 4.9694
O 3.30901 10.5288 10.1074
N 3.60063 10.6876 7.40163
N 0.64473 1.86406 2.31958
N 2.16345 8.23067 7.29215
N 5.49892 4.38765 2.23646
C 3.44998 12.0749 5.3719
C 0.429481 0.335093 0.391437
H 2.95501 12.2436 4.44107
C 4.65381 0.249441 5.67742
C 1.65401 12.1864 0.676355
C 5.32257 12.3537 6.8601
C 2.34859 0.144549 1.80477
H 0.368557 12.0554 6.48355
H 3.25762 12.1743 2.11186
C 2.39264 6.81439 5.2811
C 5.92654 6.28527 0.78316
C 2.91308 7.80286 6.21787
C 6.14771 5.58672 2.00995
H 3.91061 8.19781 6.07705
H 0.996594 4.58479 1.31812
C 2.91166 11.0773 6.2734
C 12.4008 1.35152 1.29435
H 1.9951 10.5717 6.00822
H 5.39064 0.292058 2.55423
C 4.86521 11.1869 7.57065
C 1.86045 1.2741 2.5669
H 5.43856 10.8199 8.3913
H 2.3955 1.58513 3.43686
C 0.841601 7.86857 7.31933
C 4.25122 4.27561 1.64811
H 0.208239 8.30392 8.05612
H 3.60268 3.45775 1.91754
C 0.304536 6.88322 6.42182
C 3.74504 5.3185 0.767152
H 2.72915 5.30728 0.450447
C 1.13297 6.19727 5.52256
C 4.57605 6.37702 0.32746
C 5.24402 1.4294 4.781
C 2.03928 11.0246 10.0187
C 0.651835 4.85286 4.82302
C 3.74099 7.64349 9.83267
Ni 9.15615 9.42366 8.7477
Ni -0.119558 3.10336 3.69789
O 7.6645 4.05548 3.88008
O 10.6394 8.4145 9.03311
O 10.904 2.05192 3.8169
O 7.66273 10.4389 8.83171
O 11.918 4.2935 4.9767
O 8.70033 8.30248 10.1058
O 6.50084 1.90551 4.89037
O 9.54695 10.7072 9.97743
N 9.91369 10.5694 7.28995
N 6.86289 1.81262 2.25482
N 8.47767 8.11121 7.39999
N 11.6867 4.37663 2.33044
C 9.7722 11.9403 5.23174
C 6.50205 -0.0619039 0.761983
C 11.0321 0.0239139 5.50331
C 7.85781 12.4156 0.315467
C 11.8192 11.8614 6.44048
C 8.64705 0.987253 0.75236
H 9.62452 1.11874 0.335048
C 8.75584 6.60953 5.46379
C 12.0537 6.03563 0.546426
H 9.36469 6.30623 4.63242
C 9.23193 7.66473 6.33508
C 0.0232117 5.00631 1.46091
H 10.1637 8.15668 6.10403
H 7.01239 5.85559 2.5784
C 9.20915 10.9743 6.17408
C 6.25542 0.597425 2.00307
H 8.21117 10.59 6.00753
H 11.4889 1.85276 1.0338
C 11.2292 10.9345 7.36565
C 8.11382 1.97252 1.68234
H 11.8046 10.57 8.17908
H 8.7501 2.77661 2.00536
C 7.20547 7.6159 7.52477
C 10.4412 4.93286 2.50788
H 6.59137 8.0003 8.31106
H 9.82389 4.54425 3.28328
C 6.79156 6.41838 6.83994
C 10.0098 6.10846 1.7867
H 11.7636 6.64669 6.4535
H 9.0787 6.58122 2.05419
C 7.51207 5.96472 5.70503
C 10.7777 6.64605 0.732448
C 11.5736 1.32845 4.76298
C 8.27565 11.1771 9.80235
C 6.97624 4.745 4.83881
C 9.97144 7.80459 10.054
O 6.08308 0.751578 7.55122
C 7.42487 0.728481 7.15078
C 7.98125 2.12687 7.27326
H 7.56657 0.364981 6.12077
H 8.01327 0.0939075 7.80863
H 8.83123 2.27214 6.57411
H 8.29822 2.28803 8.32194
H 7.20524 2.87572 7.0285
O 12.1471 0.201718 9.4246
C 12.4051 1.37903 8.6814
C 11.0889 1.92371 8.17265
H 0.59303 1.165 7.84946
H 0.403605 2.18932 9.23912
H 11.2636 2.63245 7.33838
H 10.5483 2.43712 8.98831
H 10.4425 1.09285 7.8468
O 3.00572 6.65631 4.05533
C 2.49712 7.63511 3.16033
C 3.50739 8.76213 2.96958
H 1.50925 8.07548 3.44918
H 2.31562 7.1473 2.18447
H 4.47051 8.35504 2.59841
H 3.68355 9.29385 3.92537
H 3.11307 9.49694 2.23813
O 6.97368 6.32402 -0.133867
C 7.32114 5.01469 10.005
C 8.51542 4.99563 9.05972
H 7.96616 4.65249 0.691207
H 6.5639 4.27077 9.66829
H 8.86113 5.99781 8.82123
H 9.35412 4.42863 9.50971
H 8.25978 4.53828 8.09921
O 9.23397 12.042 3.96699
C 9.88884 11.1061 3.12227
C 9.03779 9.85779 2.9375
H 10.913 10.8014 3.45514
H 10.047 11.5818 2.1376
H 8.05107 10.1292 2.50673
H 8.89392 9.33671 3.90575
H 9.56157 9.16444 2.25048
O 5.23976 12.4522 10.1033
C 4.68545 1.24513 9.96925
C 3.51036 1.29262 8.99515
H 4.48201 1.59834 0.654253
H 5.45926 1.98207 9.65165
H 3.09452 0.312719 8.76997
H 2.70928 1.93066 9.41193
H 3.80175 1.69636 8.02163
O 6.04626 5.50111 7.54384
C 4.70856 5.51567 7.14713
C 4.15131 4.12654 7.32165
H 4.13752 6.17964 7.79875
H 4.57122 5.829 6.09809
H 4.89221 3.36664 7.00967
H 3.92579 3.97232 8.3952
H 3.24267 3.99449 6.70058
O -0.0202784 6.20738 9.63551
C 12.309 5.03273 8.86345
C 1.1557 4.56349 8.36746
H 11.6111 5.22862 8.03605
H 11.84 4.17803 9.3913
H 1.02625 3.92637 7.47001
H 1.67588 3.98203 9.15154
H 1.80278 5.4281 8.13758
164
Atoms. Timestep: 314
Ni 2.8981 9.38022 8.75277
Ni 6.1555 3.09957 3.65372
O 1.35407 4.15351 3.88742
O 4.38537 8.357 8.87031
O 4.61917 2.12794 3.82046
O 1.4171 10.3966 8.99738
O 5.73235 4.28211 4.90191
O 2.47675 8.10315 9.97973
O 0.311861 1.89016 4.97879
O 3.32625 10.5125 10.1169
N 3.61505 10.6783 7.41208
N 0.653863 1.85717 2.32667
N 2.1665 8.22945 7.28962
N 5.50591 4.38728 2.25111
C 3.45692 12.0911 5.40041
C 0.449328 0.331258 0.394983
H 2.93933 12.2944 4.48851
C 4.67818 0.239425 5.69335
C 1.67721 12.1866 0.679684
C 5.34868 12.3293 6.87048
C 2.37037 0.150073 1.80717
H 0.378106 12.087 6.54544
H 3.28707 12.192 2.10756
C 2.38642 6.82154 5.27108
C 5.93953 6.26043 0.768779
C 2.91082 7.80583 6.20984
C 6.16574 5.57501 2.00123
H 3.90738 8.20146 6.06474
H 0.963148 4.50665 1.23288
C 2.9182 11.0881 6.29603
C 12.4073 1.32788 1.31288
H 1.99068 10.5988 6.04058
H 5.38883 0.308345 2.57072
C 4.88568 11.1605 7.57245
C 1.87712 1.2797 2.56867
H 5.45529 10.7895 8.39432
H 2.42492 1.61408 3.42107
C 0.841342 7.87785 7.31464
C 4.26008 4.26714 1.66063
H 0.215499 8.30004 8.06708
H 3.61984 3.43963 1.92233
C 0.294656 6.90998 6.40256
C 3.75432 5.29509 0.764009
H 2.74708 5.2528 0.414406
C 1.12193 6.21456 5.5058
C 4.58511 6.35399 0.319077
C 5.26372 1.43536 4.80936
C 2.05755 11.015 10.0291
C 0.646574 4.86327 4.81404
C 3.74823 7.62221 9.82517
Ni 9.16262 9.42463 8.76264
Ni 12.3921 3.10051 3.69894
O 7.68149 4.06566 3.88358
O 10.6454 8.4182 9.04774
O 10.9151 2.04196 3.82511
O 7.66867 10.4369 8.84379
O 11.9168 4.2972 4.97221
O 8.70147 8.29666 10.1118
O 6.5229 1.91153 4.91181
O 9.54435 10.7062 10.0017
N 9.92559 10.5763 7.31468
N 6.8655 1.82014 2.26845
N 8.49205 8.11795 7.40923
N 11.6838 4.35986 2.32338
C 9.79508 11.9299 5.24685
C 6.49454 12.4672 0.775308
C 11.052 0.0201574 5.52015
C 7.84927 12.4204 0.323194
C 11.8335 11.8737 6.47757
C 8.63443 1.0009 0.745544
H 9.60889 1.13109 0.323702
C 8.7546 6.65465 5.44365
C 12.0283 5.98755 0.500024
H 9.33392 6.39856 4.57567
C 9.23547 7.69715 6.32686
C 0.00289989 4.94963 1.4049
H 10.1603 8.20104 6.09185
H 7.0398 5.84052 2.55597
C 9.23113 10.9645 6.18752
C 6.25285 0.607996 2.01685
H 8.24634 10.555 6.00419
H 11.4716 1.79849 1.07904
C 11.2413 10.9375 7.39354
C 8.10031 1.99554 1.66623
H 11.8213 10.5435 8.1907
H 8.70638 2.84517 1.92535
C 7.22712 7.60954 7.54465
C 10.4532 4.93896 2.52452
H 6.62155 7.97639 8.34612
H 9.86042 4.58773 3.33941
C 6.81213 6.42273 6.84627
C 10.0138 6.10145 1.78607
H 11.751 6.68701 6.42886
H 9.08987 6.58417 2.06089
C 7.52821 5.98264 5.7041
C 10.7718 6.62539 0.718088
C 11.5882 1.32743 4.77698
C 8.27197 11.1731 9.82175
C 6.99603 4.7578 4.84214
C 9.97451 7.80256 10.0618
O 6.09246 0.723159 7.57862
C 7.43346 0.728772 7.18197
C 7.95593 2.13608 7.33213
H 7.59089 0.373836 6.15135
H 8.0304 0.0976379 7.83685
H 8.80589 2.31262 6.64095
H 8.25688 2.28685 8.38639
H 7.16539 2.87349 7.09739
O 12.1715 0.206232 9.42392
C -0.1251 1.40741 8.70405
C 11.0389 1.91084 8.21513
H 0.570549 1.24131 7.86316
H 0.351138 2.22034 9.28294
H 11.1675 2.63875 7.3885
H 10.5058 2.39591 9.04935
H 10.4046 1.06976 7.89002
O 3.00757 6.64965 4.05181
C 2.51622 7.62601 3.14596
C 3.53837 8.74078 2.95806
H 1.5302 8.07787 3.42181
H 2.34043 7.13348 2.17181
H 4.50713 8.32254 2.61525
H 3.69424 9.29213 3.90636
H 3.16232 9.45996 2.20424
O 6.75979 6.29729 10.1228
C 7.32943 4.98654 9.97396
C 8.54609 4.97288 9.04625
H 7.952 4.60564 0.660165
H 6.57258 4.25494 9.61051
H 8.92329 5.97036 8.83789
H 9.36249 4.36824 9.48888
H 8.30953 4.55605 8.0625
O 9.2315 12.0643 3.99584
C 9.84511 11.1335 3.11662
C 8.95932 9.90795 2.92505
H 10.8697 10.8004 3.41956
H 9.99099 11.6299 2.14036
H 7.97804 10.2 2.49486
H 8.79888 9.38822 3.89038
H 9.46268 9.1994 2.23903
O 5.22841 12.4544 10.1203
C 4.67969 1.24931 9.97468
C 3.51751 1.29944 8.98425
H 4.47151 1.60812 0.654311
H 5.45794 1.98167 9.66073
H 3.08862 0.320168 8.77829
H 2.71887 1.9615 9.37022
H 3.82997 1.67952 8.00624
O 6.06241 5.49957 7.53706
C 4.7231 5.52006 7.14309
C 4.16119 4.13002 7.3149
H 4.15484 6.18131 7.79821
H 4.58325 5.84617 6.09861
H 4.91731 3.36998 7.04448
H 3.89479 3.98548 8.37987
H 3.27717 3.98412 6.66167
O -0.0521164 6.17404 9.5835
C 12.2706 5.01414 8.79293
C 1.1149 4.54321 8.29013
H 11.5688 5.22126 7.96964
H 11.802 4.15882 9.31448
H 0.985324 3.88109 7.41218
H 1.6288 3.97869 9.08551
H 1.77017 5.39745 8.04194
164
Atoms. Timestep: 320
Ni 2.89857 9.37919 8.75225
Ni 6.1552 3.09822 3.65425
O 1.35548 4.15444 3.88742
O 4.38602 8.35666 8.87005
O 4.61886 2.12715 3.8195
O 1.41729 10.3946 8.99733
O 5.7329 4.28169 4.90256
O 2.4769 8.10249 9.97883
O 0.313328 1.88914 4.97885
O 3.32632 10.5112 10.1168
N 3.61542 10.6781 7.41168
N 0.654193 1.85654 2.327
N 2.16747 8.2292 7.2901
N 5.506 4.38737 2.25134
C 3.45683 12.0911 5.40046
C 0.447759 0.330046 0.396344
H 2.93851 12.2954 4.48917
C 4.67816 0.239673 5.69258
C 1.67727 12.1866 0.679041
C 5.3493 12.3293 6.86953
C 2.37084 0.150725 1.80663
H 0.378453 12.0859 6.54378
H 3.28704 12.1922 2.10796
C 2.38726 6.82258 5.27096
C 5.93839 6.26132 0.768603
C 2.91189 7.80606 6.20972
C 6.16506 5.5754 2.00109
H 3.90768 8.20175 6.06367
H 0.963014 4.50485 1.23187
C 2.91869 11.0882 6.29572
C 12.4068 1.32634 1.31478
H 1.99072 10.5995 6.03975
H 5.3879 0.30726 2.57056
C 4.88654 11.1599 7.5716
C 1.87719 1.27976 2.56887
H 5.45597 10.7906 8.39384
H 2.42411 1.61257 3.42196
C 0.841692 7.8775 7.3149
C 4.2599 4.26723 1.66148
H 0.214129 8.30249 8.06323
H 3.62021 3.44111 1.9232
C 0.29626 6.90948 6.4027
C 3.7549 5.29433 0.762954
H 2.74755 5.25264 0.414853
C 1.12335 6.21576 5.50606
C 4.58451 6.35361 0.31863
C 5.26259 1.43559 4.80971
C 2.05784 11.0145 10.0285
C 0.647226 4.86489 4.81292
C 3.74824 7.62103 9.82466
Ni 9.16268 9.42504 8.76275
Ni 12.3926 3.10028 3.69871
O 7.68221 4.06406 3.88491
O 10.6463 8.41824 9.04803
O 10.9156 2.04151 3.82722
O 7.66788 10.4375 8.84404
O 11.9179 4.29875 4.97143
O 8.70263 8.29645 10.112
O 6.52229 1.91065 4.91226
O 9.5443 10.705 10.0009
N 9.9248 10.5771 7.31482
N 6.86585 1.81843 2.26902
N 8.49133 8.1186 7.4088
N 11.6828 4.35957 2.3222
C 9.79493 11.9309 5.24713
C 6.49526 12.4674 0.774354
C 11.0522 0.0197619 5.52066
C 7.85065 12.42 0.323333
C 11.8333 11.8735 6.47789
C 8.63607 0.999849 0.746805
H 9.61153 1.13014 0.326845
C 8.75343 6.65531 5.44339
C 12.0293 5.98853 0.501576
H 9.3337 6.39765 4.57792
C 9.23451 7.69756 6.32645
C 0.00209266 4.94888 1.40417
H 10.1596 8.20049 6.09156
H 7.03984 5.84079 2.55473
C 9.2304 10.9657 6.18688
C 6.25255 0.606676 2.01634
H 8.24642 10.5559 6.00081
H 11.4716 1.79607 1.08221
C 11.2416 10.9372 7.39297
C 8.09984 1.99415 1.66628
H 11.8236 10.5419 8.18876
H 8.70653 2.84283 1.928
C 7.22666 7.60958 7.54396
C 10.4526 4.94056 2.52506
H 6.6218 7.97609 8.34508
H 9.85908 4.58925 3.33935
C 6.81202 6.42228 6.84554
C 10.0133 6.10268 1.78672
H 11.7521 6.68646 6.4274
H 9.08871 6.58514 2.0612
C 7.52756 5.98317 5.70348
C 10.7721 6.62546 0.718916
C 11.5887 1.32686 4.77824
C 8.27206 11.1724 9.82183
C 6.99591 4.75823 4.8422
C 9.97455 7.80058 10.0611
O 6.0918 0.723564 7.5781
C 7.43331 0.72913 7.1834
C 7.95553 2.13669 7.33164
H 7.5918 0.372721 6.15349
H 8.0294 0.0996098 7.84026
H 8.80709 2.31178 6.6423
H 8.25636 2.28989 8.38522
H 7.16545 2.87465 7.09705
O 12.1694 0.206149 9.42513
C -0.126061 1.40709 8.70475
C 11.0385 1.91304 8.21633
H 0.567763 1.23994 7.8628
H 0.353589 2.21823 9.28207
H 11.1714 2.63582 7.38436
H 10.5047 2.40041 9.05109
H 10.4039 1.0708 7.89246
O 3.00903 6.64956 4.05206
C 2.51666 7.62538 3.14554
C 3.53934 8.74013 2.95824
H 1.52957 8.07767 3.42016
H 2.34 7.13391 2.17083
H 4.50841 8.3219 2.61546
H 3.69501 9.29119 3.9073
H 3.16522 9.45967 2.20365
O 6.75744 6.29877 10.122
C 7.329 4.98843 9.97426
C 8.54562 4.97354 9.04682
H 7.95148 4.60886 0.6605
H 6.57432 4.25476 9.61184
H 8.92273 5.97024 8.83668
H 9.36249 4.3688 9.48819
H 8.30998 4.55629 8.06334
O 9.2311 12.0667 3.99593
C 9.8441 11.1342 3.11762
C 8.95807 9.90958 2.9255
H 10.8689 10.7997 3.41837
H 9.99079 11.628 2.14102
H 7.97779 10.2035 2.49715
H 8.79477 9.38943 3.88935
H 9.45973 9.20063 2.23867
O 5.23011 12.4545 10.1186
C 4.68011 1.24916 9.97513
C 3.5175 1.29885 8.98521
H 4.47044 1.6063 0.655255
H 5.4596 1.98074 9.662
H 3.09039 0.319158 8.7802
H 2.71849 1.96044 9.37063
H 3.82856 1.67936 8.00748
O 6.06261 5.49859 7.53638
C 4.72341 5.52055 7.14301
C 4.16125 4.13095 7.31409
H 4.15527 6.18167 7.79768
H 4.58311 5.84644 6.09884
H 4.91618 3.36997 7.04201
H 3.89623 3.98457 8.37935
H 3.27686 3.98651 6.66109
O -0.0525898 6.17467 9.58471
C 12.2693 5.01527 8.79215
C 1.11364 4.54124 8.29104
H 11.5712 5.22188 7.96481
H 11.7983 4.16151 9.31235
H 0.985786 3.87962 7.41076
H 1.62905 3.97902 9.08809
H 1.76734 5.3963 8.04305
164
Atoms. Timestep: 322
Ni 2.89833 9.37913 8.75248
Ni 6.15527 3.09817 3.65418
O 1.35544 4.15441 3.88723
O 4.386 8.35655 8.87012
O 4.61866 2.1272 3.81953
O 1.41749 10.3948 8.99737
O 5.73271 4.28174 4.90253
O 2.47697 8.10244 9.97881
O 0.31335 1.88941 4.97889
O 3.32633 10.5113 10.1167
N 3.6156 10.6781 7.41165
N 0.654128 1.85676 2.3272
N 2.16739 8.22918 7.29001
N 5.50594 4.38729 2.25131
C 3.4569 12.0913 5.40037
C 0.447723 0.330021 0.396149
H 2.93846 12.2954 4.4892
C 4.67816 0.239553 5.69271
C 1.67734 12.1866 0.679232
C 5.34915 12.3292 6.86948
C 2.37081 0.150752 1.80662
H 0.3785 12.0858 6.5438
H 3.28705 12.1921 2.10793
C 2.38743 6.82257 5.2708
C 5.93818 6.26137 0.768561
C 2.91175 7.80608 6.20982
C 6.16509 5.57546 2.00097
H 3.90777 8.20183 6.06368
H 0.962881 4.50477 1.2319
C 2.9185 11.0881 6.29574
C 12.4069 1.32616 1.31472
H 1.99077 10.5995 6.03978
H 5.38799 0.30723 2.57045
C 4.88656 11.16 7.57158
C 1.87735 1.27952 2.56871
H 5.45594 10.7906 8.39382
H 2.42408 1.61259 3.42202
C 0.841952 7.87744 7.31469
C 4.25999 4.26732 1.66139
H 0.214138 8.30265 8.06318
H 3.62014 3.44104 1.92329
C 0.29612 6.90952 6.4027
C 3.75493 5.29423 0.763097
H 2.74743 5.25263 0.414814
C 1.12341 6.21563 5.50598
C 4.58467 6.35359 0.318732
C 5.26268 1.43563 4.80958
C 2.05771 11.0143 10.0284
C 0.647331 4.86492 4.81287
C 3.7482 7.62118 9.8245
Ni 9.16222 9.4248 8.76267
Ni 12.3924 3.10017 3.6989
O 7.68222 4.06427 3.8849
O 10.6461 8.41822 9.04797
O 10.9158 2.04166 3.82712
O 7.66812 10.4374 8.84405
O 11.9179 4.29858 4.97152
O 8.70267 8.29643 10.1119
O 6.52247 1.91057 4.91245
O 9.5444 10.7051 10.001
N 9.92498 10.5771 7.31476
N 6.86564 1.81844 2.26904
N 8.49157 8.11874 7.4089
N 11.6831 4.35975 2.32207
C 9.79484 11.9309 5.24712
C 6.49525 12.4674 0.774475
C 11.0524 0.0198998 5.52071
C 7.85057 12.42 0.323368
C 11.8332 11.8735 6.47773
C 8.63596 0.999794 0.746904
H 9.61154 1.13004 0.326952
C 8.75349 6.65538 5.4434
C 12.0291 5.98851 0.501527
H 9.33375 6.39756 4.57785
C 9.2344 7.69754 6.32647
C 0.00210752 4.94888 1.40409
H 10.1596 8.20051 6.09155
H 7.03992 5.84075 2.55481
C 9.23056 10.9657 6.18704
C 6.25257 0.606624 2.01635
H 8.24643 10.5559 6.00084
H 11.4715 1.79605 1.0823
C 11.2416 10.9373 7.39289
C 8.10009 1.99405 1.66625
H 11.8235 10.5418 8.18869
H 8.7066 2.84288 1.92811
C 7.22664 7.60949 7.54391
C 10.4526 4.94048 2.52516
H 6.62171 7.97612 8.34514
H 9.85905 4.58926 3.3394
C 6.81193 6.42236 6.84561
C 10.0134 6.10256 1.78676
H 11.7521 6.68654 6.42735
H 9.08875 6.58521 2.06114
C 7.52763 5.98302 5.70327
C 10.7721 6.62549 0.719002
C 11.5887 1.32681 4.77824
C 8.27211 11.1725 9.8219
C 6.99591 4.75806 4.84221
C 9.9745 7.80082 10.0611
O 6.09178 0.723641 7.57807
C 7.43337 0.729144 7.18368
C 7.95545 2.13679 7.33143
H 7.59182 0.372726 6.15345
H 8.02933 0.099725 7.84029
H 8.80708 2.31177 6.64233
H 8.25636 2.28995 8.38538
H 7.16549 2.87464 7.09699
O 12.1694 0.206086 9.42519
C -0.126105 1.40704 8.70491
C 11.0385 1.91305 8.21624
H 0.567675 1.23983 7.86279
H 0.353618 2.21821 9.28211
H 11.1714 2.63566 7.38445
H 10.5048 2.40053 9.05096
H 10.4039 1.07092 7.89259
O 3.0089 6.64959 4.05203
C 2.51669 7.62545 3.14547
C 3.53937 8.74018 2.95819
H 1.52968 8.07761 3.42016
H 2.34007 7.13388 2.17087
H 4.50845 8.32185 2.61551
H 3.69504 9.29114 3.90728
H 3.16531 9.45962 2.20368
O 6.75755 6.2987 10.122
C 7.32922 4.98845 9.97411
C 8.54551 4.97349 9.04692
H 7.95153 4.60895 0.660601
H 6.57424 4.25477 9.61188
H 8.92277 5.9704 8.83662
H 9.36245 4.36887 9.48823
H 8.30994 4.55629 8.06332
O 9.23124 12.0667 3.99591
C 9.84416 11.1341 3.1176
C 8.95788 9.90963 2.92548
H 10.8688 10.7997 3.41847
H 9.99077 11.6281 2.14097
H 7.97765 10.2037 2.49714
H 8.79466 9.38945 3.88946
H 9.45962 9.20069 2.23865
O 5.23013 12.4544 10.1185
C 4.68027 1.24915 9.97528
C 3.5174 1.29886 8.98513
H 4.47049 1.60622 0.655223
H 5.45953 1.98081 9.66203
H 3.09045 0.319123 8.78024
H 2.71849 1.96038 9.3707
H 3.82858 1.67935 8.00749
O 6.06263 5.49862 7.53641
C 4.72339 5.52053 7.14311
C 4.16126 4.13092 7.31393
H 4.15533 6.18166 7.79767
H 4.58313 5.84645 6.09875
H 4.91612 3.36999 7.04193
H 3.89623 3.98455 8.37939
H 3.27682 3.98658 6.66111
O -0.0524839 6.17458 9.58451
C 12.2694 5.01528 8.79203
C 1.11366 4.54131 8.29115
H 11.5713 5.22197 7.96486
H 11.7981 4.16152 9.31234
H 0.985776 3.87959 7.41088
H 1.62892 3.97903 9.08808
H 1.76732 5.39622 8.04306
164
Atoms. Timestep: 324
Ni 2.89853 9.37921 8.75235
Ni 6.15511 3.09822 3.65425
O 1.35538 4.15439 3.88718
O 4.38593 8.35655 8.87013
O 4.61862 2.12724 3.81952
O 1.41746 10.3949 8.99733
O 5.73266 4.28174 4.90246
O 2.4769 8.10247 9.97882
O 0.313254 1.8895 4.97897
O 3.32627 10.5113 10.1167
N 3.61547 10.678 7.41167
N 0.654177 1.85655 2.32711
N 2.16733 8.22914 7.28999
N 5.506 4.38737 2.25122
C 3.45682 12.0912 5.4004
C 0.447818 0.330041 0.396241
H 2.93844 12.2954 4.48919
C 4.67814 0.239573 5.69265
C 1.67724 12.1866 0.679117
C 5.34915 12.3293 6.86952
C 2.37086 0.150699 1.80659
H 0.378513 12.0858 6.5438
H 3.28705 12.1921 2.1079
C 2.38735 6.82252 5.27083
C 5.93828 6.26138 0.768562
C 2.91186 7.8061 6.20974
C 6.16504 5.57541 2.00095
H 3.9078 8.20189 6.06372
H 0.962794 4.50471 1.23188
C 2.91861 11.0882 6.29572
C 12.4067 1.32622 1.31479
H 1.99077 10.5994 6.03982
H 5.38805 0.307193 2.57036
C 4.88657 11.16 7.57154
C 1.87733 1.27964 2.56882
H 5.45594 10.7906 8.3938
H 2.42409 1.61254 3.42202
C 0.841863 7.87746 7.31468
C 4.25995 4.26718 1.6614
H 0.214202 8.30277 8.06309
H 3.6201 3.44103 1.92334
C 0.296237 6.9095 6.40259
C 3.75498 5.29425 0.763148
H 2.74737 5.25261 0.414807
C 1.12346 6.21557 5.50593
C 4.58462 6.35361 0.318734
C 5.26274 1.43553 4.80962
C 2.0578 11.0143 10.0285
C 0.647309 4.86482 4.8128
C 3.74825 7.62108 9.82451
Ni 9.1626 9.42491 8.76267
Ni 12.3926 3.10034 3.69882
O 7.68222 4.06432 3.88482
O 10.646 8.4182 9.04785
O 10.9158 2.04168 3.8271
O 7.66816 10.4373 8.84408
O 11.9179 4.29848 4.97162
O 8.70253 8.29641 10.1118
O 6.52258 1.91056 4.91247
O 9.54435 10.7051 10.001
N 9.92492 10.577 7.3147
N 6.86574 1.81845 2.26893
N 8.49135 8.11859 7.40889
N 11.683 4.35974 2.32226
C 9.79498 11.9309 5.24719
C 6.49524 12.4674 0.774472
C 11.0523 0.019937 5.52068
C 7.85051 12.42 0.323447
C 11.8333 11.8736 6.47767
C 8.63601 0.999751 0.746922
H 9.61153 1.12994 0.327051
C 8.75348 6.65531 5.44333
C 12.0291 5.98842 0.501378
H 9.33381 6.39751 4.57782
C 9.23453 7.69767 6.32649
C 0.0020936 4.94894 1.40402
H 10.1596 8.2005 6.09154
H 7.03997 5.84074 2.55484
C 9.23055 10.9658 6.18703
C 6.25253 0.606597 2.01642
H 8.24647 10.5559 6.0009
H 11.4714 1.79598 1.08235
C 11.2416 10.9373 7.39285
C 8.10003 1.994 1.66639
H 11.8234 10.5417 8.18862
H 8.7067 2.8429 1.92818
C 7.2267 7.60959 7.54399
C 10.4527 4.94048 2.52505
H 6.62164 7.97613 8.34516
H 9.85904 4.58925 3.33947
C 6.81192 6.42231 6.84551
C 10.0134 6.10255 1.78683
H 11.7521 6.68661 6.42732
H 9.08881 6.58523 2.0611
C 7.52762 5.98303 5.70328
C 10.7721 6.62555 0.71902
C 11.5888 1.32696 4.77821
C 8.27219 11.1725 9.82189
C 6.99592 4.758 4.84226
C 9.97451 7.80089 10.0611
O 6.09172 0.723675 7.57805
C 7.43339 0.729168 7.18378
C 7.95544 2.13685 7.33139
H 7.59184 0.372735 6.15348
H 8.02929 0.0997968 7.84037
H 8.80708 2.31176 6.64233
H 8.25635 2.29001 8.38545
H 7.1655 2.87466 7.09692
O 12.1693 0.206013 9.42518
C -0.126125 1.40701 8.70499
C 11.0386 1.91304 8.21624
H 0.567588 1.23974 7.8628
H 0.353645 2.2182 9.28216
H 11.1714 2.63555 7.38449
H 10.5049 2.40064 9.05084
H 10.4038 1.07101 7.89269
O 3.00889 6.64963 4.05192
C 2.51671 7.6255 3.14543
C 3.53941 8.7402 2.95816
H 1.52976 8.07756 3.42015
H 2.34013 7.13385 2.17089
H 4.50848 8.32181 2.61555
H 3.69507 9.2911 3.90726
H 3.16538 9.4596 2.2037
O 6.75758 6.29871 10.122
C 7.32929 4.98843 9.97411
C 8.54551 4.97351 9.04691
H 7.95159 4.60902 0.660655
H 6.5742 4.25479 9.61192
H 8.92278 5.97049 8.83658
H 9.36243 4.36892 9.48827
H 8.3099 4.5563 8.06331
O 9.23131 12.0667 3.99588
C 9.84418 11.1341 3.11759
C 8.95774 9.90966 2.92549
H 10.8688 10.7997 3.41855
H 9.99075 11.6281 2.14094
H 7.97752 10.2039 2.49713
H 8.79457 9.38946 3.88953
H 9.45951 9.20075 2.23864
O 5.23017 12.4544 10.1186
C 4.6803 1.24913 9.9753
C 3.5174 1.29886 8.98512
H 4.47052 1.60615 0.655225
H 5.45949 1.98086 9.66206
H 3.09049 0.319086 8.78027
H 2.71849 1.96033 9.37076
H 3.82859 1.67936 8.00748
O 6.06262 5.49865 7.53647
C 4.72339 5.52052 7.14312
C 4.16125 4.13091 7.31387
H 4.15537 6.18165 7.79767
H 4.58315 5.84647 6.09872
H 4.91607 3.36999 7.04184
H 3.89625 3.98454 8.37939
H 3.27677 3.98664 6.66111
O -0.0524956 6.17456 9.58443
C 12.2694 5.01526 8.79196
C 1.11367 4.54133 8.2912
H 11.5714 5.22205 7.96488
H 11.798 4.16155 9.3123
H 0.985771 3.87957 7.411
H 1.62883 3.97903 9.08809
H 1.76731 5.39617 8.04306
164
Atoms. Timestep: 325
Ni 2.89853 9.37921 8.75235
Ni 6.15511 3.09822 3.65425
O 1.35538 4.15439 3.88718
O 4.38593 8.35655 8.87013
O 4.61862 2.12724 3.81952
O 1.41746 10.3949 8.99733
O 5.73266 4.28174 4.90246
O 2.4769 8.10247 9.97882
O 0.313254 1.8895 4.97897
O 3.32627 10.5113 10.1167
N 3.61547 10.678 7.41167
N 0.654177 1.85655 2.32711
N 2.16733 8.22914 7.28999
N 5.506 4.38737 2.25122
C 3.45682 12.0912 5.4004
C 0.447818 0.330041 0.396241
H 2.93844 12.2954 4.48919
C 4.67814 0.239573 5.69265
C 1.67724 12.1866 0.679117
C 5.34915 12.3293 6.86952
C 2.37086 0.150699 1.80659
H 0.378513 12.0858 6.5438
H 3.28705 12.1921 2.1079
C 2.38735 6.82252 5.27083
C 5.93828 6.26138 0.768562
C 2.91186 7.8061 6.20974
C 6.16504 5.57541 2.00095
H 3.9078 8.20189 6.06372
H 0.962794 4.50471 1.23188
C 2.91861 11.0882 6.29572
C 12.4067 1.32622 1.31479
H 1.99077 10.5994 6.03982
H 5.38805 0.307193 2.57036
C 4.88657 11.16 7.57154
C 1.87733 1.27964 2.56882
H 5.45594 10.7906 8.3938
H 2.42409 1.61254 3.42202
C 0.841863 7.87746 7.31468
C 4.25995 4.26718 1.6614
H 0.214202 8.30277 8.06309
H 3.6201 3.44103 1.92334
C 0.296237 6.9095 6.40259
C 3.75498 5.29425 0.763148
H 2.74737 5.25261 0.414807
C 1.12346 6.21557 5.50593
C 4.58462 6.35361 0.318734
C 5.26274 1.43553 4.80962
C 2.0578 11.0143 10.0285
C 0.647309 4.86482 4.8128
C 3.74825 7.62108 9.82451
Ni 9.1626 9.42491 8.76267
Ni 12.3926 3.10034 3.69882
O 7.68222 4.06432 3.88482
O 10.646 8.4182 9.04785
O 10.9158 2.04168 3.8271
O 7.66816 10.4373 8.84408
O 11.9179 4.29848 4.97162
O 8.70253 8.29641 10.1118
O 6.52258 1.91056 4.91247
O 9.54435 10.7051 10.001
N 9.92492 10.577 7.3147
N 6.86574 1.81845 2.26893
N 8.49135 8.11859 7.40889
N 11.683 4.35974 2.32226
C 9.79498 11.9309 5.24719
C 6.49524 12.4674 0.774472
C 11.0523 0.019937 5.52068
C 7.85051 12.42 0.323447
C 11.8333 11.8736 6.47767
C 8.63601 0.999751 0.746922
H 9.61153 1.12994 0.327051
C 8.75348 6.65531 5.44333
C 12.0291 5.98842 0.501378
H 9.33381 6.39751 4.57782
C 9.23453 7.69767 6.32649
C 0.0020936 4.94894 1.40402
H 10.1596 8.2005 6.09154
H 7.03997 5.84074 2.55484
C 9.23055 10.9658 6.18703
C 6.25253 0.606597 2.01642
H 8.24647 10.5559 6.0009
H 11.4714 1.79598 1.08235
C 11.2416 10.9373 7.39285
C 8.10003 1.994 1.66639
H 11.8234 10.5417 8.18862
H 8.7067 2.8429 1.92818
C 7.2267 7.60959 7.54399
C 10.4527 4.94048 2.52505
H 6.62164 7.97613 8.34516
H 9.85904 4.58925 3.33947
C 6.81192 6.42231 6.84551
C 10.0134 6.10255 1.78683
H 11.7521 6.68661 6.42732
H 9.08881 6.58523 2.0611
C 7.52762 5.98303 5.70328
C 10.7721 6.62555 0.71902
C 11.5888 1.32696 4.77821
C 8.27219 11.1725 9.82189
C 6.99592 4.758 4.84226
C 9.97451 7.80089 10.0611
O 6.09172 0.723675 7.57805
C 7.43339 0.729168 7.18378
C 7.95544 2.13685 7.33139
H 7.59184 0.372735 6.15348
H 8.02929 0.0997968 7.84037
H 8.80708 2.31176 6.64233
H 8.25635 2.29001 8.38545
H 7.1655 2.87466 7.09692
O 12.1693 0.206013 9.42518
C -0.126125 1.40701 8.70499
C 11.0386 1.91304 8.21624
H 0.567588 1.23974 7.8628
H 0.353645 2.2182 9.28216
H 11.1714 2.63555 7.38449
H 10.5049 2.40064 9.05084
H 10.4038 1.07101 7.89269
O 3.00889 6.64963 4.05192
C 2.51671 7.6255 3.14543
C 3.53941 8.7402 2.95816
H 1.52976 8.07756 3.42015
H 2.34013 7.13385 2.17089
H 4.50848 8.32181 2.61555
H 3.69507 9.2911 3.90726
H 3.16538 9.4596 2.2037
O 6.75758 6.29871 10.122
C 7.32929 4.98843 9.97411
C 8.54551 4.97351 9.04691
H 7.95159 4.60902 0.660655
H 6.5742 4.25479 9.61192
H 8.92278 5.97049 8.83658
H 9.36243 4.36892 9.48827
H 8.3099 4.5563 8.06331
O 9.23131 12.0667 3.99588
C 9.84418 11.1341 3.11759
C 8.95774 9.90966 2.92549
H 10.8688 10.7997 3.41855
H 9.99075 11.6281 2.14094
H 7.97752 10.2039 2.49713
H 8.79457 9.38946 3.88953
H 9.45951 9.20075 2.23864
O 5.23017 12.4544 10.1186
C 4.6803 1.24913 9.9753
C 3.5174 1.29886 8.98512
H 4.47052 1.60615 0.655225
H 5.45949 1.98086 9.66206
H 3.09049 0.319086 8.78027
H 2.71849 1.96033 9.37076
H 3.82859 1.67936 8.00748
O 6.06262 5.49865 7.53647
C 4.72339 5.52052 7.14312
C 4.16125 4.13091 7.31387
H 4.15537 6.18165 7.79767
H 4.58315 5.84647 6.09872
H 4.91607 3.36999 7.04184
H 3.89625 3.98454 8.37939
H 3.27677 3.98664 6.66111
O -0.0524956 6.17456 9.58443
C 12.2694 5.01526 8.79196
C 1.11367 4.54133 8.2912
H 11.5714 5.22205 7.96488
H 11.798 4.16155 9.3123
H 0.985771 3.87957 7.411
H 1.62883 3.97903 9.08809
H 1.76731 5.39617 8.04306
