ITEM: TIMESTEP
0
ITEM: NUMBER OF ATOMS
164
ITEM: BOX BOUNDS xy xz yz pp pp pp
-2.1768052296301466e-01 1.5784836791632600e+01 0.0000000000000000e+00
0.0000000000000000e+00 1.0734744297135601e+01 -2.1768052296301466e-01
0.0000000000000000e+00 9.8267547729198395e+00 0.0000000000000000e+00
ITEM: ATOMS id type x y z
1 1 2.29996 9.03417 8.76723
2 1 6.39318 3.73275 3.99049
3 2 -0.0380261 4.38072 3.86908
4 2 3.63681 7.92727 8.81409
5 2 5.15332 2.51483 3.98495
6 2 0.983008 10.1321 8.91618
7 2 5.79121 4.85495 5.2958
8 2 1.96081 7.80459 0.122656
9 2 14.528 2.43837 5.25234
10 2 2.99667 10.024 0.358882
11 3 3.22251 10.2995 7.55966
12 3 15.0186 2.0283 2.67638
13 3 1.4169 8.0239 7.31507
14 3 5.46465 4.78883 2.68898
15 4 3.92248 0.224791 5.33878
16 4 0.048315 1.58137 0.476169
17 5 3.78762 0.146367 4.27075
18 5 7.3838 1.79703 9.29942
19 4 4.98682 0.999252 5.85789
20 4 1.17374 0.921479 0.985281
21 4 5.04698 1.16279 7.21453
22 4 1.31398 0.84254 2.36546
23 5 13.3116 1.9777 7.68529
24 5 2.11057 0.245521 2.78249
25 4 1.3168 6.70732 5.27636
26 4 5.38807 6.32918 0.838881
27 5 1.75534 6.50294 4.31583
28 5 13.9292 7.52694 0.841014
29 4 2.06099 7.44823 6.25177
30 4 6.11474 5.51912 1.73554
31 5 3.12076 7.60988 6.10863
32 4 2.97884 10.354 6.21311
33 4 14.7912 1.96459 1.33971
34 5 2.04349 9.99867 5.81496
35 5 6.00561 2.79721 1.10642
36 4 4.28284 0.342087 8.05478
37 4 0.223676 1.2048 3.18118
38 4 0.0565863 7.75259 7.47903
39 4 4.07554 4.94808 2.86069
40 4 15.1637 6.81694 6.65384
41 4 3.36957 5.88593 2.07053
42 5 6.13176 6.7082 7.42883
43 5 2.3014 5.97964 2.18859
44 4 -0.000637771 6.27635 5.54406
45 4 3.99591 6.51145 0.994028
46 4 5.77246 1.89965 4.95766
47 4 1.83919 10.675 0.105003
48 4 15.0786 5.22315 4.6708
49 4 2.98903 7.25812 9.75866
50 1 10.1103 9.15478 9.06177
51 1 14.2559 3.43472 3.77005
52 2 7.64035 4.90814 4.1315
53 2 11.5761 8.2043 9.01302
54 2 12.7816 2.51996 3.89705
55 2 8.68198 10.0711 9.33202
56 2 13.7848 4.80162 4.82861
57 2 10.0106 7.88161 0.470449
58 2 6.90416 2.5957 5.29992
59 2 10.839 10.2596 0.553978
60 3 10.7217 10.5084 7.73744
61 3 7.40587 2.73206 2.70778
62 3 9.27023 8.02083 7.75414
63 3 13.6412 4.44664 2.20408
64 4 11.2316 0.457386 5.48921
65 4 7.86227 1.8579 0.517002
66 5 11.0097 0.422234 4.43775
67 5 15.4954 1.70348 9.23223
68 4 12.4067 1.13988 5.93716
69 4 9.07071 1.30112 0.978371
70 4 12.5581 1.30234 7.29757
71 4 9.57205 1.77268 2.16691
72 5 5.75697 1.8577 7.64334
73 5 10.5457 1.44178 2.49706
74 4 9.12202 6.57845 5.83276
75 4 13.4497 6.62908 1.16509
76 5 9.55195 6.30871 4.88603
77 5 5.90905 6.81011 0.0268369
78 4 9.90361 7.32575 6.74732
79 4 14.2484 5.60082 1.72734
80 5 7.18784 5.43506 1.62817
81 4 10.2756 10.6728 6.4414
82 4 6.99851 2.51154 1.42276
83 5 13.8478 2.26874 0.92564
84 4 11.6396 0.711783 8.17446
85 4 8.7182 2.41236 3.07366
86 5 11.6228 1.08349 9.18155
87 4 7.95652 7.69541 8.04789
88 4 12.3503 4.18788 1.78376
89 5 7.53386 8.00275 8.98696
90 5 11.9452 3.19657 1.86363
91 4 7.17176 6.89644 7.19389
92 4 11.532 5.19331 1.23982
93 5 14.1548 6.51397 6.90737
94 5 10.503 4.96725 0.985918
95 4 7.74641 6.33941 6.06849
96 4 12.0682 6.43724 0.935265
97 4 13.2789 1.94151 4.98017
98 4 9.56445 10.7311 0.436376
99 4 6.97212 5.51698 5.07502
100 4 11.2592 7.44373 0.143657
101 6 4.65084 0.29202 9.37349
102 7 5.6766 10.0827 9.50891
103 7 6.08712 9.73104 1.15105
104 5 6.56431 10.5279 9.08119
105 5 5.52711 9.15466 8.93327
106 5 6.99966 9.1128 1.27524
107 5 5.2159 9.15707 1.52519
108 5 6.1796 10.6484 1.76223
109 6 0.014407 0.493915 4.34711
110 7 15.0033 10.0872 4.06841
111 7 0.0263104 8.97196 3.40479
112 5 14.1013 10.3266 3.45686
113 5 14.6264 9.69951 5.03754
114 5 15.2736 8.01015 3.49262
115 5 1.02936 8.90484 3.8665
116 5 0.166601 9.15843 2.32853
117 6 15.2026 8.16159 8.62148
118 7 14.3084 9.20241 8.3012
119 7 13.9282 9.90301 9.60082
120 5 13.4233 8.80817 7.77711
121 5 14.7561 9.96119 7.61363
122 5 13.7514 0.219565 9.39719
123 5 14.9485 9.80736 0.517271
124 5 13.2502 9.5322 0.276052
125 6 3.31364 3.96144 3.5148
126 7 3.18118 4.15102 4.93008
127 7 2.0151 3.35882 5.52321
128 5 3.98403 3.68568 5.4897
129 5 3.23435 5.19768 5.24836
130 5 1.52091 2.76268 4.7458
131 5 2.35485 2.63319 6.29653
132 5 1.30521 4.02163 6.0434
133 6 8.93795 0.279888 6.23514
134 7 8.18354 10.0053 5.5876
135 7 8.09152 10.1441 4.07888
136 5 8.57258 9.02757 5.72796
137 5 7.16174 9.99726 6.01684
138 5 9.09503 10.2364 3.62538
139 5 7.62478 9.22606 3.66315
140 5 7.4415 0.249652 3.80121
141 6 9.05055 2.31752 4.41142
142 7 9.8751 3.36764 4.85166
143 7 9.69157 3.58632 6.35367
144 5 9.83308 4.28759 4.24591
145 5 10.8851 3.06011 4.76051
146 5 9.90474 2.65687 6.91195
147 5 8.65699 3.88052 6.60152
148 5 10.4038 4.3563 6.71568
149 6 11.2775 7.39227 6.5778
150 7 11.5977 8.13128 5.40848
151 7 12.2082 7.26163 4.33086
152 5 10.7342 8.643 4.92831
153 5 12.3568 8.88763 5.68255
154 5 12.0322 7.73757 3.34539
155 5 13.2982 7.21449 4.47778
156 5 11.7662 6.24545 4.32445
157 6 15.6186 5.63795 1.48426
158 7 0.188488 4.5576 0.640394
159 7 0.955811 4.88218 9.36593
160 5 15.1032 4.13103 0.0838219
161 5 0.71448 3.84025 1.2946
162 5 1.99683 4.78751 9.71977
163 5 0.74408 5.86671 8.95944
164 5 0.846756 4.15028 8.53679
