164
Atoms. Timestep: 0
Ni 2.89857 9.41116 8.59265
Ni 6.17525 3.10579 3.48481
O 1.44827 4.35425 3.93374
O 4.4416 8.15245 9.05464
O 4.63665 1.84729 3.87523
O 1.36499 10.6744 9.00295
O 5.80609 4.46033 4.96242
O 2.54244 8.0327 10.0675
O 0.25117 1.69264 4.94273
O 3.23722 10.8047 10.0626
N 3.69677 10.6606 7.2416
N 0.71256 1.8642 2.11704
N 2.17217 8.14409 7.25198
N 5.44023 4.39481 2.13747
C 3.48546 12.1483 5.36301
C 0.47488 0.38955 0.2292
H 2.86453 12.5181 4.55267
H 5.86971 0.03371 9.69377
C 4.76073 0.1474 5.61481
C 1.74333 12.3699 0.47412
C 5.50345 12.1502 6.68209
C 2.49852 0.35508 1.54004
H 0.24768 12.5084 6.91993
H 3.49155 12.5067 1.77336
C 2.48363 6.6337 5.40822
C 5.72803 5.90364 0.28669
H 3.13294 6.27291 4.61605
H -0.10828 6.26667 9.7662
C 2.92756 7.68099 6.23068
C 6.1883 4.86756 1.11596
H 3.89994 8.14655 6.0889
C 2.98256 11.1359 6.19748
C -0.01036 1.40553 1.07106
H 1.99392 10.709 6.04703
H 5.26093 1.85011 0.92351
C 4.93641 11.1381 7.47507
C 1.94823 1.3719 2.3406
C 0.94573 7.62654 7.47302
C 4.21083 4.90458 2.35686
C 0.43859 6.57577 6.69176
C 3.68763 5.945 1.56944
H 5.70774 6.17693 6.91975
H 2.69824 6.32683 1.80071
C 1.22745 6.06471 5.65205
C 4.46338 6.45777 0.52027
C 5.3126 1.24381 4.79419
C 2.0502 11.2675 9.92158
C 0.73548 4.94016 4.83586
C 3.73174 7.56629 9.95688
Ni 9.15137 9.41116 8.59265
Ni 12.4281 3.10579 3.48481
O 7.70109 4.35425 3.93374
O 10.6944 8.15245 9.05464
O 10.8895 1.84729 3.87523
O 7.61779 10.6744 9.00295
O 12.0589 4.46033 4.96242
O 8.79524 8.0327 10.0675
O 6.50397 1.69264 4.94273
O 9.49002 10.8047 10.0626
N 9.94957 10.6606 7.2416
N 6.96536 1.8642 2.11704
N 8.42499 8.14409 7.25198
N 11.693 4.39481 2.13747
C 9.73826 12.1483 5.36301
C 6.72768 0.38955 0.2292
H 9.11733 12.5181 4.55267
H 12.1225 0.03371 9.69377
C 11.0135 0.1474 5.61481
C 7.99613 12.3699 0.47412
C 11.7562 12.1502 6.68209
C 8.75132 0.35508 1.54004
H 6.50047 12.5084 6.91993
H 9.74435 12.5067 1.77336
C 8.73644 6.6337 5.40822
C 11.9808 5.90364 0.28669
H 9.38574 6.27291 4.61605
H 6.14452 6.26667 9.7662
C 9.18036 7.68099 6.23068
C 12.4411 4.86756 1.11596
H 7.16869 4.41889 0.97634
C 9.23536 11.1359 6.19748
C 6.24244 1.40553 1.07106
H 11.5137 1.85011 0.92351
C 11.1892 11.1381 7.47507
C 8.20102 1.3719 2.3406
H 11.7384 10.7097 8.30944
C 7.19853 7.62654 7.47302
C 10.4636 4.90458 2.35686
H 6.61608 8.05184 8.28732
H 9.88885 4.47744 3.17528
C 6.69139 6.57577 6.69176
C 9.94043 5.945 1.56944
H 11.9605 6.17693 6.91975
H 8.95104 6.32683 1.80071
C 7.48025 6.06471 5.65205
C 10.7162 6.45777 0.52027
C 11.5654 1.24381 4.79419
C 8.303 11.2675 9.92158
C 6.98827 4.94016 4.83586
C 9.98454 7.56629 9.95688
O 5.71366 10.642 8.52332
C 5.31741 9.65038 9.39983
C 6.65992 9.38367 0.1247
H 5.10315 8.71314 8.84104
H 4.40835 9.97349 9.95275
H 7.34945 9.05303 9.86662
H 6.34706 8.58708 0.83224
H 6.88554 10.3074 0.69881
O 2.73853 1.85548 3.38466
C 2.35985 2.84885 4.26689
C 3.48464 3.09954 5.2591
H 1.45094 2.53454 4.82514
H 2.15259 3.79021 3.71246
H 3.7035 2.17146 5.82884
H 3.18591 3.89748 5.97121
H 4.40184 3.42121 4.72139
O 0.12866 8.11658 8.49095
C 0.46749 9.143 9.35129
C 12.0546 9.39002 0.0455
H 0.65833 10.0744 8.77454
H 1.37571 8.8682 9.93106
H 10.91 9.67251 9.76022
H 12.3213 10.2144 0.73994
H 11.8516 8.47199 0.63701
O 3.40089 4.4159 3.38329
C 3.75246 3.40015 4.25112
C 2.61255 3.15118 5.22634
H 3.94952 2.46553 3.68172
H 4.66043 3.68824 4.82482
H 1.69594 2.85547 4.67294
H 2.88946 2.33528 5.92683
H 2.40349 4.07243 5.81066
O 7.96682 10.639 5.90559
C 7.3228 9.64698 6.61947
C 5.96142 9.37892 5.99718
H 7.92149 8.71029 6.59258
H 7.17923 9.97015 7.67373
H 6.08291 9.04821 4.94375
H 5.43873 8.58197 6.56701
H 5.34415 10.3021 6.01979
O 8.99132 1.85548 3.38467
C 8.61264 2.84884 4.2669
C 9.73741 3.09953 5.25912
H 7.70372 2.53452 4.82514
H 8.40538 3.79019 3.71247
H 9.95627 2.17143 5.82886
H 9.43869 3.89747 5.97123
H 10.6546 3.42119 4.72142
O 10.4315 8.22631 5.95411
C 11.0187 9.25797 6.66082
C -0.12605 9.57244 6.05945
H 10.3815 10.1676 6.60448
H 11.1549 8.96076 7.72365
H 12.265 9.87814 4.99772
H 0.35101 10.4014 6.62364
H 0.5292 8.67701 6.1116
O 1.19761 4.34402 0.8439
C 1.80191 3.3263 1.55636
C 3.16958 3.03408 0.95924
H 1.18152 2.40501 1.50268
H 1.93038 3.63056 2.61816
H 2.83538 2.72172 10.1729
H 3.66043 2.21643 1.52805
H 3.80831 3.94151 1.00883
164
Atoms. Timestep: 459
Ni 2.12152 8.98229 8.42809
Ni 6.27961 3.64047 3.9012
O -0.556089 4.33023 3.8928
O 3.43066 7.83857 8.53976
O 4.90226 2.55784 4.07583
O 0.81096 10.1409 8.51277
O 5.9061 4.87977 5.13493
O 1.58801 7.82142 9.73644
O -1.72364 2.22822 5.11568
O 2.5702 10.1068 9.80848
N 3.1692 10.0967 7.16148
N -0.96863 2.0101 2.63144
N 1.13853 7.89723 7.06482
N 5.31875 4.69063 2.59504
C 3.93263 10.9513 5.00071
C -0.586853 0.897792 0.523509
H 3.79808 11.0174 3.93129
H 6.91243 1.02449 9.26145
C 4.97215 11.6902 5.62829
C 0.728052 11.547 0.892717
C 5.24767 11.3863 6.9244
C 1.14841 0.817969 2.18755
H 13.8417 0.879646 7.25622
H 2.15183 11.608 2.49349
C 0.555963 6.95205 4.87889
C 5.12193 5.93047 0.534098
H 0.824079 6.7879 3.85046
H 13.5191 6.29695 9.21537
C 1.45421 7.69358 5.73298
C 5.8859 5.15886 1.44825
H 2.46933 7.8231 5.39844
C 2.99164 10.2036 5.79075
C -1.45898 1.51589 1.45844
H 2.01416 10.0364 5.36692
H 5.69596 2.32497 1.16288
C 4.3829 10.5669 7.67321
C 0.343578 1.64119 3.0331
C -0.138328 7.50139 7.47097
C 3.99031 5.08175 2.91563
C -0.962274 6.65345 6.6835
C 3.30079 6.00777 2.09867
H 6.40912 6.34765 7.28044
H 2.28969 6.27642 2.34466
C -0.603256 6.31295 5.40375
C 3.82329 6.39282 0.873887
C 5.52888 1.93218 5.0288
C 1.37781 10.7339 9.54279
C -1.25977 5.11054 4.68525
C 2.80864 7.22532 9.51694
Ni 10.1693 9.10976 8.82257
Ni 14.142 3.28497 3.72003
O 7.63768 4.76924 3.85457
O 11.6245 8.19902 8.91356
O 12.7078 2.21815 3.72775
O 8.71846 10.0474 8.93973
O 13.5606 4.59886 4.85138
O 10.0041 7.91106 0.485113
O 6.76237 2.50531 5.24826
O 10.7985 10.3423 0.456635
N 10.8767 10.3048 7.49323
N 7.18963 2.44838 2.67314
N 9.43143 7.86949 7.53545
N 13.4314 4.31739 2.25083
C 11.1399 11.2997 5.31395
C 7.51611 1.29875 0.57214
H 10.7852 11.4174 4.30876
H -1.16468 11.7252 9.17497
C 12.4301 11.7738 5.67204
C 8.8216 0.899144 0.937966
C 12.8787 11.5471 6.94742
C 9.37184 1.49148 2.05973
H 6.17277 11.7264 7.34091
H 10.4111 1.31972 2.29552
C 9.28262 6.5576 5.50177
C 13.309 5.9472 0.487778
H 9.72418 6.26322 4.55831
H 5.32573 6.15474 9.20607
C 10.0611 7.30432 6.4398
C 14.0796 5.10897 1.33946
H 6.90939 4.90676 1.20894
C 10.2973 10.6913 6.29785
C 6.70415 2.06418 1.45643
H 13.6277 1.73291 1.16802
C 12.1106 10.8123 7.83262
C 8.53482 2.11735 3.01008
H 12.5262 10.6054 8.79628
C 8.18288 7.39356 7.88324
C 12.0686 4.4978 2.41057
H 7.7629 7.64622 8.8423
H 11.6034 4.08067 3.2587
C 7.40621 6.64086 6.99951
C 11.354 5.5085 1.76741
H -1.88343 6.26857 7.08922
H 10.3293 5.71379 2.0621
C 7.91799 6.2625 5.77598
C 11.9738 6.27935 0.82347
C 13.2346 1.60923 4.76621
C 9.31611 10.7952 9.85771
C 7.07308 5.47316 4.80878
C 11.0662 7.48003 9.86287
O 4.68545 10.3848 9.00382
C 5.74991 9.4946 9.17264
C 6.24658 9.3556 1.02758
H 6.59949 9.92159 8.66178
H 5.59571 8.50229 8.70657
H 7.31854 9.14066 1.20695
H 5.63966 8.54231 1.46415
H 5.9768 10.2938 1.54898
O 1.01935 2.34621 4.04626
C 0.728578 1.86118 5.35263
C 1.8749 1.79269 6.31661
H 0.19794 0.874913 5.36096
H 0.183577 2.66878 5.87177
H 1.76988 0.879246 6.88322
H 1.73093 2.41256 7.20008
H 2.83038 2.03863 5.84098
O -0.528251 7.7253 8.76689
C -1.55177 8.67379 8.82946
C -1.62094 8.93879 0.67282
H 13.6971 8.27298 8.29009
H -1.35289 9.61592 8.28559
H 13.5337 9.48595 0.831676
H -0.782616 9.48954 1.11579
H -1.62997 8.00928 1.26025
O 3.21978 4.38759 3.87475
C 3.42264 4.87619 5.20008
C 2.27215 4.83102 6.17345
H 4.03562 4.11344 5.70842
H 3.83862 5.90873 5.2292
H 1.32711 4.54921 5.70446
H 2.52782 4.21907 7.04974
H 2.23689 5.73425 6.76875
O 8.91942 10.8665 6.19887
C 8.29622 9.78728 5.52153
C 7.44946 10.2129 4.3376
H 8.98963 9.06972 5.08388
H 7.62003 9.30006 6.2436
H 7.98428 10.0613 3.37862
H 6.5057 9.62134 4.3159
H 7.21676 11.2661 4.40801
O 8.95473 2.03039 4.35483
C 9.43836 3.25349 4.89884
C 10.4689 3.15928 6.0106
H 8.64197 3.67415 5.50853
H 9.77493 3.96205 4.13015
H 10.2708 2.31011 6.69106
H 10.4232 4.07524 6.63942
H 11.4806 3.19139 5.60442
O 11.4486 7.30453 6.3237
C 11.8709 8.25289 5.35246
C 12.6861 7.65276 4.22362
H 11.0469 8.76881 4.83028
H 12.5197 8.98538 5.86549
H 12.4215 8.13993 3.26082
H 13.7587 7.85893 4.38276
H 12.4725 6.58202 4.12943
O -0.648641 5.1579 1.27914
C -0.188289 4.09891 0.472144
C 0.742243 4.51515 9.24473
H -1.17495 3.6253 9.45138
H 0.280163 3.37677 1.14491
H 1.218 3.60188 8.86165
H 1.48508 5.03028 9.85382
H 0.393614 5.12987 8.40896
164
Atoms. Timestep: 6320
Ni 2.23137 9.13822 8.70594
Ni 6.39517 3.65952 3.99608
O -0.194064 4.31833 3.91074
O 3.59265 8.05663 8.75407
O 5.11128 2.48203 4.01335
O 0.883935 10.2185 8.85237
O 5.84149 4.82734 5.29186
O 1.71207 7.89094 9.90307
O -1.46499 2.38908 5.29306
O 2.89487 10.1683 0.484135
N 3.15175 10.4129 7.49783
N -0.957078 1.96038 2.70841
N 1.34341 8.09008 7.26113
N 5.4761 4.73772 2.67672
C 3.84337 11.1809 5.29776
C -0.0605551 1.47061 0.531303
H 3.69839 11.16 4.22766
H 7.34918 1.50002 9.17591
C 4.9117 0.897765 5.84777
C 1.01881 0.756632 1.08687
C 4.97945 0.982646 7.20943
C 1.08833 11.7169 2.47289
H 13.4723 1.71688 7.70974
H 1.83805 11.085 2.92592
C 1.20269 6.71853 5.2459
C 5.38219 6.33345 0.862154
H 1.61095 6.50979 4.27444
H 14.0608 7.54571 0.948432
C 1.96407 7.51245 6.18207
C 6.11817 5.47197 1.71959
H 3.01092 7.70717 5.99302
C 2.91453 10.5022 6.1508
C -1.11796 1.92511 1.35624
H 2.00278 10.1111 5.73519
H 5.99358 2.64609 1.11091
C 4.24778 11.1311 8.00585
C -0.0210606 1.08817 3.2458
C -0.00663935 7.78475 7.46986
C 4.08852 4.91518 2.86077
C -0.684844 6.80095 6.69354
C 3.38368 5.89428 2.12091
H 6.22637 6.76923 7.34061
H 2.31454 5.97958 2.24489
C -0.0999507 6.25776 5.5641
C 3.99295 6.549 1.06005
C 5.70648 1.8487 4.985
C 1.4993 10.7883 9.86726
C -0.836537 5.18102 4.71318
C 2.96816 7.36203 9.68937
Ni 10.1964 9.21857 9.00053
Ni -1.70933 3.39714 3.80728
O 7.69372 4.79883 4.12223
O 11.6835 8.29151 8.9852
O 12.892 2.51058 3.93783
O 8.74061 10.1223 9.23644
O 13.9576 4.78742 4.86981
O 10.0954 7.92565 0.593092
O 6.86536 2.50801 5.32627
O 10.8596 10.3403 0.697066
N 10.8447 10.5846 7.69551
N 7.38184 2.60105 2.72273
N 9.3769 8.06488 7.67057
N 13.7872 4.42251 2.23718
C 11.3466 11.3712 5.46513
C 7.82051 1.59877 0.575832
H 11.1148 11.3686 4.41422
H -0.358397 1.57155 9.09555
C 12.5143 1.02485 5.93312
C 9.04516 1.07527 1.05027
C 12.7011 1.07892 7.29497
C 9.55089 1.61792 2.20471
H 5.67499 1.66893 7.67118
H 10.5488 1.35298 2.5213
C 9.24034 6.5366 5.79937
C 13.5834 6.63733 1.25154
H 9.70108 6.17203 4.89806
H 5.68091 6.83104 9.69418
C 10.0165 7.336 6.69298
C -1.71292 5.58663 1.7834
H 7.18629 5.36683 1.58444
C 10.3993 10.7997 6.40577
C 6.96965 2.32798 1.44917
H 14.0796 2.28833 0.901567
C 11.8121 11.4651 8.1577
C 8.68683 2.26737 3.10016
H 11.8824 11.7229 9.19437
C 8.0569 7.74823 7.95446
C 12.4923 4.17643 1.81346
H 7.63025 8.0601 8.88807
H 12.0849 3.18045 1.8724
C 7.27174 6.93358 7.11266
C 11.6594 5.20755 1.32019
H -1.6727 6.47339 6.99513
H 10.6267 4.98971 1.07572
C 7.85089 6.312 6.02594
C 12.188 6.46792 1.0525
C 13.376 1.91418 5.01773
C 9.58012 10.8014 0.539113
C 7.05342 5.44398 5.06096
C 11.153 7.51295 9.9285
O 4.65739 10.9773 9.30415
C 5.71663 10.0622 9.34781
C 6.18305 9.67578 1.15832
H 6.58641 10.5364 8.89874
H 5.56057 9.15311 8.74338
H 7.06994 9.0159 1.23955
H 5.30091 9.14368 1.56845
H 6.34868 10.5831 1.77054
O -0.301282 11.4338 4.40439
C -1.1086 10.3087 4.09475
C -0.270644 9.13429 3.59528
H 14.1744 10.5383 3.37219
H -1.60501 9.98842 5.03319
H -0.850185 8.19518 3.65734
H 0.648727 9.05516 4.19857
H 0.0303481 9.2629 2.54255
O -0.627939 8.21618 8.61592
C -1.5716 9.20977 8.28334
C -1.94625 9.95297 9.56299
H 13.6438 8.75329 7.81312
H -1.17139 9.95446 7.55192
H 14.0272 11.0093 9.33381
H -0.943807 9.85665 0.683058
H 13.443 9.61331 0.400316
O 3.31992 3.92892 3.49095
C 3.14113 4.14561 4.89266
C 1.98533 3.31167 5.44565
H 3.95924 3.75206 5.4899
H 3.11344 5.20265 5.1755
H 1.49125 2.74674 4.63859
H 2.34165 2.55634 6.1808
H 1.26771 3.94837 5.99162
O 9.05202 11.099 6.20654
C 8.33049 10.0529 5.58221
C 8.05583 10.2984 4.11536
H 8.83809 9.1067 5.57902
H 7.36356 9.92428 6.11316
H 9.00974 10.4186 3.56768
H 7.53549 9.41147 3.69702
H 7.39386 11.1648 3.97782
O 9.00963 2.20051 4.43968
C 9.9093 3.20512 4.82636
C 9.7853 3.46561 6.32572
H 9.88638 4.12509 4.2151
H 10.8886 2.82078 4.68869
H 9.99171 2.54016 6.89823
H 8.76529 3.79902 6.59144
H 10.5262 4.2299 6.63994
O 11.39 7.39354 6.54339
C 11.7309 8.20098 5.42917
C 12.4664 7.40165 4.3813
H 10.8774 8.67943 4.90163
H 12.4191 8.99218 5.78084
H 12.5438 8.00589 3.45398
H 13.4845 7.205 4.74104
H 11.9414 6.44978 4.16086
O -0.338039 5.63604 1.56279
C 0.0447448 4.56208 0.718848
C 0.875176 4.91368 9.3206
H -1.01622 4.14583 9.76119
H 0.530137 3.81796 1.37488
H 1.89703 4.77445 9.71525
H 0.720146 5.93029 8.97356
H 0.78029 4.23701 8.44445
164
Atoms. Timestep: 6347
Ni 2.27633 9.08086 8.73581
Ni 6.39123 3.71241 3.97921
O -0.110551 4.3733 3.88117
O 3.62641 7.99347 8.77724
O 5.12108 2.52636 4.00001
O 0.9413 10.1682 8.88983
O 5.82409 4.87166 5.2674
O 1.74452 7.84762 9.92852
O -1.34994 2.45527 5.27485
O 2.95625 10.0947 0.422093
N 3.18628 10.3441 7.53159
N -0.87222 2.03013 2.68887
N 1.39848 8.04952 7.2926
N 5.48202 4.77146 2.66348
C 3.87001 11.0724 5.31974
C 0.0106829 1.56939 0.505215
H 3.71228 11.0495 4.25023
H 7.32595 1.62359 9.23371
C 4.94256 0.98143 5.85456
C 1.10001 0.872582 1.04627
C 5.0099 1.10233 7.21714
C 1.17966 11.6155 2.43468
H 13.4216 1.83442 7.70921
H 1.92865 10.9777 2.87582
C 1.26471 6.72526 5.25071
C 5.40148 6.32821 0.822386
H 1.67319 6.53362 4.27317
H 13.9729 7.54728 0.89718
C 2.0245 7.48838 6.20396
C 6.13121 5.48847 1.69653
H 3.07215 7.68775 6.01803
C 2.93746 10.4261 6.18221
C -1.04896 1.9901 1.33725
H 2.0186 10.0432 5.77526
H 5.97035 2.72494 1.09813
C 4.27546 11.0724 8.02896
C 0.0743389 1.17418 3.21779
C 0.0529284 7.74236 7.49265
C 4.09778 4.95236 2.84656
C -0.620056 6.77236 6.70434
C 3.40016 5.91772 2.09073
H 6.1878 6.74505 7.35444
H 2.32985 6.00428 2.21019
C -0.0340528 6.26538 5.55858
C 4.01515 6.54252 1.01374
C 5.72664 1.91029 4.97827
C 1.56744 10.7229 9.90797
C -0.762887 5.22525 4.68594
C 2.99469 7.31321 9.71834
Ni 10.147 9.16483 9.03378
Ni -1.61517 3.44936 3.78961
O 7.6757 4.86075 4.09913
O 11.6229 8.2378 9.0114
O 12.8066 2.5556 3.9257
O 8.70381 10.0658 9.27467
O 13.8451 4.82346 4.84715
O 10.0341 7.88523 0.524843
O 6.87659 2.57903 5.31245
O 10.8283 10.272 0.633401
N 10.7826 10.5245 7.72903
N 7.36787 2.66408 2.70831
N 9.33583 8.0229 7.70378
N 13.6904 4.45894 2.2276
C 11.2801 11.2723 5.48968
C 7.80932 1.72084 0.53682
H 11.0452 11.2582 4.43971
H -0.297783 1.67912 9.16567
C 12.4526 1.11524 5.94351
C 9.03206 1.19582 1.00105
C 12.6408 1.20152 7.3061
C 9.53818 1.7111 2.17072
H 5.71203 1.79243 7.6609
H 10.528 1.42431 2.49034
C 9.20476 6.52768 5.81499
C 13.4927 6.65033 1.22177
H 9.66211 6.19991 4.89808
H 5.69838 6.80605 9.7397
C 9.97812 7.30225 6.72191
C -1.61417 5.61532 1.76124
H 7.19879 5.37276 1.56085
C 10.3362 10.7204 6.43557
C 6.95366 2.41249 1.4282
H 13.9531 2.35073 0.885939
C 11.7478 11.4117 8.18116
C 8.67323 2.33644 3.07789
H 11.8266 11.6697 9.21838
C 8.01862 7.69968 7.98847
C 12.4045 4.19842 1.79561
H 7.59534 8.00174 8.92577
H 12.0102 3.19944 1.84867
C 7.23394 6.90943 7.12995
C 11.575 5.21299 1.28964
H -1.60844 6.43918 6.99728
H 10.5459 4.98663 1.03494
C 7.81412 6.32274 6.02528
C 12.105 6.46413 1.01024
C 13.3029 1.9764 5.0109
C 9.55216 10.7322 0.485067
C 7.02424 5.49825 5.0383
C 11.0815 7.46833 9.95489
O 4.68611 10.9362 9.33295
C 5.72257 9.99783 9.39222
C 6.18395 9.6155 1.11589
H 6.58704 10.4575 8.93358
H 5.56844 9.0925 8.78843
H 7.06736 8.95351 1.20647
H 5.30351 9.08596 1.52871
H 6.34616 10.519 1.72851
O -0.190563 11.3263 4.3828
C -1.02112 10.2189 4.08538
C -0.196906 9.05084 3.57474
H 14.0632 10.4611 3.3738
H -1.512 9.90829 5.03087
H -0.769571 8.11174 3.6321
H 0.728478 8.98731 4.16883
H 0.0993154 9.19097 2.52317
O -0.56669 8.15903 8.64497
C -1.49842 9.16173 8.3195
C -1.86097 9.89708 9.60731
H 13.531 8.71265 7.83792
H -1.09461 9.9082 7.59298
H 13.9226 10.9486 9.38029
H -0.855615 9.78769 0.629846
H 13.34 9.57056 0.355795
O 3.32834 3.97293 3.48732
C 3.16831 4.18328 4.8937
C 2.01959 3.354 5.45969
H 3.97769 3.77349 5.48814
H 3.17535 5.23794 5.18056
H 1.52743 2.78408 4.65622
H 2.37429 2.59749 6.19456
H 1.30703 3.99208 6.0065
O 8.98992 11.0179 6.22935
C 8.2765 9.97815 5.58389
C 8.02334 10.2177 4.10847
H 8.78625 9.04 5.584
H 7.30603 9.84183 6.10443
H 8.98145 10.336 3.56833
H 7.50966 9.33034 3.68523
H 7.36336 11.0766 3.95438
O 8.99645 2.24679 4.41836
C 9.86605 3.26679 4.82845
C 9.73766 3.51409 6.33437
H 9.85932 4.17832 4.21003
H 10.8427 2.89649 4.70488
H 9.94531 2.59289 6.90611
H 8.72089 3.8438 6.60771
H 10.4795 4.2737 6.65499
O 11.3518 7.37304 6.56085
C 11.675 8.17125 5.43297
C 12.3911 7.37799 4.37147
H 10.8142 8.63819 4.91213
H 12.3675 8.96062 5.77095
H 12.4656 7.9857 3.44593
H 13.4086 7.19334 4.72669
H 11.8699 6.42574 4.15026
O -0.240177 5.66163 1.52906
C 0.12676 4.59174 0.676596
C 0.943404 4.92635 9.36025
H -0.947123 4.19318 9.81875
H 0.621487 3.85502 1.32774
H 1.96885 4.78796 9.74633
H 0.777772 5.93185 9.00744
H 0.841548 4.25031 8.4848
164
Atoms. Timestep: 9249
Ni 2.27379 9.07075 8.73597
Ni 6.39794 3.70648 3.99461
O -0.100825 4.35119 3.88847
O 3.61854 7.97308 8.77897
O 5.14528 2.50056 3.99556
O 0.947035 10.1614 8.8868
O 5.80993 4.844 5.29637
O 1.73053 7.83249 9.92066
O -1.34518 2.4197 5.2706
O 2.95986 10.0714 0.42129
N 3.19523 10.342 7.53036
N -0.843728 1.99898 2.69475
N 1.38687 8.05114 7.28586
N 5.47138 4.76797 2.68742
C 3.91171 11.0251 5.31748
C 0.0128177 1.54236 0.506678
H 3.78388 10.9583 4.24724
H 7.38008 1.68698 9.23665
C 4.96871 0.960018 5.85215
C 1.11934 0.861841 1.03759
C 5.01318 1.11114 7.20981
C 1.22647 11.6214 2.42062
H 13.3565 1.89705 7.69527
H 2.00423 11.0108 2.85422
C 1.27363 6.70024 5.26552
C 5.38538 6.33053 0.853134
H 1.70232 6.48797 4.30301
H 13.9844 7.53495 0.890766
C 2.02368 7.46517 6.2229
C 6.11698 5.50008 1.73232
H 3.08009 7.63453 6.06483
C 2.96637 10.3977 6.18071
C -1.03969 1.94914 1.35108
H 2.04274 10.0267 5.77106
H 6.00732 2.74119 1.11251
C 4.2631 11.1047 8.0337
C 0.124551 1.15707 3.21546
C 0.0286384 7.77186 7.46555
C 4.08282 4.93192 2.86521
C -0.650515 6.81636 6.66171
C 3.37512 5.88393 2.09466
H 6.16536 6.73357 7.39641
H 2.30574 5.96955 2.21265
C -0.0408439 6.26525 5.55061
C 3.99411 6.52299 1.02535
C 5.75708 1.87868 4.96657
C 1.57735 10.7111 9.90289
C -0.759024 5.20355 4.68778
C 2.97984 7.29268 9.71878
Ni 10.1427 9.17722 9.03776
Ni -1.60209 3.41865 3.78594
O 7.66062 4.87089 4.12991
O 11.6186 8.23965 8.99412
O 12.8207 2.51772 3.91143
O 8.70335 10.0838 9.30209
O 13.8493 4.79685 4.84288
O 10.048 7.8941 0.534011
O 6.89606 2.56472 5.31116
O 10.8492 10.2856 0.627854
N 10.7595 10.54 7.72219
N 7.40403 2.68867 2.71706
N 9.30899 8.03789 7.72227
N 13.7026 4.4339 2.21634
C 11.2681 11.2573 5.47968
C 7.85564 1.76578 0.543929
H 11.0444 11.2319 4.42788
H -0.306375 1.65499 9.16881
C 12.4401 1.10182 5.93582
C 9.07154 1.22649 1.01215
C 12.5997 1.23118 7.29756
C 9.57617 1.73437 2.18333
H 5.71043 1.8102 7.65195
H 10.5608 1.43267 2.50867
C 9.16394 6.56529 5.81898
C 13.5067 6.63066 1.2031
H 9.60403 6.26536 4.88542
H 5.68624 6.82043 9.77915
C 9.94411 7.32958 6.72631
C -1.60123 5.5931 1.75174
H 7.18827 5.40872 1.61335
C 10.3148 10.719 6.42757
C 6.99509 2.44618 1.43671
H 13.9412 2.27305 0.917591
C 11.6897 11.4635 8.169
C 8.71556 2.37017 3.08722
H 11.6961 11.8037 9.18629
C 7.993 7.71618 8.01322
C 12.4124 4.17873 1.78993
H 7.57037 8.02236 8.95181
H 12.0083 3.18433 1.85651
C 7.20741 6.91255 7.1639
C 11.5876 5.19515 1.27038
H -1.6533 6.50803 6.93262
H 10.5575 4.97226 1.01848
C 7.78339 6.33162 6.05262
C 12.1199 6.44705 0.985854
C 13.3111 1.932 4.99408
C 9.57125 10.7514 0.500264
C 7.00118 5.49222 5.07061
C 11.0892 7.46972 9.94638
O 4.65328 11.0095 9.34322
C 5.69184 10.0742 9.43422
C 6.12724 9.7025 1.1584
H 6.57285 10.5297 8.99532
H 5.53601 9.15625 8.84405
H 7.02227 9.05574 1.25942
H 5.24577 9.15577 1.54974
H 6.26391 10.6137 1.77088
O -0.115064 11.2943 4.37815
C -0.913761 10.1586 4.08466
C -0.090768 9.02337 3.47702
H 14.1225 10.3967 3.43187
H -1.33509 9.79201 5.04322
H -0.640762 8.0681 3.55896
H 0.887571 8.95438 3.9859
H 0.103511 9.18928 2.40554
O -0.603086 8.1917 8.60922
C -1.51591 9.21514 8.28285
C -1.89813 9.9306 9.57461
H 13.5082 8.79751 7.77667
H -1.08338 9.9701 7.58139
H 13.8457 10.9832 9.36095
H -0.883661 9.841 0.587471
H 13.3226 9.56553 0.333786
O 3.32066 3.94366 3.51011
C 3.17097 4.14182 4.92075
C 2.00548 3.33584 5.49521
H 3.979 3.69987 5.49455
H 3.19617 5.19279 5.2284
H 1.51326 2.75194 4.70464
H 2.34763 2.59825 6.25559
H 1.29178 3.99061 6.0219
O 8.97335 11.0446 6.22322
C 8.23284 10.0236 5.57875
C 8.09074 10.2038 4.08064
H 8.66477 9.05337 5.67198
H 7.22339 9.9755 6.03714
H 9.08258 10.311 3.60386
H 7.61347 9.29591 3.65538
H 7.43319 11.0525 3.84887
O 9.04284 2.27863 4.42583
C 9.888 3.31535 4.85593
C 9.71339 3.54579 6.35664
H 9.85526 4.23551 4.2488
H 10.8905 2.98445 4.7567
H 9.92069 2.61628 6.91931
H 8.68193 3.85291 6.60412
H 10.4325 4.31401 6.70903
O 11.3174 7.39426 6.56108
C 11.6413 8.16369 5.41382
C 12.3127 7.32894 4.3475
H 10.7773 8.65602 4.91421
H 12.3679 8.93842 5.72069
H 12.2593 7.87181 3.382
H 13.376 7.21481 4.60076
H 11.8268 6.33836 4.23848
O -0.229005 5.6355 1.51745
C 0.137336 4.55722 0.674242
C 0.927076 4.89315 9.33009
H -0.939708 4.13236 9.83859
H 0.649641 3.83107 1.32985
H 1.96185 4.78699 9.69905
H 0.732785 5.88862 8.94237
H 0.824901 4.17855 8.48533
164
Atoms. Timestep: 9257
Ni 2.28445 9.05805 8.74461
Ni 6.39701 3.7175 3.99142
O -0.0793671 4.3618 3.88336
O 3.62742 7.96117 8.78734
O 5.14731 2.51194 3.99256
O 0.960512 10.1488 8.8959
O 5.80649 4.85256 5.29374
O 1.73763 7.82319 9.92991
O -1.31898 2.43514 5.2685
O 2.9732 10.0552 0.407704
N 3.20108 10.3256 7.53634
N -0.825748 2.01604 2.68813
N 1.40229 8.04068 7.29362
N 5.47473 4.77779 2.684
C 3.91744 11.0027 5.32
C 0.0308543 1.56418 0.497506
H 3.7903 10.9374 4.24727
H 7.37583 1.70809 9.24873
C 4.97229 0.983373 5.85512
C 1.13511 0.885678 1.02851
C 5.01846 1.1355 7.2139
C 1.24303 11.5967 2.41247
H 13.3374 1.91846 7.70118
H 2.01932 10.9882 2.84818
C 1.28794 6.69999 5.26604
C 5.38922 6.33005 0.842015
H 1.7153 6.48791 4.30182
H 13.9632 7.53229 0.879178
C 2.03771 7.46015 6.22618
C 6.11983 5.50324 1.72439
H 3.0918 7.62909 6.06723
C 2.97342 10.3781 6.18502
C -1.02082 1.9678 1.34331
H 2.05178 10.0094 5.77306
H 6.00508 2.75767 1.10281
C 4.26887 11.0855 8.0393
C 0.143952 1.17966 3.20901
C 0.0458443 7.76411 7.47136
C 4.0872 4.9391 2.86099
C -0.63283 6.81273 6.66523
C 3.38175 5.8878 2.08566
H 6.16185 6.73049 7.4019
H 2.3143 5.97153 2.20541
C -0.0238076 6.26567 5.55212
C 4.00046 6.52217 1.01476
C 5.75815 1.89586 4.96766
C 1.58997 10.6929 9.91597
C -0.738997 5.20997 4.68665
C 2.9883 7.28582 9.7306
Ni 10.1303 9.16418 9.04714
Ni -1.57959 3.43096 3.78224
O 7.65745 4.88162 4.12668
O 11.6039 8.22793 9.00233
O 12.7987 2.53049 3.90845
O 8.6935 10.0695 9.31077
O 13.8215 4.80622 4.83961
O 10.0324 7.88395 0.519702
O 6.89785 2.57987 5.30946
O 10.84 10.2698 0.614404
N 10.744 10.5224 7.72928
N 7.39798 2.70144 2.71179
N 9.30003 8.02749 7.73145
N 13.6792 4.44275 2.21394
C 11.2526 11.2341 5.483
C 7.85099 1.7878 0.533979
H 11.0294 11.2097 4.42828
H -0.288466 1.6755 9.181
C 12.4215 1.12471 5.93879
C 9.06435 1.24988 1.00263
C 12.5821 1.2552 7.3018
C 9.56816 1.75396 2.17708
H 5.7138 1.83243 7.6577
H 10.5505 1.4524 2.50209
C 9.15491 6.56409 5.82074
C 13.486 6.63252 1.19267
H 9.59388 6.2666 4.88574
H 5.6876 6.81772 9.79056
C 9.9346 7.32436 6.73127
C -1.57641 5.59927 1.74441
H 7.18842 5.41207 1.60458
C 10.3005 10.6978 6.43285
C 6.99083 2.46422 1.42847
H 13.916 2.29096 0.907466
C 11.6733 11.4433 8.17492
C 8.70862 2.38672 3.08155
H 11.6804 0.984779 9.1938
C 7.98544 7.70896 8.02081
C 12.3925 4.18478 1.78299
H 7.56488 8.0134 8.96035
H 11.9897 3.19321 1.84898
C 7.20155 6.90862 7.16857
C 11.5696 5.19889 1.26101
H -1.63348 6.50529 6.9368
H 10.5422 4.97676 1.00779
C 7.7774 6.33168 6.05484
C 12.1028 6.4478 0.974955
C 13.2894 1.95036 4.99475
C 9.5612 10.7316 0.489331
C 6.99817 5.49846 5.07067
C 11.0742 7.4633 9.95814
O 4.65571 10.9939 9.34956
C 5.69345 10.0565 9.44698
C 6.1273 9.68754 1.14675
H 6.57149 10.5116 9.0045
H 5.53811 9.14103 8.85332
H 7.02198 9.04168 1.25006
H 5.24692 9.1419 1.54111
H 6.26384 10.5967 1.76283
O -0.0927742 11.2749 4.3742
C -0.895398 10.1402 4.08359
C -0.0712753 9.01008 3.47108
H 14.0969 10.3788 3.42755
H -1.31373 9.77558 5.04263
H -0.622097 8.05695 3.55493
H 0.90466 8.94235 3.98312
H 0.121147 9.17627 2.39973
O -0.582992 8.17862 8.6164
C -1.49553 9.20358 8.29224
C -1.87507 9.91396 9.58523
H 13.4842 8.78568 7.78288
H -1.06268 9.95654 7.58738
H 13.8215 10.9655 9.37121
H -0.86197 9.82475 0.576011
H 13.3006 9.55104 0.322209
O 3.32555 3.95167 3.50837
C 3.17977 4.15117 4.91854
C 2.01655 3.34711 5.49567
H 3.98513 3.70988 5.49561
H 3.20583 5.2003 5.22866
H 1.526 2.76592 4.70395
H 2.35859 2.61264 6.25881
H 1.30463 4.00173 6.02465
O 8.96194 11.0277 6.22629
C 8.22453 10.0071 5.57759
C 8.08572 10.1864 4.08023
H 8.65689 9.03861 5.67274
H 7.21791 9.95869 6.03919
H 9.07538 10.2933 3.6
H 7.60798 9.28012 3.65135
H 7.42755 11.0333 3.84533
O 9.03397 2.29148 4.42034
C 9.87701 3.32953 4.85702
C 9.70242 3.55737 6.35753
H 9.84548 4.24676 4.24643
H 10.8773 2.99872 4.75611
H 9.90947 2.63006 6.92409
H 8.67213 3.86384 6.60816
H 10.4211 4.32436 6.71338
O 11.3062 7.38804 6.56405
C 11.625 8.15567 5.41439
C 12.2945 7.32487 4.34536
H 10.7618 8.64652 4.91319
H 12.3513 8.92872 5.72211
H 12.241 7.86553 3.37825
H 13.3563 7.2107 4.59949
H 11.8086 6.33478 4.23597
O -0.2061 5.64134 1.50891
C 0.155865 4.56411 0.662155
C 0.941933 4.89816 9.34108
H -0.921433 4.14132 9.84964
H 0.667842 3.84061 1.3203
H 1.97532 4.79292 9.71043
H 0.747325 5.89241 8.95144
H 0.839742 4.18642 8.49369
164
Atoms. Timestep: 11389
Ni 2.28415 9.0539 8.74372
Ni 6.39739 3.71783 3.99488
O -0.0770539 4.36013 3.88151
O 3.62524 7.95265 8.78606
O 5.15192 2.50584 3.99224
O 0.961953 10.1469 8.89521
O 5.80172 4.84822 5.29796
O 1.73521 7.81808 9.92558
O -1.31424 2.42783 5.26472
O 2.97514 10.0479 0.405044
N 3.20581 10.3241 7.53881
N -0.81544 2.0087 2.69051
N 1.39816 8.04042 7.2924
N 5.46936 4.7755 2.69047
C 3.92424 10.9912 5.32363
C 0.0309325 1.55946 0.499828
H 3.7984 10.9159 4.2538
H 7.38606 1.73223 9.2532
C 4.98009 0.976033 5.85419
C 1.14341 0.886531 1.02449
C 5.02268 1.13904 7.2108
C 1.25988 11.5988 2.40671
H 13.3328 1.93703 7.69141
H 2.04412 10.9932 2.83545
C 1.29101 6.6984 5.26836
C 5.38607 6.33022 0.851589
H 1.7242 6.48685 4.30757
H 13.9631 7.53421 0.879456
C 2.03843 7.45499 6.23174
C 6.11621 5.50782 1.73662
H 3.09662 7.61949 6.08052
C 2.97639 10.3749 6.18928
C -1.0199 1.95503 1.34905
H 2.04934 10.0096 5.78169
H 6.00915 2.76369 1.11308
C 4.26787 11.0958 8.0405
C 0.160185 1.17396 3.20699
C 0.0386448 7.76583 7.46557
C 4.08049 4.93615 2.86616
C -0.64032 6.81806 6.65415
C 3.37264 5.88157 2.08804
H 6.15109 6.72307 7.41113
H 2.30339 5.96794 2.20469
C -0.0255768 6.26797 5.54585
C 3.9943 6.51658 1.01684
C 5.76719 1.88705 4.96352
C 1.59584 10.6922 9.91155
C -0.739059 5.20998 4.68009
C 2.983 7.2759 9.72704
Ni 10.1295 9.16748 9.0462
Ni -1.57493 3.42439 3.78009
O 7.65176 4.88771 4.13227
O 11.6021 8.22652 8.9972
O 12.8047 2.51981 3.90538
O 8.69439 10.0759 9.31568
O 13.8245 4.79947 4.83561
O 10.035 7.88714 0.51853
O 6.90201 2.57858 5.30835
O 10.8457 10.2732 0.609314
N 10.7412 10.5285 7.72805
N 7.4076 2.70915 2.71617
N 9.29252 8.03132 7.73444
N 13.682 4.43717 2.2107
C 11.2511 11.231 5.48342
C 7.86234 1.80562 0.536907
H 11.0294 11.2003 4.43159
H -0.293151 1.67572 9.18692
C 12.4241 1.12071 5.9367
C 9.0755 1.26121 1.00361
C 12.5786 1.26595 7.29781
C 9.5792 1.75828 2.17986
H 5.72122 1.83996 7.64834
H 10.5598 1.44626 2.50748
C 9.14442 6.57417 5.82222
C 13.4862 6.6302 1.19265
H 9.57866 6.2906 4.88105
H 5.68774 6.81824 9.80174
C 9.92601 7.32949 6.73293
C -1.57507 5.59584 1.74376
H 7.18833 5.42033 1.62226
C 10.2963 10.7009 6.43272
C 6.99953 2.47428 1.43417
H 13.9089 2.26983 0.920874
C 11.6651 11.4591 8.17119
C 8.72034 2.39362 3.08469
H 11.6611 1.0169 9.1843
C 7.97792 7.70735 8.02789
C 12.3928 4.17931 1.78409
H 7.55627 8.01287 8.96744
H 11.99 3.18524 1.8529
C 7.19206 6.90626 7.17694
C 11.5696 5.19156 1.25756
H -1.64612 6.51332 6.91778
H 10.5404 4.96669 1.00332
C 7.76652 6.33677 6.05876
C 12.1019 6.44197 0.969725
C 13.2967 1.93734 4.98896
C 9.56865 10.7404 0.487767
C 6.98801 5.50349 5.07343
C 11.0722 7.45902 9.95128
O 4.65136 11.016 9.35306
C 5.68543 10.077 9.45808
C 6.11279 9.71137 1.16089
H 6.56891 10.5284 9.02215
H 5.53071 9.15582 8.87288
H 7.0135 9.07352 1.2689
H 5.23454 9.15572 1.54658
H 6.2353 10.6246 1.77311
O -0.0701486 11.2614 4.37018
C -0.867178 10.1237 4.08001
C -0.048865 8.9975 3.44914
H 14.1111 10.3633 3.44301
H -1.27174 9.74708 5.04201
H -0.593466 8.03927 3.53177
H 0.939318 8.9293 3.93982
H 0.124915 9.17293 2.37584
O -0.595804 8.18209 8.60856
C -1.50148 9.21201 8.2836
C -1.88377 9.92217 9.57766
H 13.4757 8.80302 7.77068
H -1.06244 9.96842 7.58774
H 13.8091 10.9741 9.3669
H -0.867805 9.83075 0.564712
H 13.2939 9.55499 0.315327
O 3.31945 3.94767 3.51456
C 3.17626 4.14193 4.92711
C 2.00925 3.34239 5.5077
H 3.98196 3.68972 5.49537
H 3.21317 5.19113 5.23968
H 1.51699 2.7537 4.7218
H 2.34899 2.60968 6.27402
H 1.2966 4.00113 6.03015
O 8.95677 11.0343 6.22747
C 8.21005 10.0188 5.58114
C 8.09423 10.18 4.07769
H 8.62139 9.04443 5.69755
H 7.19375 9.99058 6.02444
H 9.09242 10.28 3.61341
H 7.62222 9.26765 3.656
H 7.44113 11.0256 3.82391
O 9.0497 2.30045 4.42298
C 9.88487 3.34363 4.85835
C 9.70478 3.56822 6.35953
H 9.84741 4.26372 4.25205
H 10.8914 3.0243 4.76335
H 9.91489 2.63846 6.91987
H 8.67138 3.86855 6.60631
H 10.4197 4.33784 6.71715
O 11.2994 7.39408 6.56541
C 11.6215 8.15259 5.41005
C 12.2719 7.30556 4.3396
H 10.757 8.65142 4.91759
H 12.3598 8.92091 5.70498
H 12.1769 7.82664 3.36559
H 13.3459 7.21493 4.55746
H 11.7998 6.30525 4.266
O -0.203778 5.63731 1.50454
C 0.158419 4.55722 0.662603
C 0.940216 4.88662 9.3339
H -0.922454 4.13117 9.85702
H 0.675753 3.83568 1.31922
H 1.97733 4.78529 9.69741