164
Atoms. Timestep: 0
Ni 2.89857 9.41116 8.59265
Ni 6.17525 3.10579 3.48481
O 1.44827 4.35425 3.93374
O 4.4416 8.15245 9.05464
O 4.63665 1.84729 3.87523
O 1.36499 10.6744 9.00295
O 5.80609 4.46033 4.96242
O 2.54244 8.0327 10.0675
O 0.25117 1.69264 4.94273
O 3.23722 10.8047 10.0626
N 3.69677 10.6606 7.2416
N 0.71256 1.8642 2.11704
N 2.17217 8.14409 7.25198
N 5.44023 4.39481 2.13747
C 3.48546 12.1483 5.36301
C 0.47488 0.38955 0.2292
H 2.86453 12.5181 4.55267
H 5.86971 0.03371 9.69377
C 4.76073 0.1474 5.61481
C 1.74333 12.3699 0.47412
C 5.50345 12.1502 6.68209
C 2.49852 0.35508 1.54004
H 0.24768 12.5084 6.91993
H 3.49155 12.5067 1.77336
C 2.48363 6.6337 5.40822
C 5.72803 5.90364 0.28669
H 3.13294 6.27291 4.61605
H -0.10828 6.26667 9.7662
C 2.92756 7.68099 6.23068
C 6.1883 4.86756 1.11596
H 3.89994 8.14655 6.0889
C 2.98256 11.1359 6.19748
C -0.01036 1.40553 1.07106
H 1.99392 10.709 6.04703
H 5.26093 1.85011 0.92351
C 4.93641 11.1381 7.47507
C 1.94823 1.3719 2.3406
C 0.94573 7.62654 7.47302
C 4.21083 4.90458 2.35686
C 0.43859 6.57577 6.69176
C 3.68763 5.945 1.56944
H 5.70774 6.17693 6.91975
H 2.69824 6.32683 1.80071
C 1.22745 6.06471 5.65205
C 4.46338 6.45777 0.52027
C 5.3126 1.24381 4.79419
C 2.0502 11.2675 9.92158
C 0.73548 4.94016 4.83586
C 3.73174 7.56629 9.95688
Ni 9.15137 9.41116 8.59265
Ni 12.4281 3.10579 3.48481
O 7.70109 4.35425 3.93374
O 10.6944 8.15245 9.05464
O 10.8895 1.84729 3.87523
O 7.61779 10.6744 9.00295
O 12.0589 4.46033 4.96242
O 8.79524 8.0327 10.0675
O 6.50397 1.69264 4.94273
O 9.49002 10.8047 10.0626
N 9.94957 10.6606 7.2416
N 6.96536 1.8642 2.11704
N 8.42499 8.14409 7.25198
N 11.693 4.39481 2.13747
C 9.73826 12.1483 5.36301
C 6.72768 0.38955 0.2292
H 9.11733 12.5181 4.55267
H 12.1225 0.03371 9.69377
C 11.0135 0.1474 5.61481
C 7.99613 12.3699 0.47412
C 11.7562 12.1502 6.68209
C 8.75132 0.35508 1.54004
H 6.50047 12.5084 6.91993
H 9.74435 12.5067 1.77336
C 8.73644 6.6337 5.40822
C 11.9808 5.90364 0.28669
H 9.38574 6.27291 4.61605
H 6.14452 6.26667 9.7662
C 9.18036 7.68099 6.23068
C 12.4411 4.86756 1.11596
H 7.16869 4.41889 0.97634
C 9.23536 11.1359 6.19748
C 6.24244 1.40553 1.07106
H 11.5137 1.85011 0.92351
C 11.1892 11.1381 7.47507
C 8.20102 1.3719 2.3406
H 11.7384 10.7097 8.30944
C 7.19853 7.62654 7.47302
C 10.4636 4.90458 2.35686
H 6.61608 8.05184 8.28732
H 9.88885 4.47744 3.17528
C 6.69139 6.57577 6.69176
C 9.94043 5.945 1.56944
H 11.9605 6.17693 6.91975
H 8.95104 6.32683 1.80071
C 7.48025 6.06471 5.65205
C 10.7162 6.45777 0.52027
C 11.5654 1.24381 4.79419
C 8.303 11.2675 9.92158
C 6.98827 4.94016 4.83586
C 9.98454 7.56629 9.95688
O 5.71366 10.642 8.52332
C 5.31741 9.65038 9.39983
C 6.65992 9.38367 0.1247
H 5.10315 8.71314 8.84104
H 4.40835 9.97349 9.95275
H 7.34945 9.05303 9.86662
H 6.34706 8.58708 0.83224
H 6.88554 10.3074 0.69881
O 2.73853 1.85548 3.38466
C 2.35985 2.84885 4.26689
C 3.48464 3.09954 5.2591
H 1.45094 2.53454 4.82514
H 2.15259 3.79021 3.71246
H 3.7035 2.17146 5.82884
H 3.18591 3.89748 5.97121
H 4.40184 3.42121 4.72139
O 0.12866 8.11658 8.49095
C 0.46749 9.143 9.35129
C 12.0546 9.39002 0.0455
H 0.65833 10.0744 8.77454
H 1.37571 8.8682 9.93106
H 10.91 9.67251 9.76022
H 12.3213 10.2144 0.73994
H 11.8516 8.47199 0.63701
O 3.40089 4.4159 3.38329
C 3.75246 3.40015 4.25112
C 2.61255 3.15118 5.22634
H 3.94952 2.46553 3.68172
H 4.66043 3.68824 4.82482
H 1.69594 2.85547 4.67294
H 2.88946 2.33528 5.92683
H 2.40349 4.07243 5.81066
O 7.96682 10.639 5.90559
C 7.3228 9.64698 6.61947
C 5.96142 9.37892 5.99718
H 7.92149 8.71029 6.59258
H 7.17923 9.97015 7.67373
H 6.08291 9.04821 4.94375
H 5.43873 8.58197 6.56701
H 5.34415 10.3021 6.01979
O 8.99132 1.85548 3.38467
C 8.61264 2.84884 4.2669
C 9.73741 3.09953 5.25912
H 7.70372 2.53452 4.82514
H 8.40538 3.79019 3.71247
H 9.95627 2.17143 5.82886
H 9.43869 3.89747 5.97123
H 10.6546 3.42119 4.72142
O 10.4315 8.22631 5.95411
C 11.0187 9.25797 6.66082
C -0.12605 9.57244 6.05945
H 10.3815 10.1676 6.60448
H 11.1549 8.96076 7.72365
H 12.265 9.87814 4.99772
H 0.35101 10.4014 6.62364
H 0.5292 8.67701 6.1116
O 1.19761 4.34402 0.8439
C 1.80191 3.3263 1.55636
C 3.16958 3.03408 0.95924
H 1.18152 2.40501 1.50268
H 1.93038 3.63056 2.61816
H 2.83538 2.72172 10.1729
H 3.66043 2.21643 1.52805
H 3.80831 3.94151 1.00883
164
Atoms. Timestep: 192
Ni 2.97647 9.37123 8.88878
Ni 6.34245 3.10917 3.86662
O 0.927365 4.50405 3.79685
O 4.3012 8.08519 8.96954
O 5.00118 1.88669 3.97441
O 1.67185 10.65 9.02913
O 5.90797 4.1948 5.20654
O 2.52875 8.17036 10.1962
O 0.0214935 2.20536 4.89835
O 3.44271 10.5121 10.2718
N 3.91098 10.5528 7.56185
N 0.787276 1.97383 2.32656
N 1.9915 8.2567 7.50103
N 5.47474 4.35697 2.50369
C 4.13108 11.6127 5.34183
C 0.679848 0.376128 0.446611
H 3.76695 11.6845 4.33011
H 6.7594 0.923378 9.51899
C 5.16826 12.4724 5.77056
C 1.92496 12.3197 0.74649
C 5.66207 12.2369 7.07702
C 2.57807 0.29028 1.91288
H 0.256484 0.29682 6.85251
H 3.58259 12.4744 2.13577
C 1.66378 7.29787 5.21779
C 5.76685 5.84792 0.542015
H 2.03466 7.23851 4.20781
H 11.7719 5.53876 9.1687
C 2.45557 8.01908 6.21285
C 6.22549 4.80215 1.42812
H 3.48013 8.25927 5.96911
C 3.41322 10.8009 6.29273
C 0.111517 1.40393 1.25907
H 2.40337 10.5138 6.05005
H 5.73339 2.15496 0.989041
C 5.06787 11.2566 7.96214
C 1.96725 1.32046 2.754
C 0.783537 7.64146 7.88041
C 4.24517 5.03032 2.74601
C 0.106801 6.69119 6.93853
C 3.85003 6.16082 1.94338
H 5.5482 6.68251 6.60847
H 2.89948 6.63296 2.14608
C 0.56923 6.46315 5.59141
C 4.55111 6.53107 0.77992
C 5.66741 1.19968 4.92043
C 2.334 11.2426 10.0421
C 0.102813 5.17934 4.63092
C 3.65509 7.47773 9.98171
Ni 9.31125 9.54742 8.60619
Ni 12.2046 3.20639 3.48817
O 7.69424 4.32886 3.99681
O 10.492 8.20784 8.71171
O 10.9859 1.86728 3.43856
O 8.12958 10.9476 8.7793
O 11.433 4.4695 4.65552
O 8.66963 8.42227 9.93092
O 6.76752 1.87693 5.16552
O 9.96881 10.7079 9.93469
N 10.1944 10.608 7.17651
N 7.23982 1.99259 2.4888
N 8.42477 8.40834 7.23593
N 11.4916 4.22337 1.92294
C 10.182 11.6899 4.99721
C 7.38385 0.940402 0.242538
H 9.83523 11.5958 3.99218
H 12.4336 0.0808223 9.82853
C 11.2869 -0.00948665 5.29717
C 8.55027 0.181002 0.540224
C 11.9253 12.2239 6.52249
C 9.11631 0.467709 1.84392
H 6.49237 0.304914 7.42982
H 10.0575 0.00768579 2.09236
C 8.82836 6.35747 5.98206
C 11.3778 5.54986 10.1504
H 9.56226 5.60014 5.76457
H 6.13842 6.10572 9.95325
C 9.22711 7.66466 6.36784
C 12.2398 4.71183 0.872383
H 7.18561 4.35217 1.23491
C 9.48911 11.0005 6.05145
C 6.69321 1.7298 1.24456
H 11.6521 1.79664 0.976992
C 11.4055 11.2253 7.40491
C 8.44318 1.37617 2.83877
H 11.8897 11.0964 8.33392
C 7.14514 7.90446 7.43552
C 10.1549 4.57545 1.95201
H 6.71732 7.93048 8.40147
H 9.49147 4.01644 2.57266
C 6.60507 6.90952 6.56515
C 9.64198 5.70267 1.20492
H 11.7 6.20815 7.23455
H 8.68479 6.13148 1.46722
C 7.47952 6.07197 5.85499
C 10.3915 6.25325 0.154523
C 11.6315 1.32318 4.50278
C 8.88203 11.5323 9.76031
C 6.99203 4.91621 4.97625
C 9.73912 7.6048 9.6567
O 5.40601 11.3661 9.32373
C 5.94732 10.1889 9.93705
C 6.63451 10.3976 1.07748
H 6.61241 9.62522 9.34815
H 5.25517 9.45549 10.1678
H 7.72625 10.368 1.14323
H 6.34015 9.53468 1.72417
H 6.19197 11.3276 1.48643
O 2.7403 1.84011 3.80454
C 2.32439 1.4518 5.10863
C 3.00641 1.59393 6.50642
H 1.66496 0.560103 5.10968
H 1.97579 2.43754 5.30473
H 3.03802 0.644638 7.04971
H 2.34986 2.12536 7.24044
H 3.97931 2.10426 6.52887
O 0.451219 7.54953 9.26796
C 0.0688463 8.7248 10.0537
C -0.195077 8.41001 1.18708
H 11.9969 9.47779 9.54802
H 1.06372 9.33834 0.141743
H 11.2668 8.75005 1.28543
H 0.349043 8.96286 1.9962
H -0.0239251 7.35168 1.42651
O 3.26537 4.50304 3.59896
C 3.58271 4.75749 4.94695
C 2.74246 4.7159 6.23385
H 3.91487 3.73824 5.11582
H 4.21983 5.66791 5.05752
H 1.75086 4.25375 6.22583
H 3.33603 4.1882 6.99418
H 2.74096 5.66066 6.7718
O 8.11886 11.1613 6.14696
C 7.38015 10.2733 5.32685
C 7.1234 10.8552 3.97635
H 7.79793 9.28735 5.1534
H 6.41898 10.045 5.82132
H 7.89988 10.4621 3.29964
H 6.10101 10.5668 3.66248
H 7.18906 11.9427 3.96688
O 8.77792 1.23723 4.24339
C 9.16656 2.35963 5.1414
C 9.56018 1.96544 6.59272
H 8.43626 3.0362 5.4805
H 9.73826 3.12768 4.67507
H 9.24325 0.94137 6.84428
H 9.06097 2.59925 7.36709
H 10.6373 2.12585 6.78761
O 10.4845 8.11318 6.00631
C 10.5151 8.5365 4.64881
C 10.5304 7.42901 3.61522
H 9.68407 9.18235 4.36947
H 11.4329 9.14496 4.50543
H 9.99985 7.80075 2.718
H 11.5676 7.16547 3.37554
H 10.004 6.51389 3.88076
O 1.11545 4.60908 0.891496
C 1.34509 3.74324 10.1381
C 2.6711 4.20558 9.61117
H 0.640823 3.59309 9.28552
H 1.84416 2.77696 0.287239
H 3.07389 3.43188 8.93836
H 3.39451 4.23108 10.4347
H 2.56665 5.18195 9.10286
164
Atoms. Timestep: 220
Ni 2.97086 9.39241 8.88709
Ni 6.33789 3.09837 3.84422
O 0.936515 4.51677 3.78599
O 4.31174 8.11497 8.97069
O 4.98975 1.87876 3.94685
O 1.65028 10.6631 9.0277
O 5.90274 4.18947 5.17918
O 2.53781 8.18156 10.1957
O 0.0163576 2.22925 4.91163
O 3.41758 10.5425 10.2727
N 3.88862 10.5789 7.56305
N 0.768214 1.98209 2.33605
N 2.00532 8.2698 7.49016
N 5.47565 4.3422 2.48047
C 4.10731 11.6115 5.33463
C 0.62734 0.365966 0.476311
H 3.7386 11.6746 4.3243
H 6.82097 0.903584 9.50748
C 5.14711 12.4746 5.75318
C 1.88055 12.3201 0.759666
C 5.63889 12.2553 7.06236
C 2.53622 0.281734 1.9271
H 0.219173 0.354008 6.9011
H 3.52564 12.4371 2.16489
C 1.68893 7.31557 5.20147
C 5.75426 5.81939 0.507563
H 2.06487 7.25819 4.19264
H 11.7954 5.54763 9.16525
C 2.4714 8.04394 6.20008
C 6.21641 4.77488 1.39223
H 3.48981 8.30871 5.95243
C 3.38178 10.8242 6.29821
C 0.0756386 1.40665 1.28167
H 2.35894 10.5593 6.07307
H 5.7361 2.08958 0.975941
C 5.0409 11.2894 7.95761
C 1.94268 1.32171 2.76138
C 0.802567 7.64471 7.86313
C 4.25536 5.026 2.73717
C 0.128867 6.70213 6.91688
C 3.85428 6.1519 1.92915
H 5.60174 6.53143 6.76557
H 2.89913 6.61846 2.12923
C 0.590419 6.48207 5.5715
C 4.55145 6.51906 0.759293
C 5.64876 1.19516 4.89895
C 2.30196 11.2603 10.0445
C 0.114841 5.20444 4.61233
C 3.66674 7.49836 9.9792
Ni 9.32747 9.51292 8.61645
Ni 12.203 3.22433 3.49349
O 7.69038 4.3165 3.9787
O 10.5041 8.1721 8.70036
O 10.9744 1.8943 3.46138
O 8.14499 10.9001 8.80941
O 11.4429 4.49697 4.65
O 8.68386 8.38256 9.92421
O 6.75037 1.86856 5.14507
O 9.98858 10.6578 9.95924
N 10.2048 10.597 7.1965
N 7.24656 1.9774 2.47726
N 8.43479 8.38433 7.23988
N 11.4978 4.23038 1.92658
C 10.1661 11.7159 5.0355
C 7.42796 0.921442 0.237511
H 9.81362 11.6241 4.03482
H -0.141409 0.056854 9.87715
C 11.2692 12.5436 5.33279
C 8.57651 0.145933 0.558373
C 11.9051 12.2593 6.56124
C 9.12657 0.436403 1.86856
H 6.45614 0.342513 7.41578
H 10.0611 -0.0292599 2.13089
C 8.83708 6.36536 5.92488
C 11.3884 5.53493 10.1417
H 9.57485 5.61515 5.70316
H 6.11435 6.06644 9.90837
C 9.23371 7.66578 6.34166
C 12.2431 4.69057 0.860375
H 7.1742 4.32197 1.19398
C 9.49058 11 6.08412
C 6.71275 1.69975 1.23281
H 11.6137 1.80019 1.00632
C 11.3993 11.244 7.43758
C 8.44841 1.36426 2.84561
H 11.8606 11.1443 8.37875
C 7.17658 7.84442 7.4794
C 10.1689 4.60266 1.97166
H 6.76875 7.88085 8.45691
H 9.52738 4.1111 2.65887
C 6.62991 6.83441 6.62958
C 9.65332 5.70261 1.19707
H 11.7386 6.19223 7.21873
H 8.69059 6.12938 1.44222
C 7.49092 6.0486 5.84967
C 10.4021 6.23389 0.142346
C 11.6192 1.35014 4.52632
C 8.89649 11.4763 9.79569
C 6.98899 4.90918 4.95451
C 9.74327 7.56131 9.63179
O 5.37651 11.4105 9.31863
C 5.9264 10.2351 9.92239
C 6.63192 10.4241 1.06807
H 6.53521 9.64007 9.29259
H 5.22992 9.51449 10.1612
H 7.71313 10.2383 1.14386
H 6.19971 9.64558 1.743
H 6.31735 11.4087 1.46258
O 2.72411 1.83465 3.8106
C 2.30987 1.44714 5.11422
C 2.98967 1.58876 6.5121
H 1.63862 0.561587 5.11791
H 1.97429 2.43797 5.30722
H 3.0164 0.642296 7.06071
H 2.33008 2.12 7.24253
H 3.96459 2.09854 6.53657
O 0.476672 7.53868 9.24703
C 0.0764182 8.71558 10.0125
C 12.2938 8.40167 1.13245
H 12.0264 9.46373 9.47821
H 1.06317 9.32266 0.124771
H 11.2299 8.65875 1.18676
H 0.240915 9.03115 1.9419
H 0.0395665 7.36314 1.40357
O 3.2766 4.49944 3.59709
C 3.58171 4.76028 4.94947
C 2.73426 4.7226 6.23328
H 3.90848 3.73905 5.12827
H 4.22049 5.66965 5.06311
H 1.74115 4.26455 6.21323
H 3.30972 4.18527 7.00123
H 2.73953 5.66985 6.77124
O 8.11734 11.1317 6.18707
C 7.39861 10.2488 5.34623
C 7.1342 10.8493 4.00603
H 7.83834 9.27616 5.14923
H 6.43495 10.0066 5.83349
H 7.91019 10.4898 3.30724
H 6.11544 10.5559 3.69083
H 7.18879 11.9361 4.03127
O 8.7765 1.25204 4.25707
C 9.14737 2.38258 5.15689
C 9.5461 1.99465 6.60776
H 8.39986 3.04091 5.49996
H 9.72583 3.15741 4.70296
H 9.18691 0.986436 6.8759
H 9.09409 2.66824 7.37707
H 10.6286 2.12248 6.7888
O 10.4986 8.11374 6.00841
C 10.565 8.56405 4.66174
C 10.6018 7.47171 3.61029
H 9.74707 9.22421 4.36881
H 11.4875 9.17516 4.55541
H 10.0502 7.83442 2.72642
H 11.6429 7.23335 3.36127
H 10.1038 6.54012 3.86182
O 1.11771 4.55443 0.862618
C 1.32587 3.73601 10.0605
C 2.70667 4.14371 9.62846
H 0.653814 3.7141 9.17155
H 1.72506 2.7174 0.1276
H 3.12356 3.37918 8.95187
H 3.60349 4.12303 0.22485
H 2.6756 5.1364 9.14136
164
Atoms. Timestep: 224
Ni 2.97065 9.39196 8.88725
Ni 6.33739 3.09861 3.84388
O 0.936788 4.51647 3.78484
O 4.31158 8.11314 8.97007
O 4.98904 1.87936 3.94662
O 1.64965 10.6618 9.02923
O 5.90293 4.18952 5.17869
O 2.53861 8.1817 10.196
O 0.0166942 2.23045 4.91134
O 3.41749 10.541 10.2736
N 3.88753 10.5799 7.56307
N 0.768816 1.98223 2.33521
N 2.00512 8.26971 7.49033
N 5.47631 4.34379 2.48115
C 4.10663 11.6115 5.33429
C 0.628065 0.364476 0.476904
H 3.73768 11.6743 4.32362
H 6.8219 0.903336 9.50838
C 5.1473 12.4741 5.75332
C 1.88221 12.3183 0.760074
C 5.63963 12.2541 7.0621
C 2.5381 0.28151 1.92642
H 0.217888 0.354361 6.90011
H 3.52582 12.4368 2.16398
C 1.68863 7.3167 5.20251
C 5.75368 5.81955 0.507154
H 2.06637 7.25884 4.19298
H 11.7947 5.54902 9.16633
C 2.4719 8.04311 6.20031
C 6.21712 4.77671 1.39286
H 3.48857 8.30852 5.95079
C 3.38164 10.824 6.29762
C 0.0762119 1.40599 1.28244
H 2.36061 10.5582 6.07263
H 5.73772 2.09002 0.977063
C 5.04022 11.2905 7.95756
C 1.94304 1.32171 2.76098
C 0.80348 7.6437 7.86295
C 4.25474 5.02649 2.73687
C 0.129444 6.70079 6.91716
C 3.85374 6.15203 1.9294
H 5.59961 6.52982 6.76487
H 2.89988 6.61867 2.13007
C 0.589497 6.48321 5.57185
C 4.55101 6.51957 0.759942
C 5.64837 1.19529 4.89913
C 2.30302 11.26 10.0444
C 0.115247 5.2031 4.61337
C 3.66691 7.49756 9.97942
Ni 9.32667 9.51343 8.61737
Ni 12.2037 3.22415 3.49297
O 7.69007 4.31709 3.97833
O 10.5027 8.17262 8.70081
O 10.9746 1.89161 3.46095
O 8.14445 10.9019 8.81062
O 11.443 4.49633 4.65028
O 8.68326 8.38257 9.92638
O 6.75096 1.86734 5.14478
O 9.98809 10.6585 9.95974
N 10.2042 10.5974 7.19609
N 7.24609 1.9771 2.47862
N 8.43402 8.38381 7.23961
N 11.4979 4.23057 1.92545
C 10.1656 11.7144 5.03608
C 7.42889 0.92237 0.237434
H 9.81398 11.6239 4.03639
H -0.140306 0.0563828 9.87784
C 11.2691 0.0199841 5.33322
C 8.57541 0.145438 0.559378
C 11.905 12.2596 6.56043
C 9.12644 0.437205 1.86916
H 6.45521 0.342025 7.41494
H 10.0613 12.4943 2.13128
C 8.83673 6.36717 5.92311
C 11.3879 5.53475 10.1409
H 9.57455 5.61556 5.70422
H 6.11331 6.06595 9.90754
C 9.2325 7.668 6.34036
C 12.2435 4.69066 0.859806
H 7.17496 4.32379 1.1939
C 9.48945 11.0008 6.08452
C 6.71292 1.70014 1.23223
H 11.6139 1.80045 1.00704
C 11.3995 11.2444 7.43674
C 8.44843 1.36547 2.84531
H 11.8621 11.145 8.37873
C 7.17542 7.84506 7.47887
C 10.1698 4.60304 1.97085
H 6.76868 7.88068 8.45654
H 9.52826 4.10999 2.65813
C 6.62887 6.83487 6.62914
C 9.65399 5.70269 1.19711
H 11.7381 6.1922 7.21718
H 8.69146 6.1291 1.4424
C 7.49067 6.04972 5.84909
C 10.4022 6.23365 0.141464
C 11.6199 1.34967 4.52645
C 8.8972 11.4781 9.79602
C 6.98842 4.91055 4.95281
C 9.74272 7.56152 9.63262
O 5.37639 11.4112 9.31824
C 5.92479 10.2343 9.92163
C 6.63148 10.4234 1.06686
H 6.53558 9.64028 9.29308
H 5.23005 9.51111 10.1612
H 7.71373 10.2395 1.14271
H 6.20015 9.64516 1.74184
H 6.31668 11.4077 1.46234
O 2.72168 1.83566 3.80911
C 2.30997 1.44793 5.11385
C 2.98927 1.58853 6.51134
H 1.63962 0.562249 5.11736
H 1.97526 2.43785 5.3089
H 3.0163 0.641829 7.06028
H 2.33017 2.11967 7.24381
H 3.9649 2.09862 6.53586
O 0.476479 7.53843 9.24711
C 0.076749 8.71508 10.0127
C 12.2935 8.40165 1.13317
H 12.0252 9.46144 9.4785
H 1.06263 9.32443 0.124083
H 11.2302 8.65975 1.18658
H 0.240944 9.02934 1.94155
H 0.0394231 7.36445 1.40261
O 3.27663 4.49892 3.59592
C 3.58275 4.76018 4.94855
C 2.73434 4.72191 6.23208
H 3.90886 3.73985 5.13107
H 4.2217 5.67074 5.06274
H 1.73978 4.26429 6.21287
H 3.31002 4.18541 7.00207
H 2.74002 5.67002 6.77202
O 8.1162 11.1323 6.18662
C 7.39763 10.2488 5.34538
C 7.13405 10.8506 4.00508
H 7.83764 9.2775 5.14853
H 6.43545 10.0057 5.83481
H 7.91202 10.4898 3.30995
H 6.11503 10.5573 3.69089
H 7.19029 11.9352 4.03075
O 8.77691 1.2509 4.25746
C 9.14806 2.38246 5.15577
C 9.54566 1.99471 6.60697
H 8.40064 3.04002 5.50064
H 9.72729 3.15767 4.70282
H 9.18712 0.986192 6.87407
H 9.09269 2.66703 7.37704
H 10.6288 2.12176 6.7885
O 10.4979 8.11615 6.00947
C 10.5644 8.56471 4.6617
C 10.6018 7.47182 3.6112
H 9.74493 9.2225 4.37042
H 11.4874 9.1739 4.55582
H 10.0507 7.83526 2.72593
H 11.6438 7.23535 3.36332
H 10.1042 6.54018 3.86537
O 1.11797 4.55342 0.863696
C 1.3263 3.73671 10.0599
C 2.70746 4.14276 9.62943
H 0.654584 3.71657 9.17037
H 1.72169 2.71664 0.123837
H 3.12349 3.37693 8.95297
H 3.60336 4.12118 0.227482
H 2.6779 5.13644 9.14254
164
Atoms. Timestep: 226
Ni 2.97057 9.39185 8.88728
Ni 6.33774 3.0984 3.84385
O 0.936641 4.51665 3.78503
O 4.3115 8.11317 8.97005
O 4.98887 1.8794 3.94682
O 1.64993 10.6619 9.02905
O 5.90294 4.18971 5.17885
O 2.53826 8.18166 10.196
O 0.0166799 2.23014 4.91115
O 3.41772 10.5409 10.2734
N 3.88769 10.58 7.56301
N 0.768811 1.98222 2.33525
N 2.00499 8.26952 7.49029
N 5.4761 4.34395 2.48093
C 4.10672 11.6116 5.33416
C 0.628165 0.364412 0.477091
H 3.73765 11.6743 4.32365
H 6.82193 0.903335 9.5083
C 5.147 12.4739 5.75312
C 1.88185 12.3184 0.760005
C 5.63958 12.2542 7.06182
C 2.53808 0.281609 1.92643
H 0.217899 0.354519 6.90002
H 3.52607 12.4368 2.16401
C 1.68854 7.31663 5.20234
C 5.75366 5.81968 0.507054
H 2.06639 7.25888 4.19315
H 11.7947 5.54914 9.1661
C 2.47195 8.04314 6.2002
C 6.21728 4.77667 1.39306
H 3.48859 8.30859 5.95081
C 3.38165 10.8238 6.2979
C 0.0762231 1.40577 1.28226
H 2.36054 10.5581 6.07244
H 5.73768 2.09009 0.976967
C 5.04007 11.2903 7.95768
C 1.9429 1.32169 2.76079
C 0.803342 7.64374 7.86345
C 4.25487 5.02628 2.73694
C 0.129612 6.70084 6.91695
C 3.85397 6.15203 1.92929
H 5.59971 6.52985 6.76484
H 2.89976 6.61878 2.13017
C 0.589505 6.48295 5.57169
C 4.5509 6.51956 0.760042
C 5.6486 1.19537 4.89916
C 2.30311 11.2599 10.0447
C 0.115422 5.20317 4.61322
C 3.66706 7.4975 9.97924
Ni 9.32674 9.51364 8.61776
Ni 12.2036 3.22412 3.49291
O 7.69017 4.31714 3.97851
O 10.5026 8.17263 8.70068
O 10.9747 1.89192 3.46084
O 8.14459 10.9019 8.81065
O 11.443 4.49628 4.6502
O 8.68325 8.38262 9.9262
O 6.75065 1.86752 5.1447
O 9.98813 10.6586 9.95981
N 10.2041 10.5975 7.19635
N 7.2464 1.97703 2.4783
N 8.43371 8.38416 7.23979
N 11.4983 4.23022 1.92559
C 10.1658 11.7146 5.03632
C 7.42884 0.922473 0.237605
H 9.81388 11.6238 4.03628
H -0.140206 0.0562716 9.87784
C 11.2691 0.0202005 5.33284
C 8.57591 0.145481 0.55989
C 11.9049 12.2594 6.56069
C 9.12622 0.437216 1.86874
H 6.45526 0.342021 7.41501
H 10.0613 12.4943 2.13138
C 8.83656 6.36714 5.92295
C 11.3881 5.53479 10.1409
H 9.57453 5.61573 5.70438
H 6.11317 6.0659 9.90748
C 9.23243 7.66807 6.34048
C 12.243 4.6906 0.860066
H 7.17498 4.324 1.19392
C 9.48948 11.0008 6.0844
C 6.71287 1.70033 1.2324
H 11.614 1.80037 1.00708
C 11.3995 11.2443 7.43683
C 8.44855 1.36536 2.84595
H 11.8621 11.145 8.3786
C 7.17553 7.84506 7.47874
C 10.1698 4.60308 1.97076
H 6.76856 7.88065 8.45656
H 9.52832 4.10996 2.65801
C 6.6285 6.8347 6.62905
C 9.65388 5.70265 1.19726
H 11.738 6.19219 7.21722
H 8.69156 6.12911 1.44239
C 7.49056 6.04994 5.84909
C 10.4022 6.23365 0.141453
C 11.62 1.34944 4.52662
C 8.89673 11.4781 9.7957
C 6.98854 4.91027 4.95247
C 9.74254 7.56149 9.63287
O 5.37629 11.411 9.31827
C 5.92482 10.2342 9.92167
C 6.63157 10.4234 1.06683
H 6.53562 9.64031 9.29303
H 5.22999 9.511 10.1612
H 7.71365 10.2395 1.14261
H 6.2002 9.64507 1.74182
H 6.31659 11.4076 1.46226
O 2.72214 1.83588 3.80928
C 2.30997 1.44782 5.11378
C 2.98937 1.5886 6.51147
H 1.63961 0.562244 5.11733
H 1.97521 2.4379 5.30898
H 3.01628 0.641828 7.06018
H 2.33024 2.11957 7.24381
H 3.96483 2.09857 6.53582
O 0.476587 7.53834 9.24711
C 0.0767024 8.71509 10.0127
C 12.2935 8.40169 1.13286
H 12.0251 9.46138 9.47847
H 1.06259 9.32428 0.124168
H 11.2302 8.65984 1.1866
H 0.241054 9.02932 1.94168
H 0.0393941 7.3643 1.40264
O 3.27673 4.49888 3.59603
C 3.58263 4.76036 4.94866
C 2.73428 4.72208 6.23228
H 3.90894 3.73986 5.13109
H 4.22169 5.6707 5.06266
H 1.73986 4.26433 6.21284
H 3.30994 4.18547 7.00205
H 2.74006 5.66982 6.77191
O 8.11616 11.1323 6.18667
C 7.39756 10.2491 5.34546
C 7.13404 10.8503 4.00527
H 7.83758 9.2775 5.14847
H 6.43542 10.0056 5.83481
H 7.91215 10.4898 3.30995
H 6.11498 10.5574 3.69078
H 7.19041 11.9354 4.03069
O 8.77685 1.25114 4.25713
C 9.14812 2.38248 5.15592
C 9.54575 1.99466 6.60693
H 8.40056 3.04009 5.50049
H 9.72734 3.15756 4.70273
H 9.18713 0.986162 6.8739
H 9.09257 2.66691 7.37703
H 10.6287 2.12172 6.78846
O 10.4978 8.11617 6.00939
C 10.5643 8.5647 4.66189
C 10.6018 7.4719 3.61129
H 9.74479 9.22247 4.37041
H 11.4874 9.17394 4.55581
H 10.0508 7.83522 2.72603
H 11.6439 7.23548 3.3635
H 10.1043 6.54024 3.86549
O 1.11811 4.55345 0.863423
C 1.32614 3.73674 10.0598
C 2.70766 4.14271 9.62958
H 0.654687 3.71689 9.17027
H 1.72139 2.71657 0.123485
H 3.1235 3.3768 8.95312
H 3.60329 4.12098 0.227637
H 2.67815 5.1363 9.1427
164
Atoms. Timestep: 228
Ni 2.97064 9.39188 8.88719
Ni 6.33756 3.09862 3.84384
O 0.936666 4.51671 3.78508
O 4.31148 8.11317 8.97
O 4.98898 1.87939 3.94694
O 1.65012 10.662 9.029
O 5.90304 4.18969 5.17881
O 2.53818 8.18155 10.196
O 0.0167271 2.22991 4.91114
O 3.41783 10.5408 10.2734
N 3.88763 10.5798 7.56318
N 0.768728 1.98213 2.33508
N 2.00497 8.26952 7.49052
N 5.47625 4.34368 2.48098
C 4.10665 11.6116 5.33415
C 0.628073 0.364301 0.477048
H 3.73762 11.6743 4.32365
H 6.82196 0.903339 9.50827
C 5.14708 12.474 5.75302
C 1.88192 12.3184 0.760151
C 5.63945 12.2541 7.06177
C 2.53795 0.281682 1.92633
H 0.21788 0.35459 6.9
H 3.52624 12.4368 2.16403
C 1.68851 7.3166 5.20225
C 5.75366 5.81967 0.507111
H 2.0664 7.2589 4.19324
H 11.7948 5.54922 9.16595
C 2.47182 8.04308 6.20012
C 6.21723 4.77691 1.39303
H 3.48862 8.30866 5.95082
C 3.38174 10.8239 6.29783
C 0.0762896 1.40573 1.28231
H 2.36049 10.558 6.07236
H 5.73765 2.09019 0.976948
C 5.04009 11.2904 7.95755
C 1.94309 1.3218 2.76096
C 0.803379 7.6437 7.86321
C 4.25492 5.02638 2.73681
C 0.12948 6.70077 6.91706
C 3.85396 6.15202 1.92937
H 5.59971 6.52983 6.76482
H 2.89973 6.61886 2.13024
C 0.589666 6.48289 5.57156
C 4.55102 6.51957 0.759908
C 5.6484 1.19531 4.89904
C 2.30304 11.2598 10.0447
C 0.115325 5.2032 4.6132
C 3.66685 7.49749 9.97929
Ni 9.32663 9.5137 8.61768
Ni 12.2037 3.22404 3.4929
O 7.69036 4.31699 3.97847
O 10.5025 8.1726 8.70076
O 10.9748 1.89201 3.46084
O 8.14448 10.9019 8.81063
O 11.4431 4.49628 4.65012
O 8.6832 8.38271 9.92625
O 6.7507 1.86762 5.1447
O 9.98804 10.6587 9.95982
N 10.2041 10.5976 7.19649
N 7.24657 1.97721 2.47869
N 8.43369 8.38433 7.23975
N 11.498 4.23022 1.92559
C 10.1657 11.7147 5.03615
C 7.42891 0.922532 0.237858
H 9.81384 11.6237 4.03627
H -0.140099 0.0561789 9.87788
C 11.2691 0.020089 5.33299
C 8.5757 0.145628 0.559722
C 11.9049 12.2594 6.56064
C 9.12653 0.437161 1.86907
H 6.45529 0.342027 7.415
H 10.0612 12.4944 2.13139
C 8.83642 6.36732 5.92293
C 11.388 5.53488 10.1411
H 9.5745 5.61584 5.7045
H 6.11305 6.06587 9.9074
C 9.23229 7.66815 6.34059
C 12.2435 4.69049 0.860056
H 7.17503 4.32413 1.19398
C 9.48954 11.0007 6.08456
C 6.71297 1.70031 1.23231
H 11.6141 1.80025 1.00707
C 11.3994 11.2442 7.43696
C 8.44841 1.36523 2.8454
H 11.8621 11.1449 8.37853
C 7.17529 7.84507 7.47886
C 10.1699 4.60291 1.97087
H 6.76848 7.88063 8.45654
H 9.52834 4.10994 2.65789
C 6.62853 6.83473 6.62898
C 9.65391 5.70266 1.19726
H 11.738 6.1922 7.2172
H 8.6916 6.12912 1.44241
C 7.49042 6.04985 5.84884
C 10.4021 6.23363 0.141521
C 11.62 1.34947 4.5264
C 8.89697 11.4781 9.79592
C 6.98852 4.91039 4.95259
C 9.74258 7.56155 9.63282
O 5.3762 11.4109 9.31833
C 5.92483 10.2341 9.92169
C 6.63161 10.4234 1.06681
H 6.53566 9.64034 9.29298
H 5.22998 9.5109 10.1611
H 7.71362 10.2396 1.14252
H 6.20026 9.64499 1.74179
H 6.31651 11.4075 1.4622
O 2.72227 1.83595 3.80927
C 2.31006 1.44783 5.11379
C 2.98939 1.58861 6.51151
H 1.6396 0.562222 5.11729
H 1.97516 2.43792 5.30904
H 3.01628 0.641823 7.0601
H 2.33029 2.11949 7.24383
H 3.96481 2.09853 6.53578
O 0.47663 7.53828 9.2473
C 0.0766759 8.71506 10.0127
C 12.2935 8.4017 1.13274
H 12.025 9.46134 9.47846
H 1.06255 9.32421 0.124223
H 11.2302 8.65993 1.18661
H 0.241133 9.02927 1.94176
H 0.0393592 7.36421 1.40263
O 3.27681 4.49879 3.59613
C 3.58256 4.76046 4.94875
C 2.73425 4.72215 6.23237
H 3.909 3.73991 5.13112
H 4.22168 5.67069 5.06259
H 1.73991 4.26437 6.21282
H 3.30987 4.18551 7.00206
H 2.74008 5.66972 6.77185
O 8.11618 11.1324 6.18666
C 7.39749 10.2491 5.34554
C 7.13405 10.8502 4.00535
H 7.8375 9.27755 5.14843
H 6.4354 10.0055 5.83482
H 7.91225 10.4898 3.30997
H 6.11494 10.5575 3.6907
H 7.19052 11.9355 4.03065
O 8.77685 1.25127 4.25725
C 9.14813 2.38249 5.15592
C 9.54579 1.99461 6.60693
H 8.40052 3.04011 5.50038
H 9.72739 3.15748 4.70267
H 9.18713 0.986129 6.87374
H 9.09248 2.6668 7.37701
H 10.6286 2.12168 6.78844
O 10.4977 8.11619 6.00943
C 10.5643 8.56474 4.66193
C 10.6018 7.47196 3.6114
H 9.74469 9.22244 4.37042
H 11.4874 9.17397 4.55582
H 10.0509 7.8352 2.72611
H 11.6439 7.2356 3.36365
H 10.1045 6.54029 3.86561
O 1.11799 4.55348 0.8633
C 1.32611 3.73676 10.0597
C 2.70777 4.14262 9.6297
H 0.654759 3.71719 9.17016
H 1.72112 2.7165 0.123171
H 3.12352 3.37668 8.95325
H 3.60325 4.1208 0.227805
H 2.67839 5.1362 9.14284
164
Atoms. Timestep: 230
Ni 2.97064 9.3918 8.88729
Ni 6.33782 3.0985 3.84399
O 0.936684 4.51673 3.7851
O 4.31137 8.11315 8.96997
O 4.98891 1.87945 3.94697
O 1.65022 10.6621 9.02893
O 5.90301 4.18978 5.1788
O 2.53806 8.18151 10.196
O 0.0167816 2.22973 4.91105
O 3.41788 10.5408 10.2734
N 3.88773 10.5798 7.56303
N 0.76885 1.98215 2.33522
N 2.00496 8.26942 7.49031
N 5.47618 4.34383 2.48081
C 4.10668 11.6116 5.33411
C 0.62811 0.364222 0.47716
H 3.73757 11.6743 4.32366
H 6.822 0.903356 9.50831
C 5.14697 12.4739 5.75292
C 1.88181 12.3184 0.760112
C 5.63946 12.2541 7.06169
C 2.53811 0.281738 1.92643
H 0.217856 0.354668 6.89996
H 3.52636 12.4368 2.16401
C 1.68849 7.31658 5.20217
C 5.75363 5.81976 0.50706
H 2.06643 7.25891 4.1933
H 11.7949 5.54932 9.16586
C 2.47179 8.04311 6.20019
C 6.21738 4.77692 1.39314
H 3.48861 8.3087 5.95081
C 3.38165 10.8237 6.29789
C 0.0762342 1.40562 1.28221
H 2.36049 10.5578 6.07225
H 5.73764 2.09026 0.976899
C 5.03995 11.2902 7.95767
C 1.94304 1.3218 2.76077
C 0.803304 7.64369 7.8635
C 4.25498 5.02618 2.73693
C 0.129547 6.70076 6.91693
C 3.85403 6.15207 1.92931
H 5.59971 6.52981 6.76479
H 2.89971 6.61893 2.13032
C 0.589641 6.48277 5.57157
C 4.55094 6.51957 0.759958
C 5.6485 1.19535 4.89905
C 2.30314 11.2597 10.0448
C 0.115383 5.20325 4.61309
C 3.66686 7.49745 9.9792
Ni 9.32658 9.5138 8.61776
Ni 12.2037 3.22402 3.49283
O 7.6904 4.31701 3.9785
O 10.5025 8.17262 8.70076
O 10.9749 1.8921 3.46077
O 8.14451 10.9019 8.81069
O 11.4432 4.49623 4.65009
O 8.68316 8.38277 9.92623
O 6.75056 1.86771 5.14467
O 9.98806 10.6588 9.95989
N 10.204 10.5976 7.19667
N 7.24654 1.97719 2.47828
N 8.43348 8.38445 7.23979
N 11.4983 4.23001 1.92567
C 10.1658 11.7148 5.03628
C 7.42887 0.922563 0.237813
H 9.81381 11.6237 4.03621
H -0.14001 0.0560711 9.87788
C 11.2691 0.0201015 5.33284
C 8.57594 0.145658 0.559953
C 11.9049 12.2593 6.56071
C 9.12636 0.437205 1.86886
H 6.45529 0.342003 7.41499
H 10.0612 12.4944 2.13146
C 8.83627 6.36739 5.92286
C 11.3881 5.5349 10.1411
H 9.57445 5.61598 5.70465
H 6.11293 6.06582 9.90733
C 9.23223 7.66826 6.34065
C 12.2431 4.69055 0.860036
H 7.17506 4.32432 1.19402
C 9.48952 11.0007 6.08451
C 6.71307 1.70046 1.23256
H 11.6142 1.80015 1.00706
C 11.3994 11.2442 7.43697
C 8.44857 1.36522 2.84593
H 11.8621 11.1449 8.37848
C 7.17528 7.84511 7.47885
C 10.1698 4.60292 1.97084
H 6.76836 7.88059 8.45656
H 9.52837 4.10987 2.65781
C 6.62838 6.83469 6.62891
C 9.65394 5.70262 1.19733
H 11.738 6.1922 7.21719
H 8.69165 6.12913 1.44244
C 7.49035 6.04999 5.84875
C 10.4021 6.23363 0.141572
C 11.6201 1.34938 4.52642
C 8.89678 11.4782 9.79585
C 6.9886 4.91031 4.95248
C 9.74249 7.56158 9.6329
O 5.37618 11.4108 9.31831
C 5.92485 10.2341 9.9217
C 6.63163 10.4234 1.06679
H 6.53569 9.64036 9.29294
H 5.22999 9.51079 10.1611
H 7.71359 10.2397 1.14242
H 6.20033 9.64492 1.74175
H 6.31643 11.4075 1.46214
O 2.72243 1.83607 3.80932
C 2.31014 1.44785 5.1138
C 2.98942 1.58861 6.51153
H 1.63961 0.562208 5.11724
H 1.97513 2.43793 5.3091
H 3.01627 0.641811 7.06002
H 2.33035 2.11942 7.24387
H 3.96479 2.0985 6.53575
O 0.476663 7.53821 9.2473
C 0.0766461 8.71505 10.0126
C 12.2935 8.4017 1.13267
H 12.0249 9.46129 9.47843
H 1.06251 9.32415 0.124264
H 11.2301 8.66003 1.18661
H 0.24121 9.0292 1.94181
H 0.0393148 7.36413 1.40262
O 3.27689 4.49878 3.59617
C 3.58252 4.76055 4.94883
C 2.73422 4.72218 6.23244
H 3.90905 3.73998 5.13117
H 4.22168 5.67069 5.06253
H 1.73996 4.26441 6.21281
H 3.3098 4.18556 7.00208
H 2.74011 5.66965 6.77182
O 8.1162 11.1324 6.18671
C 7.39744 10.2492 5.34561
C 7.13406 10.8502 4.00539
H 7.83742 9.2776 5.14839
H 6.43537 10.0055 5.83484
H 7.91235 10.4897 3.31
H 6.11491 10.5576 3.69062
H 7.19063 11.9356 4.0306
O 8.77686 1.25136 4.25709
C 9.14815 2.38254 5.15594
C 9.5458 1.99457 6.60691
H 8.40051 3.04014 5.50028
H 9.72745 3.1574 4.70262
H 9.18714 0.986085 6.87357
H 9.09238 2.66667 7.37698
H 10.6286 2.12165 6.78842
O 10.4976 8.11621 6.00948
C 10.5642 8.56479 4.66198
C 10.6018 7.47203 3.6115
H 9.74457 9.2224 4.37043
H 11.4874 9.174 4.55584
H 10.0509 7.83518 2.72618
H 11.644 7.23573 3.36382
H 10.1046 6.54034 3.86573
O 1.11808 4.55345 0.863229
C 1.32607 3.7368 10.0595
C 2.70786 4.14251 9.62983
H 0.654835 3.71752 9.17
H 1.72081 2.71643 0.122826
H 3.12355 3.37655 8.95339
H 3.60322 4.1206 0.227999
H 2.67866 5.13608 9.14299
164
Atoms. Timestep: 328