/apps/openmpi/3.1_intel-19/bin/mpiexec
starting QE Tue Jun 23 08:21:46 PDT 2020

     Program PWSCF v.6.5 starts on 23Jun2020 at  8:21:48 

     This program is part of the open-source Quantum ESPRESSO suite
     for quantum simulation of materials; please cite
         "P. Giannozzi et al., J. Phys.:Condens. Matter 21 395502 (2009);
         "P. Giannozzi et al., J. Phys.:Condens. Matter 29 465901 (2017);
          URL http://www.quantum-espresso.org", 
     in publications or presentations arising from this work. More details at
     http://www.quantum-espresso.org/quote

     Parallel version (MPI), running on    32 processors

     MPI processes distributed on     1 nodes
     K-points division:     npool     =       2
     R & G space division:  proc/nbgrp/npool/nimage =      16
     Reading input from QE_input_scripts/pw.NiPyC2_relax_sc211_meta_functionalized_Cl_pbesol_relax.in
Warning: card &CELL ignored
Warning: card    CELL_DYNAMICS = 'BFGS' ignored
Warning: card    CELL_DOFREE = 'XYZ' ignored
Warning: card / ignored

     Current dimensions of program PWSCF are:
     Max number of different atomic species (ntypx) = 10
     Max number of k-points (npk) =  40000
     Max angular momentum in pseudopotentials (lmaxx) =  3

     -------------------------------------------------
     Parameters for Dispersion (Grimme-D2) Correction:
     -------------------------------------------------
       atom      VdW radius       C_6     

        C          2.744         60.710
        Cl         3.097        175.885
        H          1.892          4.857
        N          2.640         42.670
        Ni         2.952        374.666
        O          2.536         24.284

     gamma-point specific algorithms are used

     Subspace diagonalization in iterative solution of the eigenvalue problem:
     a serial algorithm will be used

 
     Parallelization info
     --------------------
     sticks:   dense  smooth     PW     G-vecs:    dense   smooth      PW
     Min        1113    1113    277                91686    91686   11456
     Max        1116    1116    280                91692    91692   11460
     Sum       17829   17829   4453              1467017  1467017  183325
 


     bravais-lattice index     =            0
     lattice parameter (alat)  =      23.6322  a.u.
     unit-cell volume          =   10858.6228 (a.u.)^3
     number of atoms/cell      =          108
     number of atomic types    =            6
     number of electrons       =       448.00 (up: 228.00, down: 220.00)
     number of Kohn-Sham states=          274
     kinetic-energy cutoff     =     100.0000  Ry
     charge density cutoff     =     400.0000  Ry
     convergence threshold     =      1.0E-06
     mixing beta               =       0.7000
     number of iterations used =            8  local-TF  mixing
     Exchange-correlation= PBESOL
                           (   1   4  10   8   0   0   0)
     nstep                     =          200


     celldm(1)=  23.632159  celldm(2)=   0.000000  celldm(3)=   0.000000
     celldm(4)=   0.000000  celldm(5)=   0.000000  celldm(6)=   0.000000

     crystal axes: (cart. coord. in units of alat)
               a(1) = (   1.000000   0.000000   0.000000 )  
               a(2) = (   0.000000   1.001423   0.000000 )  
               a(3) = (  -0.018199   0.000000   0.821574 )  

     reciprocal axes: (cart. coord. in units 2 pi/alat)
               b(1) = (  1.000000  0.000000  0.022152 )  
               b(2) = (  0.000000  0.998579  0.000000 )  
               b(3) = (  0.000000  0.000000  1.217175 )  


     PseudoPot. # 1 for C  read from file:
     ./pseudo/C.pbesol-nc.UPF
     MD5 check sum: ce26087537ded160c8d400e183a8bf42
     Pseudo is Norm-conserving, Zval =  4.0
     Generated using "atomic" code by A. Dal Corso v.6.5
     Using radial grid of 1073 points,  1 beta functions with: 
                l(1) =   1

     PseudoPot. # 2 for Cl read from file:
     ./pseudo/Cl.pbesol-n-nc.UPF
     MD5 check sum: 7a3420c4b1251c4f435754b8525b54b2
     Pseudo is Norm-conserving + core correction, Zval =  7.0
     Generated using "atomic" code by A. Dal Corso v.6.5
     Using radial grid of 1157 points,  2 beta functions with: 
                l(1) =   0
                l(2) =   1

     PseudoPot. # 3 for H  read from file:
     ./pseudo/H.pbesol-n-nc.UPF
     MD5 check sum: 7995ef24074557c85b430109caaacc09
     Pseudo is Norm-conserving, Zval =  1.0
     Generated using "atomic" code by A. Dal Corso v.6.5
     Using radial grid of  929 points,  0 beta functions with: 

     PseudoPot. # 4 for N  read from file:
     ./pseudo/N.pbesol-nc.UPF
     MD5 check sum: e18cc5e4b8a5600c1a19b30c2cab1ca0
     Pseudo is Norm-conserving, Zval =  5.0
     Generated using "atomic" code by A. Dal Corso v.6.5
     Using radial grid of 1085 points,  1 beta functions with: 
                l(1) =   1

     PseudoPot. # 5 for Ni read from file:
     ./pseudo/Ni.pbesol-n-nc.UPF
     MD5 check sum: 623411631e0c2eb7c0b2b9815547d2d9
     Pseudo is Norm-conserving + core correction, Zval = 10.0
     Generated using "atomic" code by A. Dal Corso v.6.5
     Using radial grid of 1195 points,  2 beta functions with: 
                l(1) =   1
                l(2) =   2

     PseudoPot. # 6 for O  read from file:
     ./pseudo/O.pbesol-nc.UPF
     MD5 check sum: 73d10e7e91dbfcbe8a7e362101007f84
     Pseudo is Norm-conserving, Zval =  6.0
     Generated using "atomic" code by A. Dal Corso v.6.5
     Using radial grid of 1095 points,  1 beta functions with: 
                l(1) =   1

     atomic species   valence    mass     pseudopotential
        C              4.00    12.01070     C ( 1.00)
        Cl             7.00    35.45300     Cl( 1.00)
        H              1.00     1.00794     H ( 1.00)
        N              5.00    14.00670     N ( 1.00)
        Ni            10.00    58.69340     Ni( 1.00)
        O              6.00    15.99940     O ( 1.00)

     Starting magnetic structure 
     atomic species   magnetization
        C            0.000
        Cl           0.000
        H            0.000
        N            0.000
        Ni           0.250
        O            0.000

     No symmetry found



   Cartesian axes

     site n.     atom                  positions (alat units)
         1           C   tau(   1) = (   0.2787122   0.9714307   0.4288486  )
         2           C   tau(   2) = (   0.0379730   0.0311503   0.0183277  )
         3           C   tau(   3) = (   0.3806882   0.0117868   0.4489838  )
         4           C   tau(   4) = (   0.1394042   0.9891499   0.0379124  )
         5           C   tau(   5) = (   0.4400787   0.9715829   0.5343281  )
         6           C   tau(   6) = (   0.1997920   0.0283934   0.1231482  )
         7           C   tau(   7) = (   0.1986011   0.5304580   0.4324635  )
         8           C   tau(   8) = (   0.4580372   0.4720800   0.0229252  )
         9           C   tau(   9) = (   0.2341003   0.6142040   0.4982314  )
        10           C   tau(  10) = (   0.4948422   0.3892302   0.0892369  )
        11           C   tau(  11) = (   0.2384981   0.8904717   0.4955761  )
        12           C   tau(  12) = (  -0.0008282   0.1123917   0.0856467  )
        13           C   tau(  13) = (   0.3947360   0.8906489   0.5977380  )
        14           C   tau(  14) = (   0.1557890   0.1097029   0.1871645  )
        15           C   tau(  15) = (   0.0756247   0.6098498   0.5975737  )
        16           C   tau(  16) = (   0.3367152   0.3921904   0.1884642  )
        17           C   tau(  17) = (   0.0350715   0.5258264   0.5351012  )
        18           C   tau(  18) = (   0.2948780   0.4753867   0.1254988  )
        19           C   tau(  19) = (   0.0981522   0.4849593   0.4519611  )
        20           C   tau(  20) = (   0.3569104   0.5163900   0.0416029  )
        21           C   tau(  21) = (   0.4248178   0.0994604   0.3833638  )
        22           C   tau(  22) = (   0.1639424   0.9010006   0.7933713  )
        23           C   tau(  23) = (   0.0588120   0.3950355   0.3866953  )
        24           C   tau(  24) = (   0.2984059   0.6050320   0.7961934  )
        25           C   tau(  25) = (   0.7787122   0.9714307   0.4288486  )
        26           C   tau(  26) = (   0.5379730   0.0311503   0.0183277  )
        27           C   tau(  27) = (   0.8806882   0.0117868   0.4489838  )
        28           C   tau(  28) = (   0.6394042   0.9891499   0.0379124  )
        29           C   tau(  29) = (   0.9400787   0.9715829   0.5343281  )
        30           C   tau(  30) = (   0.6997920   0.0283934   0.1231482  )
        31           C   tau(  31) = (   0.6986021   0.5304580   0.4324635  )
        32           C   tau(  32) = (   0.9580382   0.4720800   0.0229252  )
        33           C   tau(  33) = (   0.7341003   0.6142040   0.4982314  )
        34           C   tau(  34) = (   0.9948422   0.3892302   0.0892369  )
        35           C   tau(  35) = (   0.7384981   0.8904717   0.4955761  )
        36           C   tau(  36) = (   0.4991718   0.1123917   0.0856467  )
        37           C   tau(  37) = (   0.8947360   0.8906489   0.5977380  )
        38           C   tau(  38) = (   0.6557880   0.1097029   0.1871645  )
        39           C   tau(  39) = (   0.5756247   0.6098498   0.5975737  )
        40           C   tau(  40) = (   0.8367152   0.3921904   0.1884642  )
        41           C   tau(  41) = (   0.5350715   0.5258264   0.5351012  )
        42           C   tau(  42) = (   0.7948780   0.4753867   0.1254988  )
        43           C   tau(  43) = (   0.5981522   0.4849593   0.4519611  )
        44           C   tau(  44) = (   0.8569104   0.5163900   0.0416029  )
        45           C   tau(  45) = (   0.9248178   0.0994604   0.3833638  )
        46           C   tau(  46) = (   0.6639424   0.9010006   0.7933713  )
        47           C   tau(  47) = (   0.5588110   0.3950355   0.3866953  )
        48           C   tau(  48) = (   0.7984059   0.6050320   0.7961934  )
        49           Cl  tau(  49) = (   0.1958065   0.0131807   0.3231547  )
        50           Cl  tau(  50) = (   0.3293560   0.9850801   0.1559709  )
        51           Cl  tau(  51) = (   0.9063869   0.4780425   0.5668665  )
        52           Cl  tau(  52) = (   0.5259391   0.5143641   0.7409261  )
        53           Cl  tau(  53) = (   0.6958065   0.0131807   0.3231547  )
        54           Cl  tau(  54) = (   0.8293549   0.9850801   0.1559726  )
        55           Cl  tau(  55) = (   0.7848928   0.4887937   0.3290101  )
        56           Cl  tau(  56) = (   0.6658457   0.5219699   0.1577899  )
        57           H   tau(  57) = (   0.4693669   0.0026958   0.7751545  )
        58           H   tau(  58) = (   0.0198054   1.0002267   0.5533467  )
        59           H   tau(  59) = (   0.2505234   0.5016080   0.3691185  )
        60           H   tau(  60) = (  -0.0086584   0.5011092   0.7809458  )
        61           H   tau(  61) = (   0.3118554   0.6514319   0.4868937  )
        62           H   tau(  62) = (   0.0732386   0.3533532   0.0780726  )
        63           H   tau(  63) = (   0.1594426   0.8563401   0.4835457  )
        64           H   tau(  64) = (   0.4206861   0.1479423   0.0738480  )
        65           H   tau(  65) = (   0.4386511   0.8563902   0.6644572  )
        66           H   tau(  66) = (   0.2006191   0.1433067   0.2536997  )
        67           H   tau(  67) = (   0.0290492   0.6438591   0.6626884  )
        68           H   tau(  68) = (   0.2907535   0.3580349   0.2539083  )
        69           H   tau(  69) = (   0.4564147   0.4939330   0.5533319  )
        70           H   tau(  70) = (   0.2157623   0.5059201   0.1439924  )
        71           H   tau(  71) = (   0.9693669   0.0026958   0.7751545  )
        72           H   tau(  72) = (   0.5198044   1.0002267   0.5533467  )
        73           H   tau(  73) = (   0.8118554   0.6514319   0.4868937  )
        74           H   tau(  74) = (   0.5732386   0.3533532   0.0780726  )
        75           H   tau(  75) = (   0.6594426   0.8563401   0.4835457  )
        76           H   tau(  76) = (   0.9206861   0.1479423   0.0738480  )
        77           H   tau(  77) = (   0.9386511   0.8563902   0.6644572  )
        78           H   tau(  78) = (   0.7006201   0.1433067   0.2536997  )
        79           H   tau(  79) = (   0.5290492   0.6438591   0.6626884  )
        80           H   tau(  80) = (   0.7907535   0.3580349   0.2539083  )
        81           N   tau(  81) = (   0.2956096   0.8524646   0.5790685  )
        82           N   tau(  82) = (   0.0569790   0.1490689   0.1692870  )
        83           N   tau(  83) = (   0.1736962   0.6512356   0.5798983  )
        84           N   tau(  84) = (   0.4350238   0.3514275   0.1709211  )
        85           N   tau(  85) = (   0.7956096   0.8524646   0.5790685  )
        86           N   tau(  86) = (   0.5569790   0.1490689   0.1692870  )
        87           N   tau(  87) = (   0.6736972   0.6512356   0.5798983  )
        88           N   tau(  88) = (   0.9350238   0.3514275   0.1709211  )
        89           Ni  tau(  89) = (   0.2317814   0.7525556   0.6871039  )
        90           Ni  tau(  90) = (   0.4937992   0.2483520   0.2786599  )
        91           Ni  tau(  91) = (   0.7317814   0.7525556   0.6871039  )
        92           Ni  tau(  92) = (   0.9937992   0.2483520   0.2786599  )
        93           O   tau(  93) = (   0.1158100   0.3481839   0.3145586  )
        94           O   tau(  94) = (   0.3551690   0.6519036   0.7240468  )
        95           O   tau(  95) = (   0.3707656   0.1477170   0.3098797  )
        96           O   tau(  96) = (   0.1091506   0.8535652   0.7199135  )
        97           O   tau(  97) = (   0.4642788   0.3566669   0.3968154  )
        98           O   tau(  98) = (   0.2033039   0.6423280   0.8050417  )
        99           O   tau(  99) = (   0.0200847   0.1353504   0.3952413  )
       100           O   tau( 100) = (   0.2588616   0.8639860   0.8046490  )
       101           O   tau( 101) = (   0.6158110   0.3481839   0.3145586  )
       102           O   tau( 102) = (   0.8551690   0.6519036   0.7240468  )
       103           O   tau( 103) = (   0.8707656   0.1477170   0.3098797  )
       104           O   tau( 104) = (   0.6091506   0.8535652   0.7199135  )
       105           O   tau( 105) = (   0.9642788   0.3566669   0.3968154  )
       106           O   tau( 106) = (   0.7033039   0.6423280   0.8050417  )
       107           O   tau( 107) = (   0.5200847   0.1353504   0.3952413  )
       108           O   tau( 108) = (   0.7588616   0.8639860   0.8046490  )

     number of k points=     1  Marzari-Vanderbilt smearing, width (Ry)=  0.2000
                       cart. coord. in units 2pi/alat
        k(    1) = (   0.0000000   0.0000000   0.0000000), wk =   1.0000000

     Dense  grid:   733509 G-vectors     FFT dimensions: ( 160, 160, 125)

     Estimated max dynamical RAM per process >     335.26 MB

     Estimated total dynamical RAM >      10.48 GB
     Generating pointlists ...
     new r_m :   0.0358 (alat units)  0.8461 (a.u.) for type    1
     new r_m :   0.0581 (alat units)  1.3735 (a.u.) for type    2
     new r_m :   0.0358 (alat units)  0.8461 (a.u.) for type    3
     new r_m :   0.0445 (alat units)  1.0514 (a.u.) for type    4
     new r_m :   0.0654 (alat units)  1.5454 (a.u.) for type    5
     new r_m :   0.0423 (alat units)  0.9991 (a.u.) for type    6

     Check: negative core charge=   -0.000147

     Initial potential from superposition of free atoms

     starting charge  447.99671, renormalised to  448.00000
     Starting wfcs are  380 randomized atomic wfcs

     total cpu time spent up to now is       43.5 secs

     Self-consistent Calculation

     iteration #  1     ecut=   100.00 Ry     beta= 0.70
     Davidson diagonalization with overlap
     ethr =  1.00E-02,  avg # of iterations =  4.0

     total cpu time spent up to now is      153.6 secs

     total energy              =   -1879.50538731 Ry
     Harris-Foulkes estimate   =   -1885.86537177 Ry
     estimated scf accuracy    <      17.17004866 Ry

     total magnetization       =     8.00 Bohr mag/cell
     absolute magnetization    =     8.13 Bohr mag/cell

     iteration #  2     ecut=   100.00 Ry     beta= 0.70
     Davidson diagonalization with overlap
     ethr =  3.83E-03,  avg # of iterations =  2.0

     total cpu time spent up to now is      220.1 secs

     total energy              =   -1880.41595861 Ry
     Harris-Foulkes estimate   =   -1882.95576540 Ry
     estimated scf accuracy    <      10.95927072 Ry

     total magnetization       =     8.00 Bohr mag/cell
     absolute magnetization    =     8.13 Bohr mag/cell

     iteration #  3     ecut=   100.00 Ry     beta= 0.70
     Davidson diagonalization with overlap
     ethr =  2.45E-03,  avg # of iterations =  2.0

     total cpu time spent up to now is      284.0 secs

     total energy              =   -1880.85760394 Ry
     Harris-Foulkes estimate   =   -1882.23921928 Ry
     estimated scf accuracy    <       8.29992880 Ry

     total magnetization       =     8.00 Bohr mag/cell
     absolute magnetization    =     8.17 Bohr mag/cell

     iteration #  4     ecut=   100.00 Ry     beta= 0.70
     Davidson diagonalization with overlap
     ethr =  1.85E-03,  avg # of iterations =  1.0

     total cpu time spent up to now is      345.2 secs

     total energy              =   -1881.44636396 Ry
     Harris-Foulkes estimate   =   -1881.76146203 Ry
     estimated scf accuracy    <       2.56705549 Ry

     total magnetization       =     8.00 Bohr mag/cell
     absolute magnetization    =     8.14 Bohr mag/cell

     iteration #  5     ecut=   100.00 Ry     beta= 0.70
     Davidson diagonalization with overlap
     ethr =  5.73E-04,  avg # of iterations =  6.5

     total cpu time spent up to now is      417.6 secs

     total energy              =   -1881.44975943 Ry
     Harris-Foulkes estimate   =   -1881.53174392 Ry
     estimated scf accuracy    <       0.37971715 Ry

     total magnetization       =     8.00 Bohr mag/cell
     absolute magnetization    =     8.16 Bohr mag/cell

     iteration #  6     ecut=   100.00 Ry     beta= 0.70
     Davidson diagonalization with overlap
     ethr =  8.48E-05,  avg # of iterations =  5.5

     total cpu time spent up to now is      485.5 secs

     total energy              =   -1881.45124757 Ry
     Harris-Foulkes estimate   =   -1881.46894504 Ry
     estimated scf accuracy    <       0.09835250 Ry

     total magnetization       =     8.00 Bohr mag/cell
     absolute magnetization    =     8.18 Bohr mag/cell

     iteration #  7     ecut=   100.00 Ry     beta= 0.70
     Davidson diagonalization with overlap
     ethr =  2.20E-05,  avg # of iterations =  7.0

     total cpu time spent up to now is      554.3 secs

     total energy              =   -1881.43870967 Ry
     Harris-Foulkes estimate   =   -1881.46690240 Ry
     estimated scf accuracy    <       0.31733360 Ry

     total magnetization       =     8.00 Bohr mag/cell
     absolute magnetization    =     8.19 Bohr mag/cell

     iteration #  8     ecut=   100.00 Ry     beta= 0.70
     Davidson diagonalization with overlap
     ethr =  2.20E-05,  avg # of iterations =  2.0

     total cpu time spent up to now is      615.2 secs

     total energy              =   -1881.44938952 Ry
     Harris-Foulkes estimate   =   -1881.45181703 Ry
     estimated scf accuracy    <       0.04999074 Ry

     total magnetization       =     8.00 Bohr mag/cell
     absolute magnetization    =     8.19 Bohr mag/cell

     iteration #  9     ecut=   100.00 Ry     beta= 0.70
     Davidson diagonalization with overlap
     ethr =  1.12E-05,  avg # of iterations =  5.5

     total cpu time spent up to now is      682.5 secs

     total energy              =   -1881.45042008 Ry
     Harris-Foulkes estimate   =   -1881.45226028 Ry
     estimated scf accuracy    <       0.03704301 Ry

     total magnetization       =     8.00 Bohr mag/cell
     absolute magnetization    =     8.18 Bohr mag/cell

     iteration # 10     ecut=   100.00 Ry     beta= 0.70
     Davidson diagonalization with overlap
     ethr =  8.27E-06,  avg # of iterations =  2.0

     total cpu time spent up to now is      744.2 secs

     total energy              =   -1881.45353773 Ry
     Harris-Foulkes estimate   =   -1881.45316833 Ry
     estimated scf accuracy    <       0.02674501 Ry

     total magnetization       =     8.00 Bohr mag/cell
     absolute magnetization    =     8.18 Bohr mag/cell

     iteration # 11     ecut=   100.00 Ry     beta= 0.70
     Davidson diagonalization with overlap
     ethr =  5.97E-06,  avg # of iterations =  4.5

     total cpu time spent up to now is      809.6 secs

     total energy              =   -1881.45667855 Ry
     Harris-Foulkes estimate   =   -1881.45481062 Ry
     estimated scf accuracy    <       0.00486603 Ry

     total magnetization       =     8.00 Bohr mag/cell
     absolute magnetization    =     8.18 Bohr mag/cell

     iteration # 12     ecut=   100.00 Ry     beta= 0.70
     Davidson diagonalization with overlap
     ethr =  1.09E-06,  avg # of iterations =  6.0

     total cpu time spent up to now is      885.0 secs

     total energy              =   -1881.45748640 Ry
     Harris-Foulkes estimate   =   -1881.45699154 Ry
     estimated scf accuracy    <       0.00103402 Ry

     total magnetization       =     8.00 Bohr mag/cell
     absolute magnetization    =     8.18 Bohr mag/cell

     iteration # 13     ecut=   100.00 Ry     beta= 0.70
     Davidson diagonalization with overlap
     ethr =  2.31E-07,  avg # of iterations =  3.0

     total cpu time spent up to now is      949.9 secs

     total energy              =   -1881.45751971 Ry
     Harris-Foulkes estimate   =   -1881.45768136 Ry
     estimated scf accuracy    <       0.00349764 Ry

     total magnetization       =     8.00 Bohr mag/cell
     absolute magnetization    =     8.18 Bohr mag/cell

     iteration # 14     ecut=   100.00 Ry     beta= 0.70
     Davidson diagonalization with overlap
     ethr =  2.31E-07,  avg # of iterations =  1.5

     total cpu time spent up to now is     1010.6 secs

     total energy              =   -1881.45781744 Ry
     Harris-Foulkes estimate   =   -1881.45768796 Ry
     estimated scf accuracy    <       0.00043011 Ry

     total magnetization       =     8.00 Bohr mag/cell
     absolute magnetization    =     8.18 Bohr mag/cell

     iteration # 15     ecut=   100.00 Ry     beta= 0.70
     Davidson diagonalization with overlap
     ethr =  9.60E-08,  avg # of iterations =  2.0

     total cpu time spent up to now is     1072.0 secs

     total energy              =   -1881.45790949 Ry
     Harris-Foulkes estimate   =   -1881.45783894 Ry
     estimated scf accuracy    <       0.00013571 Ry

     total magnetization       =     8.00 Bohr mag/cell
     absolute magnetization    =     8.18 Bohr mag/cell

     iteration # 16     ecut=   100.00 Ry     beta= 0.70
     Davidson diagonalization with overlap
     ethr =  3.03E-08,  avg # of iterations =  3.0

     total cpu time spent up to now is     1136.3 secs

     total energy              =   -1881.45792169 Ry
     Harris-Foulkes estimate   =   -1881.45791968 Ry
     estimated scf accuracy    <       0.00007573 Ry

     total magnetization       =     8.00 Bohr mag/cell
     absolute magnetization    =     8.18 Bohr mag/cell

     iteration # 17     ecut=   100.00 Ry     beta= 0.70
     Davidson diagonalization with overlap
     ethr =  1.69E-08,  avg # of iterations =  1.5

     total cpu time spent up to now is     1197.2 secs

     total energy              =   -1881.45792489 Ry
     Harris-Foulkes estimate   =   -1881.45792512 Ry
     estimated scf accuracy    <       0.00004313 Ry

     total magnetization       =     8.00 Bohr mag/cell
     absolute magnetization    =     8.18 Bohr mag/cell

     iteration # 18     ecut=   100.00 Ry     beta= 0.70
     Davidson diagonalization with overlap
     ethr =  9.63E-09,  avg # of iterations =  2.5

     total cpu time spent up to now is     1259.0 secs

     total energy              =   -1881.45792099 Ry
     Harris-Foulkes estimate   =   -1881.45793096 Ry
     estimated scf accuracy    <       0.00011851 Ry

     total magnetization       =     8.00 Bohr mag/cell
     absolute magnetization    =     8.18 Bohr mag/cell

     iteration # 19     ecut=   100.00 Ry     beta= 0.70
     Davidson diagonalization with overlap
     ethr =  9.63E-09,  avg # of iterations =  2.0

     total cpu time spent up to now is     1320.6 secs

     total energy              =   -1881.45792769 Ry
     Harris-Foulkes estimate   =   -1881.45792840 Ry
     estimated scf accuracy    <       0.00003251 Ry

     total magnetization       =     8.00 Bohr mag/cell
     absolute magnetization    =     8.18 Bohr mag/cell

     iteration # 20     ecut=   100.00 Ry     beta= 0.70
     Davidson diagonalization with overlap
     ethr =  7.26E-09,  avg # of iterations =  1.5

     total cpu time spent up to now is     1381.6 secs

     total energy              =   -1881.45792759 Ry
     Harris-Foulkes estimate   =   -1881.45792958 Ry
     estimated scf accuracy    <       0.00003575 Ry

     total magnetization       =     8.00 Bohr mag/cell
     absolute magnetization    =     8.18 Bohr mag/cell

     iteration # 21     ecut=   100.00 Ry     beta= 0.70
     Davidson diagonalization with overlap
     ethr =  7.26E-09,  avg # of iterations =  2.0

     total cpu time spent up to now is     1442.5 secs

     total energy              =   -1881.45792857 Ry
     Harris-Foulkes estimate   =   -1881.45792891 Ry
     estimated scf accuracy    <       0.00000656 Ry

     total magnetization       =     8.00 Bohr mag/cell
     absolute magnetization    =     8.18 Bohr mag/cell

     iteration # 22     ecut=   100.00 Ry     beta= 0.70
     Davidson diagonalization with overlap
     ethr =  1.46E-09,  avg # of iterations =  2.5

     total cpu time spent up to now is     1504.2 secs

     total energy              =   -1881.45792908 Ry
     Harris-Foulkes estimate   =   -1881.45792902 Ry
     estimated scf accuracy    <       0.00000555 Ry

     total magnetization       =     8.00 Bohr mag/cell
     absolute magnetization    =     8.18 Bohr mag/cell

     iteration # 23     ecut=   100.00 Ry     beta= 0.70
     Davidson diagonalization with overlap
     ethr =  1.24E-09,  avg # of iterations =  3.0

     total cpu time spent up to now is     1568.6 secs

     total energy              =   -1881.45792922 Ry
     Harris-Foulkes estimate   =   -1881.45792937 Ry
     estimated scf accuracy    <       0.00000254 Ry

     total magnetization       =     8.00 Bohr mag/cell
     absolute magnetization    =     8.18 Bohr mag/cell

     iteration # 24     ecut=   100.00 Ry     beta= 0.70
     Davidson diagonalization with overlap
     ethr =  5.66E-10,  avg # of iterations =  1.5

     total cpu time spent up to now is     1629.6 secs

     total energy              =   -1881.45792911 Ry
     Harris-Foulkes estimate   =   -1881.45792948 Ry
     estimated scf accuracy    <       0.00000430 Ry

     total magnetization       =     8.00 Bohr mag/cell
     absolute magnetization    =     8.18 Bohr mag/cell

     iteration # 25     ecut=   100.00 Ry     beta= 0.70
     Davidson diagonalization with overlap
     ethr =  5.66E-10,  avg # of iterations =  1.5
 
     Magnetic moment per site:
     atom:    1    charge:    0.8217    magn:    0.0060    constr:    0.0000
     atom:    2    charge:    0.8457    magn:    0.0055    constr:    0.0000
     atom:    3    charge:    0.8473    magn:    0.0046    constr:    0.0000
     atom:    4    charge:    0.8469    magn:    0.0042    constr:    0.0000
     atom:    5    charge:    0.8451    magn:    0.0052    constr:    0.0000
     atom:    6    charge:    0.8210    magn:    0.0058    constr:    0.0000
     atom:    7    charge:    0.8463    magn:    0.0048    constr:    0.0000
     atom:    8    charge:    0.8213    magn:    0.0059    constr:    0.0000
     atom:    9    charge:    0.8380    magn:    0.0051    constr:    0.0000
     atom:   10    charge:    0.8379    magn:    0.0066    constr:    0.0000
     atom:   11    charge:    0.8386    magn:    0.0066    constr:    0.0000
     atom:   12    charge:    0.8369    magn:    0.0050    constr:    0.0000
     atom:   13    charge:    0.8403    magn:    0.0051    constr:    0.0000
     atom:   14    charge:    0.8487    magn:    0.0076    constr:    0.0000
     atom:   15    charge:    0.8408    magn:    0.0062    constr:    0.0000
     atom:   16    charge:    0.8395    magn:    0.0050    constr:    0.0000
     atom:   17    charge:    0.8176    magn:    0.0038    constr:    0.0000
     atom:   18    charge:    0.8453    magn:    0.0052    constr:    0.0000
     atom:   19    charge:    0.8493    magn:    0.0050    constr:    0.0000
     atom:   20    charge:    0.8469    magn:    0.0048    constr:    0.0000
     atom:   21    charge:    0.8224    magn:   -0.0013    constr:    0.0000
     atom:   22    charge:    0.8229    magn:   -0.0016    constr:    0.0000
     atom:   23    charge:    0.8228    magn:   -0.0014    constr:    0.0000
     atom:   24    charge:    0.8234    magn:   -0.0018    constr:    0.0000
     atom:   25    charge:    0.8217    magn:    0.0060    constr:    0.0000
     atom:   26    charge:    0.8457    magn:    0.0055    constr:    0.0000
     atom:   27    charge:    0.8473    magn:    0.0046    constr:    0.0000
     atom:   28    charge:    0.8469    magn:    0.0041    constr:    0.0000
     atom:   29    charge:    0.8451    magn:    0.0052    constr:    0.0000
     atom:   30    charge:    0.8210    magn:    0.0058    constr:    0.0000
     atom:   31    charge:    0.8232    magn:    0.0058    constr:    0.0000
     atom:   32    charge:    0.8453    magn:    0.0051    constr:    0.0000
     atom:   33    charge:    0.8381    magn:    0.0066    constr:    0.0000
     atom:   34    charge:    0.8369    magn:    0.0051    constr:    0.0000
     atom:   35    charge:    0.8386    magn:    0.0066    constr:    0.0000
     atom:   36    charge:    0.8370    magn:    0.0050    constr:    0.0000
     atom:   37    charge:    0.8403    magn:    0.0051    constr:    0.0000
     atom:   38    charge:    0.8487    magn:    0.0076    constr:    0.0000
     atom:   39    charge:    0.8462    magn:    0.0070    constr:    0.0000
     atom:   40    charge:    0.8476    magn:    0.0072    constr:    0.0000
     atom:   41    charge:    0.8465    magn:    0.0058    constr:    0.0000
     atom:   42    charge:    0.8196    magn:    0.0053    constr:    0.0000
     atom:   43    charge:    0.8494    magn:    0.0046    constr:    0.0000
     atom:   44    charge:    0.8467    magn:    0.0044    constr:    0.0000
     atom:   45    charge:    0.8223    magn:   -0.0013    constr:    0.0000
     atom:   46    charge:    0.8229    magn:   -0.0015    constr:    0.0000
     atom:   47    charge:    0.8227    magn:   -0.0014    constr:    0.0000
     atom:   48    charge:    0.8236    magn:   -0.0015    constr:    0.0000
     atom:   49    charge:    3.1047    magn:    0.0399    constr:    0.0000
     atom:   50    charge:    3.0809    magn:    0.0366    constr:    0.0000
     atom:   51    charge:    3.0788    magn:    0.0367    constr:    0.0000
     atom:   52    charge:    3.0981    magn:    0.0379    constr:    0.0000
     atom:   53    charge:    3.1048    magn:    0.0398    constr:    0.0000
     atom:   54    charge:    3.0809    magn:    0.0366    constr:    0.0000
     atom:   55    charge:    3.1005    magn:    0.0392    constr:    0.0000
     atom:   56    charge:    3.0807    magn:    0.0367    constr:    0.0000
     atom:   57    charge:    0.4848    magn:   -0.0014    constr:    0.0000
     atom:   58    charge:    0.4852    magn:   -0.0012    constr:    0.0000
     atom:   59    charge:    0.4853    magn:   -0.0013    constr:    0.0000
     atom:   60    charge:    0.4858    magn:   -0.0013    constr:    0.0000
     atom:   61    charge:    0.4909    magn:   -0.0011    constr:    0.0000
     atom:   62    charge:    0.4903    magn:   -0.0010    constr:    0.0000
     atom:   63    charge:    0.4875    magn:   -0.0010    constr:    0.0000
     atom:   64    charge:    0.4908    magn:   -0.0006    constr:    0.0000
     atom:   65    charge:    0.4875    magn:   -0.0008    constr:    0.0000
     atom:   66    charge:    0.4843    magn:    0.0016    constr:    0.0000
     atom:   67    charge:    0.4835    magn:   -0.0010    constr:    0.0000
     atom:   68    charge:    0.4869    magn:   -0.0009    constr:    0.0000
     atom:   69    charge:    0.4835    magn:   -0.0008    constr:    0.0000
     atom:   70    charge:    0.4855    magn:   -0.0012    constr:    0.0000
     atom:   71    charge:    0.4848    magn:   -0.0014    constr:    0.0000
     atom:   72    charge:    0.4852    magn:   -0.0012    constr:    0.0000
     atom:   73    charge:    0.4874    magn:   -0.0007    constr:    0.0000
     atom:   74    charge:    0.4882    magn:   -0.0007    constr:    0.0000
     atom:   75    charge:    0.4875    magn:   -0.0010    constr:    0.0000
     atom:   76    charge:    0.4908    magn:   -0.0006    constr:    0.0000
     atom:   77    charge:    0.4874    magn:   -0.0008    constr:    0.0000
     atom:   78    charge:    0.4845    magn:    0.0016    constr:    0.0000
     atom:   79    charge:    0.4866    magn:    0.0011    constr:    0.0000
     atom:   80    charge:    0.4851    magn:    0.0010    constr:    0.0000
     atom:   81    charge:    2.4470    magn:    0.0132    constr:    0.0000
     atom:   82    charge:    2.4497    magn:    0.0143    constr:    0.0000
     atom:   83    charge:    2.4500    magn:    0.0123    constr:    0.0000
     atom:   84    charge:    2.4478    magn:    0.0135    constr:    0.0000
     atom:   85    charge:    2.4470    magn:    0.0133    constr:    0.0000
     atom:   86    charge:    2.4498    magn:    0.0142    constr:    0.0000
     atom:   87    charge:    2.4522    magn:    0.0135    constr:    0.0000
     atom:   88    charge:    2.4483    magn:    0.0137    constr:    0.0000
     atom:   89    charge:    7.4352    magn:    1.1051    constr:    0.0000
     atom:   90    charge:    7.4361    magn:    1.1000    constr:    0.0000
     atom:   91    charge:    7.4367    magn:    1.1027    constr:    0.0000
     atom:   92    charge:    7.4377    magn:    1.0990    constr:    0.0000
     atom:   93    charge:    3.2591    magn:    0.0538    constr:    0.0000
     atom:   94    charge:    3.2578    magn:    0.0554    constr:    0.0000
     atom:   95    charge:    3.2608    magn:    0.0547    constr:    0.0000
     atom:   96    charge:    3.2567    magn:    0.0550    constr:    0.0000
     atom:   97    charge:    3.2565    magn:    0.0550    constr:    0.0000
     atom:   98    charge:    3.2573    magn:    0.0573    constr:    0.0000
     atom:   99    charge:    3.2597    magn:    0.0563    constr:    0.0000
     atom:  100    charge:    3.2557    magn:    0.0560    constr:    0.0000
     atom:  101    charge:    3.2603    magn:    0.0543    constr:    0.0000
     atom:  102    charge:    3.2572    magn:    0.0567    constr:    0.0000
     atom:  103    charge:    3.2611    magn:    0.0543    constr:    0.0000
     atom:  104    charge:    3.2569    magn:    0.0547    constr:    0.0000
     atom:  105    charge:    3.2568    magn:    0.0553    constr:    0.0000
     atom:  106    charge:    3.2581    magn:    0.0568    constr:    0.0000
     atom:  107    charge:    3.2597    magn:    0.0564    constr:    0.0000
     atom:  108    charge:    3.2558    magn:    0.0559    constr:    0.0000

     total cpu time spent up to now is     1689.3 secs

     End of self-consistent calculation

 ------ SPIN UP ------------


          k = 0.0000 0.0000 0.0000 ( 91663 PWs)   bands (ev):

   -21.5261 -21.5141 -21.5055 -21.4811 -21.3973 -21.3875 -21.3787 -21.3533
   -18.5918 -18.5705 -18.5235 -18.4944 -18.4854 -18.4773 -18.4691 -18.4616
   -18.4488 -18.4390 -18.4161 -18.3892 -18.3162 -18.2647 -18.2417 -18.2172
   -16.7950 -16.7708 -16.7479 -16.2519 -16.0161 -15.9401 -15.9233 -15.8860
   -14.5404 -14.4830 -14.4730 -14.3727 -14.2934 -14.2581 -14.2170 -14.1943
   -13.5360 -13.4475 -13.3330 -13.0408 -12.9277 -12.8478 -12.7585 -12.7381
   -11.1201 -11.0731 -11.0039 -10.8873 -10.7942 -10.7442 -10.7219 -10.7189
   -10.1767 -10.1306 -10.0956  -9.9801  -9.9352  -9.8962  -9.8671  -9.8508
    -8.9625  -8.8244  -8.7768  -8.5012  -8.2742  -8.0703  -8.0540  -7.9910
    -7.2973  -7.1806  -7.1535  -7.0425  -7.0231  -7.0065  -6.9639  -6.9206
    -6.8788  -6.8179  -6.7806  -6.7320  -6.7110  -6.6819  -6.6232  -6.5085
    -6.3514  -6.3020  -6.2793  -5.9967  -5.9699  -5.9171  -5.8968  -5.8582
    -5.8230  -5.8141  -5.7977  -5.7807  -5.7292  -5.6762  -5.6529  -5.6120
    -5.6055  -5.5783  -5.5454  -5.5231  -5.4266  -5.4190  -5.3761  -5.3656
    -5.3308  -5.2813  -5.2776  -5.2408  -5.1996  -5.1718  -5.1359  -5.0808
    -5.0564  -5.0123  -4.9879  -4.9380  -4.9163  -4.8493  -4.7523  -4.6982
    -4.6404  -4.5621  -4.4548  -4.4339  -4.3742  -4.2469  -4.2080  -4.1210
    -3.9981  -3.8976  -3.8527  -3.8015  -3.7298  -3.6955  -3.6541  -3.5567
    -3.5186  -3.5026  -3.4200  -3.3920  -3.3274  -3.2983  -3.1682  -3.1370
    -3.0851  -3.0326  -2.9827  -2.9731  -2.9057  -2.8414  -2.8100  -2.8020
    -2.7345  -2.6576  -2.6164  -2.5612  -2.4718  -2.4328  -2.3954  -2.2877
    -2.2717  -2.2394  -2.2161  -2.1755  -2.1043  -2.0554  -2.0294  -1.9856
    -1.9541  -1.9146  -1.8968  -1.8477  -1.8137  -1.7807  -1.7007  -1.6581
    -1.6366  -1.5672  -1.5211  -1.4860  -1.4090  -1.3929  -1.3523  -1.3058
    -1.2875  -1.2826  -1.2657  -1.2445  -1.2048  -1.1807  -1.1705  -1.1230
    -1.0918  -1.0395  -1.0345  -1.0031  -0.9858  -0.9635  -0.8732  -0.8397
    -0.7943  -0.7312  -0.6565  -0.6426  -0.5515  -0.5159  -0.4847  -0.3287
    -0.3207  -0.1732  -0.0805  -0.0549   0.8245   0.8381   0.8957   0.9108
     1.0853   1.1181   1.1577   1.1999   2.6590   2.7229   2.8293   2.8496
     2.8765   2.9277   2.9468   3.0043   3.4831   3.6779   3.7390   3.9186
     3.9933   4.1142   4.2282   4.2355   4.5270   4.7960   4.8945   4.9755
     5.0290   5.1335   5.1787   5.2606   5.2901   5.4103   5.4585   5.4776
     5.5436   5.5985   5.6640   5.7387   5.8988   6.0599   6.1774   6.2363
     6.3519   6.3729   6.4591   6.5922   6.6979   6.7205   6.8373   7.0421
     7.1204   7.1903

 ------ SPIN DOWN ----------


          k = 0.0000 0.0000 0.0000 ( 91663 PWs)   bands (ev):

   -21.4242 -21.4117 -21.4018 -21.3777 -21.2962 -21.2860 -21.2760 -21.2503
   -18.5225 -18.5192 -18.4446 -18.3909 -18.3710 -18.3598 -18.3570 -18.3466
   -18.3278 -18.3234 -18.3129 -18.2993 -18.2783 -18.2251 -18.2057 -18.1806
   -16.7337 -16.7106 -16.6878 -16.1909 -15.9635 -15.8823 -15.8659 -15.8304
   -14.5009 -14.4445 -14.4349 -14.3329 -14.2495 -14.2173 -14.1726 -14.1495
   -13.4912 -13.4026 -13.2873 -12.9961 -12.8845 -12.8037 -12.7133 -12.6917
   -11.0777 -11.0326 -10.9644 -10.8452 -10.7539 -10.7017 -10.6800 -10.6775
   -10.1397 -10.0942 -10.0590  -9.9458  -9.9022  -9.8634  -9.8361  -9.8165
    -8.9281  -8.7894  -8.7433  -8.4662  -8.2406  -8.0333  -8.0170  -7.9553
    -7.2412  -7.1370  -7.1075  -7.0032  -6.9794  -6.9550  -6.9127  -6.8617
    -6.8203  -6.7662  -6.7335  -6.6744  -6.6558  -6.6107  -6.5516  -6.4330
    -6.2994  -6.2550  -6.2292  -5.9147  -5.8926  -5.8415  -5.8046  -5.7607
    -5.7430  -5.7317  -5.7179  -5.6926  -5.6487  -5.6024  -5.5608  -5.5095
    -5.5000  -5.4822  -5.4609  -5.4382  -5.3482  -5.3347  -5.2899  -5.2777
    -5.2328  -5.1831  -5.1809  -5.1456  -5.1096  -5.0611  -5.0470  -5.0141
    -4.9682  -4.9475  -4.9160  -4.8857  -4.8530  -4.7883  -4.6875  -4.6366
    -4.5800  -4.4905  -4.3719  -4.3567  -4.3103  -4.1838  -4.1356  -4.0414
    -3.9142  -3.8285  -3.7881  -3.7175  -3.6968  -3.5984  -3.4762  -3.3676
    -3.3373  -3.3140  -3.2710  -3.2603  -3.2376  -3.0834  -3.0633  -2.9261
    -2.8512  -2.8294  -2.7919  -2.7136  -2.7014  -2.6620  -2.6310  -2.5418
    -2.5239  -2.4937  -2.4515  -2.3319  -2.3023  -2.2581  -2.1300  -2.0808
    -1.9997  -1.9794  -1.9369  -1.8203  -1.7825  -1.7353  -1.7152  -1.6925
    -1.6380  -1.6170  -1.5890  -1.5417  -1.5039  -1.4488  -1.4252  -1.4050
    -1.3809  -1.2449  -1.2200  -1.2065  -1.1718  -1.1569  -1.1307  -1.0879
    -1.0527  -0.9763  -0.9111  -0.8726  -0.8012  -0.7506  -0.7281  -0.5867
    -0.5168  -0.5076  -0.4605  -0.3941  -0.3563  -0.3441  -0.3233  -0.2646
    -0.2428  -0.2181  -0.2004  -0.1687  -0.1333  -0.1214  -0.0746  -0.0647
    -0.0065   0.0468   0.0722   0.1031   1.5740   1.5813   1.6366   1.6492
     1.7819   1.8220   1.8504   1.8819   2.7700   2.8455   2.9270   2.9525
     2.9789   3.0355   3.0485   3.1098   3.5668   3.7613   3.8225   4.0016
     4.0729   4.1975   4.3117   4.3207   4.5673   4.8399   4.9458   5.0207
     5.0735   5.2004   5.2398   5.3241   5.3564   5.4717   5.5115   5.5498
     5.6149   5.6680   5.7336   5.7839   5.9393   6.1044   6.2158   6.2813
     6.4006   6.4145   6.5092   6.6370   6.7338   6.7670   6.8829   7.0787
     7.1623   7.2338

     the spin up/dw Fermi energies are     1.3558    1.0206 ev

!    total energy              =   -1881.45792916 Ry
     Harris-Foulkes estimate   =   -1881.45792929 Ry
     estimated scf accuracy    <       0.00000066 Ry

     The total energy is the sum of the following terms:

     one-electron contribution =   -2480.83086481 Ry
     hartree contribution      =    1411.14171288 Ry
     xc contribution           =    -566.22124699 Ry
     ewald contribution        =    -247.87555897 Ry
     Dispersion Correction     =      -0.50226040 Ry
     smearing contrib. (-TS)   =       2.83028914 Ry

     total magnetization       =     8.00 Bohr mag/cell
     absolute magnetization    =     8.18 Bohr mag/cell

     convergence has been achieved in  25 iterations

     Forces acting on atoms (cartesian axes, Ry/au):

     atom    1 type  1   force =    -0.02724548   -0.00631600   -0.00986923
     atom    2 type  1   force =     0.00595124    0.00839885    0.01060656
     atom    3 type  1   force =     0.01373151    0.02457037   -0.01820478
     atom    4 type  1   force =     0.01148348   -0.01978031   -0.01837175
     atom    5 type  1   force =    -0.01597909   -0.01354927    0.00007931
     atom    6 type  1   force =     0.04739352   -0.00641066   -0.02452561
     atom    7 type  1   force =    -0.00412901    0.01028111    0.01606955
     atom    8 type  1   force =     0.02875828   -0.00125037   -0.02451554
     atom    9 type  1   force =    -0.00184844   -0.00785721   -0.00448873
     atom   10 type  1   force =     0.00414299   -0.01847017    0.01057628
     atom   11 type  1   force =    -0.00817550   -0.00846020    0.00918373
     atom   12 type  1   force =     0.00650532   -0.00095576   -0.00410691
     atom   13 type  1   force =     0.00726443    0.00372104   -0.00077529
     atom   14 type  1   force =    -0.02625855    0.06807355   -0.05797657
     atom   15 type  1   force =    -0.00054696    0.01135705    0.01226181
     atom   16 type  1   force =    -0.00735153    0.00480026   -0.00137455
     atom   17 type  1   force =    -0.04728157   -0.00642364    0.01886183
     atom   18 type  1   force =     0.01571747   -0.01253943   -0.00019192
     atom   19 type  1   force =    -0.00682586   -0.02643759   -0.02351318
     atom   20 type  1   force =    -0.01262250    0.02272177   -0.01566306
     atom   21 type  1   force =    -0.00021131    0.00214896    0.00093810
     atom   22 type  1   force =    -0.00316449   -0.00479034   -0.00350616
     atom   23 type  1   force =     0.00859575   -0.00024573   -0.00397539
     atom   24 type  1   force =    -0.00371047    0.00410123   -0.00074216
     atom   25 type  1   force =    -0.02730756   -0.00637678   -0.00983332
     atom   26 type  1   force =     0.00593573    0.00846942    0.01068611
     atom   27 type  1   force =     0.01369646    0.02460106   -0.01828332
     atom   28 type  1   force =     0.01146606   -0.01983249   -0.01841767
     atom   29 type  1   force =    -0.01598006   -0.01349995    0.00007875
     atom   30 type  1   force =     0.04756740   -0.00638556   -0.02447253
     atom   31 type  1   force =     0.02796247    0.00431718   -0.01922277
     atom   32 type  1   force =    -0.00042378   -0.01007579    0.01506922
     atom   33 type  1   force =     0.00439538    0.01319754    0.00981805
     atom   34 type  1   force =    -0.00187744    0.00935258   -0.00361804
     atom   35 type  1   force =    -0.00805100   -0.00831897    0.00900548
     atom   36 type  1   force =     0.00645844   -0.00113976   -0.00440822
     atom   37 type  1   force =     0.00751505    0.00382002   -0.00069821
     atom   38 type  1   force =    -0.02600258    0.06802304   -0.05814955
     atom   39 type  1   force =     0.02227658    0.04502268   -0.06326276
     atom   40 type  1   force =     0.02384738   -0.05709648   -0.04806668
     atom   41 type  1   force =     0.00898723    0.00985482   -0.02557804
     atom   42 type  1   force =    -0.04160625    0.00656293   -0.01915552
     atom   43 type  1   force =    -0.01093533   -0.02355528   -0.01711639
     atom   44 type  1   force =    -0.01208638    0.02169498   -0.02051706
     atom   45 type  1   force =     0.00049246    0.00196629    0.00159283
     atom   46 type  1   force =    -0.00279179   -0.00461299   -0.00313979
     atom   47 type  1   force =    -0.00560368   -0.00378134    0.00079356
     atom   48 type  1   force =     0.00614994    0.00114066   -0.00187175
     atom   49 type  2   force =     0.03667814   -0.12851225    0.19854240
     atom   50 type  2   force =    -0.05940524   -0.00215755   -0.03714597
     atom   51 type  2   force =     0.07709578    0.01029313   -0.00950431
     atom   52 type  2   force =    -0.06508717   -0.10694888    0.15312062
     atom   53 type  2   force =     0.03679252   -0.12847189    0.19849773
     atom   54 type  2   force =    -0.05940960   -0.00220584   -0.03709750
     atom   55 type  2   force =    -0.04946805    0.10450621    0.18526023
     atom   56 type  2   force =     0.05757914   -0.00082645   -0.03661099
     atom   57 type  3   force =     0.00260946   -0.00408414   -0.00105179
     atom   58 type  3   force =     0.00001012    0.00338803   -0.00361716
     atom   59 type  3   force =    -0.00286160   -0.00352944   -0.00182403
     atom   60 type  3   force =    -0.00316287    0.00363143   -0.00052278
     atom   61 type  3   force =    -0.00072282    0.00020861    0.00175283
     atom   62 type  3   force =    -0.00051178   -0.00131389    0.00161577
     atom   63 type  3   force =    -0.00181987    0.00088841   -0.00187900
     atom   64 type  3   force =     0.00735660    0.00600955   -0.00288834
     atom   65 type  3   force =    -0.00173548    0.00007694   -0.00023490
     atom   66 type  3   force =     0.00884062    0.05578960   -0.04288871
     atom   67 type  3   force =    -0.00120766   -0.00124775    0.00027895
     atom   68 type  3   force =     0.00120727    0.00026105   -0.00043008
     atom   69 type  3   force =    -0.00217531   -0.00205036   -0.01100008
     atom   70 type  3   force =    -0.00107296    0.00424187   -0.00475047
     atom   71 type  3   force =     0.00261216   -0.00407107   -0.00102272
     atom   72 type  3   force =     0.00006678    0.00340144   -0.00360277
     atom   73 type  3   force =    -0.00408206    0.00301412   -0.00358503
     atom   74 type  3   force =    -0.00521983   -0.00371727   -0.00491336
     atom   75 type  3   force =    -0.00193856    0.00087652   -0.00184233
     atom   76 type  3   force =     0.00741467    0.00598362   -0.00297981
     atom   77 type  3   force =    -0.00178040    0.00003649   -0.00021056
     atom   78 type  3   force =     0.00880507    0.05557694   -0.04289502
     atom   79 type  3   force =    -0.00103103    0.04203794   -0.03498988
     atom   80 type  3   force =    -0.00384835   -0.04384038   -0.03715910
     atom   81 type  4   force =    -0.00126017   -0.00024877   -0.00312614
     atom   82 type  4   force =    -0.00283143    0.00290128    0.00217952
     atom   83 type  4   force =    -0.00609932   -0.00011332   -0.00183662
     atom   84 type  4   force =     0.00031888   -0.00163410   -0.00356017
     atom   85 type  4   force =    -0.00126073   -0.00053881   -0.00329531
     atom   86 type  4   force =    -0.00289221    0.00357040    0.00232141
     atom   87 type  4   force =     0.00238467    0.00210800   -0.00277364
     atom   88 type  4   force =    -0.00072888   -0.00025060    0.00065742
     atom   89 type  5   force =     0.00793490   -0.00459335    0.00173093
     atom   90 type  5   force =    -0.00031162    0.00514463    0.00319652
     atom   91 type  5   force =     0.01084890   -0.00343645   -0.00023109
     atom   92 type  5   force =     0.00371776    0.00303468    0.00313555
     atom   93 type  6   force =     0.00081966    0.00252193    0.00270216
     atom   94 type  6   force =     0.00184560    0.00191402   -0.00010384
     atom   95 type  6   force =    -0.00130100    0.01021548    0.00585528
     atom   96 type  6   force =    -0.00209707    0.00408570    0.00231970
     atom   97 type  6   force =    -0.00119361    0.00301496    0.00083493
     atom   98 type  6   force =    -0.00186980   -0.00225800    0.00143650
     atom   99 type  6   force =    -0.00339172    0.00412532    0.00325893
     atom  100 type  6   force =     0.00195452    0.00000704   -0.00297286
     atom  101 type  6   force =     0.00167193   -0.00833181    0.00360248
     atom  102 type  6   force =     0.00135469    0.00239887    0.00673031
     atom  103 type  6   force =    -0.00221392    0.01117801    0.00546892
     atom  104 type  6   force =    -0.00250412    0.00352486    0.00209048
     atom  105 type  6   force =    -0.00172615   -0.00713370   -0.00192443
     atom  106 type  6   force =     0.00129848    0.00732266   -0.00048317
     atom  107 type  6   force =    -0.00298186    0.00421452    0.00334371
     atom  108 type  6   force =     0.00170794   -0.00002353   -0.00298797

     Total force =     0.546705     Total SCF correction =     0.001819

     BFGS Geometry Optimization

     number of scf cycles    =   1
     number of bfgs steps    =   0

     energy   new            =   -1881.4579291575 Ry

     new trust radius        =       0.2393319198 bohr
     new conv_thr            =       0.0000010000 Ry


ATOMIC_POSITIONS (crystal)
C             0.2870498504        0.9697831171        0.5214756850
C             0.0386407701        0.0314608942        0.0228542912
C             0.3911979874        0.0128082230        0.5455543621
C             0.1407127051        0.9869081814        0.0451997620
C             0.4512389156        0.9696294745        0.6503750849
C             0.2045024780        0.0280821172        0.1486298074
C             0.2080213430        0.5301384292        0.5272116630
C             0.4597389329        0.4713561654        0.0266413262
C             0.2450545752        0.6129989929        0.6062038075
C             0.4970042255        0.3878965414        0.1091617316
C             0.2491386606        0.8888485136        0.6036760084
C             0.0013404245        0.1121916144        0.1040354732
C             0.4082836691        0.8895402330        0.7275120687
C             0.1587695190        0.1124234529        0.2248259141
C             0.0888503488        0.6094628929        0.7279835452
C             0.3405776299        0.3918358352        0.2293232036
C             0.0449419501        0.5248075687        0.6522834794
C             0.2983229083        0.4741811456        0.1527441154
C             0.1078531221        0.4831528778        0.5489049524
C             0.3572831944        0.5166161100        0.0498312732
C             0.4333019378        0.0994098045        0.4666693169
C             0.1813798074        0.8995175840        0.9654914151
C             0.0677380045        0.3944636167        0.4704712474
C             0.3158852950        0.6043452977        0.9690687748
C             0.7870472572        0.9697805487        0.5214775342
C             0.5386401885        0.0314638760        0.0228583885
C             0.8911964306        0.0128095196        0.5455503166
C             0.6407119247        0.9869059766        0.0451973970
C             0.9512388740        0.9696315585        0.6503750558
C             0.7045098855        0.0280831776        0.1486325410
C             0.7093472193        0.5298864227        0.5253939302
C             0.9585421928        0.4709832467        0.0286801409
C             0.7453321946        0.6138886629        0.6069406792
C             0.9967361645        0.3890721939        0.1084306525
C             0.7491437614        0.8888544812        0.6036668276
C             0.5013381584        0.1121838391        0.1040199546
C             0.9082943464        0.8895444154        0.7275160388
C             0.6587791883        0.1124213188        0.2248170046
C             0.5897453385        0.6108854367        0.7240936485
C             0.8418540516        0.3892203841        0.2269183237
C             0.5472813206        0.5254954161        0.6499946019
C             0.7958794668        0.4749883171        0.1517673942
C             0.6076852249        0.4832746700        0.5492344197
C             0.8573013303        0.5165727229        0.0495812681
C             0.9333323317        0.0994020857        0.4667030387
C             0.6813959218        0.8995250777        0.9655102852
C             0.5671406230        0.3943142192        0.4707168722
C             0.8163014817        0.6042201987        0.9690105952
Cl            0.2047031491        0.0077317052        0.4035619352
Cl            0.3302624351        0.9835888328        0.1879307952
Cl            0.9221974160        0.4777979370        0.6894864800
Cl            0.5397413513        0.5091138669        0.9097234844
Cl            0.7047079473        0.0077334107        0.4035596347
Cl            0.8302612961        0.9835867922        0.1879352913
Cl            0.7902614040        0.4925149179        0.4100048366
Cl            0.6717431565        0.5211930784        0.1901723493
H             0.4866474338        0.0025194243        0.9434448275
H             0.0320600376        0.9989481617        0.6733336982
H             0.2585772009        0.5007458634        0.4491880532
H             0.0085066725        0.5005504465        0.9505210742
H             0.3226120566        0.6505148150        0.5927252794
H             0.0749478587        0.3527954813        0.0951112205
H             0.1700752306        0.8551605400        0.5884632219
H             0.4226305885        0.1479859342        0.0897372357
H             0.4532963424        0.8551762511        0.8087489014
H             0.2065728907        0.1454603938        0.3065880151
H             0.0436781589        0.6428912763        0.8066223675
H             0.2964286827        0.3575370305        0.3090288489
H             0.4685696403        0.4931443618        0.6729354401
H             0.2189021446        0.5053802407        0.1750193269
H             0.9866475757        0.0025199765        0.9434463246
H             0.5320614486        0.9989487280        0.6733344392
H             0.8224649064        0.6506333618        0.5924503531
H             0.5747425162        0.3526939265        0.0947749373
H             0.6700702426        0.8551600375        0.5884651105
H             0.9226329601        0.1479848384        0.0897325245
H             0.9532944648        0.8551745421        0.8087501552
H             0.7065723805        0.1454514077        0.3065876901
H             0.5436525734        0.6447203164        0.8048058445
H             0.7961803249        0.3556735214        0.3071371188
N             0.3083807454        0.8512424882        0.7046669881
N             0.0606112306        0.1489795937        0.2061642561
N             0.1862821843        0.6503052116        0.7057434047
N             0.4388201564        0.3508589510        0.2078576331
N             0.8083805632        0.8512302325        0.7046582747
N             0.5606087915        0.1490078676        0.2061715644
N             0.6866413081        0.6503990738        0.7056951434
N             0.9387797737        0.3509174107        0.2080748603
Ni            0.2473393896        0.7512919075        0.8364151516
Ni            0.4999618102        0.2482163866        0.3393426370
Ni            0.7474608570        0.7513407926        0.8363140978
Ni            1.0001322570        0.2481272305        0.3393394966
O             0.1228152170        0.3477955644        0.3830121747
O             0.3712859995        0.6510578769        0.8812866518
O             0.3775804364        0.1479386560        0.3774795762
O             0.1250114363        0.8525246415        0.8763804764
O             0.4730192746        0.3562873975        0.4830370029
O             0.2210592255        0.6413195882        0.9799509871
O             0.0286995335        0.1353323158        0.4812458511
O             0.2767659191        0.8627582973        0.9792458826
O             0.6228531248        0.3473369387        0.3830585461
O             0.8712716329        0.6510783644        0.8816386447
O             0.8775414437        0.1479793278        0.3774596771
O             0.6249939969        0.8525009431        0.8763686703
O             0.9729941538        0.3558585650        0.4828948819
O             0.7211914927        0.6417244195        0.9798521142
O             0.5287169564        0.1353360850        0.4812502177
O             0.7767554709        0.8627570057        0.9792451046



     Writing output data file ./QE_relaxation_results/pbesol_relax/NiPyC2_relax_sc211_meta_functionalized_Cl_pbesol_relax.save/
     NEW-OLD atomic charge density approx. for the potential

     Check: negative core charge=   -0.000147

     total cpu time spent up to now is     1717.2 secs

     Self-consistent Calculation

     iteration #  1     ecut=   100.00 Ry     beta= 0.70
     Davidson diagonalization with overlap
     ethr =  1.00E-06,  avg # of iterations = 16.0

     total cpu time spent up to now is     2013.9 secs

     total energy              =   -1881.65532099 Ry
     Harris-Foulkes estimate   =   -1881.66549468 Ry
     estimated scf accuracy    <       0.03215931 Ry

     total magnetization       =     8.00 Bohr mag/cell
     absolute magnetization    =     8.19 Bohr mag/cell

     iteration #  2     ecut=   100.00 Ry     beta= 0.70
     Davidson diagonalization with overlap
     ethr =  7.18E-06,  avg # of iterations =  2.0

     total cpu time spent up to now is     2075.7 secs

     total energy              =   -1881.65609634 Ry
     Harris-Foulkes estimate   =   -1881.65766491 Ry
     estimated scf accuracy    <       0.00554969 Ry

     total magnetization       =     8.00 Bohr mag/cell
     absolute magnetization    =     8.19 Bohr mag/cell

     iteration #  3     ecut=   100.00 Ry     beta= 0.70
     Davidson diagonalization with overlap
     ethr =  1.24E-06,  avg # of iterations =  2.0

     total cpu time spent up to now is     2159.8 secs

     total energy              =   -1881.65574404 Ry
     Harris-Foulkes estimate   =   -1881.65876175 Ry
     estimated scf accuracy    <       0.04073741 Ry

     total magnetization       =     8.00 Bohr mag/cell
     absolute magnetization    =     8.19 Bohr mag/cell

     iteration #  4     ecut=   100.00 Ry     beta= 0.70
     Davidson diagonalization with overlap
     ethr =  1.24E-06,  avg # of iterations =  2.0

     total cpu time spent up to now is     2221.4 secs

     total energy              =   -1881.65713307 Ry
     Harris-Foulkes estimate   =   -1881.65727711 Ry
     estimated scf accuracy    <       0.00110409 Ry

     total magnetization       =     8.00 Bohr mag/cell
     absolute magnetization    =     8.19 Bohr mag/cell

     iteration #  5     ecut=   100.00 Ry     beta= 0.70
     Davidson diagonalization with overlap
     ethr =  2.46E-07,  avg # of iterations =  1.5

     total cpu time spent up to now is     2281.2 secs

     total energy              =   -1881.65710794 Ry
     Harris-Foulkes estimate   =   -1881.65724300 Ry
     estimated scf accuracy    <       0.00085848 Ry

     total magnetization       =     8.00 Bohr mag/cell
     absolute magnetization    =     8.19 Bohr mag/cell

     iteration #  6     ecut=   100.00 Ry     beta= 0.70
     Davidson diagonalization with overlap
     ethr =  1.92E-07,  avg # of iterations =  1.0

     total cpu time spent up to now is     2341.1 secs

     total energy              =   -1881.65714169 Ry
     Harris-Foulkes estimate   =   -1881.65718264 Ry
     estimated scf accuracy    <       0.00032380 Ry

     total magnetization       =     8.00 Bohr mag/cell
     absolute magnetization    =     8.19 Bohr mag/cell

     iteration #  7     ecut=   100.00 Ry     beta= 0.70
     Davidson diagonalization with overlap
     ethr =  7.23E-08,  avg # of iterations =  3.0

     total cpu time spent up to now is     2403.0 secs

     total energy              =   -1881.65714009 Ry
     Harris-Foulkes estimate   =   -1881.65716463 Ry
     estimated scf accuracy    <       0.00023873 Ry

     total magnetization       =     8.00 Bohr mag/cell
     absolute magnetization    =     8.19 Bohr mag/cell

     iteration #  8     ecut=   100.00 Ry     beta= 0.70
     Davidson diagonalization with overlap
     ethr =  5.33E-08,  avg # of iterations =  1.0

     total cpu time spent up to now is     2462.9 secs

     total energy              =   -1881.65714730 Ry
     Harris-Foulkes estimate   =   -1881.65715907 Ry
     estimated scf accuracy    <       0.00016823 Ry

     total magnetization       =     8.00 Bohr mag/cell
     absolute magnetization    =     8.19 Bohr mag/cell

     iteration #  9     ecut=   100.00 Ry     beta= 0.70
     Davidson diagonalization with overlap
     ethr =  3.76E-08,  avg # of iterations =  3.0

     total cpu time spent up to now is     2525.2 secs

     total energy              =   -1881.65714953 Ry
     Harris-Foulkes estimate   =   -1881.65715175 Ry
     estimated scf accuracy    <       0.00002897 Ry

     total magnetization       =     8.00 Bohr mag/cell
     absolute magnetization    =     8.19 Bohr mag/cell

     iteration # 10     ecut=   100.00 Ry     beta= 0.70
     Davidson diagonalization with overlap
     ethr =  6.47E-09,  avg # of iterations =  4.0

     total cpu time spent up to now is     2590.3 secs

     total energy              =   -1881.65715099 Ry
     Harris-Foulkes estimate   =   -1881.65715113 Ry
     estimated scf accuracy    <       0.00001143 Ry

     total magnetization       =     8.00 Bohr mag/cell
     absolute magnetization    =     8.19 Bohr mag/cell

     iteration # 11     ecut=   100.00 Ry     beta= 0.70
     Davidson diagonalization with overlap
     ethr =  2.55E-09,  avg # of iterations =  1.5

     total cpu time spent up to now is     2650.6 secs

     total energy              =   -1881.65715085 Ry
     Harris-Foulkes estimate   =   -1881.65715181 Ry
     estimated scf accuracy    <       0.00001487 Ry

     total magnetization       =     8.00 Bohr mag/cell
     absolute magnetization    =     8.19 Bohr mag/cell

     iteration # 12     ecut=   100.00 Ry     beta= 0.70
     Davidson diagonalization with overlap
     ethr =  2.55E-09,  avg # of iterations =  1.0

     total cpu time spent up to now is     2710.6 secs

     total energy              =   -1881.65715164 Ry
     Harris-Foulkes estimate   =   -1881.65715197 Ry
     estimated scf accuracy    <       0.00001124 Ry

     total magnetization       =     8.00 Bohr mag/cell
     absolute magnetization    =     8.19 Bohr mag/cell

     iteration # 13     ecut=   100.00 Ry     beta= 0.70
     Davidson diagonalization with overlap
     ethr =  2.51E-09,  avg # of iterations =  2.0

     total cpu time spent up to now is     2771.4 secs

     total energy              =   -1881.65715193 Ry
     Harris-Foulkes estimate   =   -1881.65715203 Ry
     estimated scf accuracy    <       0.00000229 Ry

     total magnetization       =     8.00 Bohr mag/cell
     absolute magnetization    =     8.19 Bohr mag/cell

     iteration # 14     ecut=   100.00 Ry     beta= 0.70
     Davidson diagonalization with overlap
     ethr =  5.11E-10,  avg # of iterations =  3.5

     total cpu time spent up to now is     2834.4 secs

     total energy              =   -1881.65715199 Ry
     Harris-Foulkes estimate   =   -1881.65715215 Ry
     estimated scf accuracy    <       0.00000260 Ry

     total magnetization       =     8.00 Bohr mag/cell
     absolute magnetization    =     8.19 Bohr mag/cell

     iteration # 15     ecut=   100.00 Ry     beta= 0.70
     Davidson diagonalization with overlap
     ethr =  5.11E-10,  avg # of iterations =  1.5
 
     Magnetic moment per site:
     atom:    1    charge:    0.8319    magn:    0.0045    constr:    0.0000
     atom:    2    charge:    0.8446    magn:    0.0052    constr:    0.0000
     atom:    3    charge:    0.8445    magn:    0.0057    constr:    0.0000
     atom:    4    charge:    0.8465    magn:    0.0048    constr:    0.0000
     atom:    5    charge:    0.8440    magn:    0.0047    constr:    0.0000
     atom:    6    charge:    0.8202    magn:    0.0057    constr:    0.0000
     atom:    7    charge:    0.8458    magn:    0.0045    constr:    0.0000
     atom:    8    charge:    0.8293    magn:    0.0049    constr:    0.0000
     atom:    9    charge:    0.8393    magn:    0.0053    constr:    0.0000
     atom:   10    charge:    0.8390    magn:    0.0072    constr:    0.0000
     atom:   11    charge:    0.8411    magn:    0.0072    constr:    0.0000
     atom:   12    charge:    0.8390    magn:    0.0057    constr:    0.0000
     atom:   13    charge:    0.8416    magn:    0.0054    constr:    0.0000
     atom:   14    charge:    0.8400    magn:    0.0072    constr:    0.0000
     atom:   15    charge:    0.8399    magn:    0.0066    constr:    0.0000
     atom:   16    charge:    0.8406    magn:    0.0054    constr:    0.0000
     atom:   17    charge:    0.8192    magn:    0.0042    constr:    0.0000
     atom:   18    charge:    0.8445    magn:    0.0048    constr:    0.0000
     atom:   19    charge:    0.8448    magn:    0.0059    constr:    0.0000
     atom:   20    charge:    0.8436    magn:    0.0059    constr:    0.0000
     atom:   21    charge:    0.8253    magn:   -0.0015    constr:    0.0000
     atom:   22    charge:    0.8261    magn:   -0.0016    constr:    0.0000
     atom:   23    charge:    0.8259    magn:   -0.0015    constr:    0.0000
     atom:   24    charge:    0.8259    magn:   -0.0018    constr:    0.0000
     atom:   25    charge:    0.8319    magn:    0.0045    constr:    0.0000
     atom:   26    charge:    0.8446    magn:    0.0052    constr:    0.0000
     atom:   27    charge:    0.8445    magn:    0.0057    constr:    0.0000
     atom:   28    charge:    0.8465    magn:    0.0047    constr:    0.0000
     atom:   29    charge:    0.8440    magn:    0.0047    constr:    0.0000
     atom:   30    charge:    0.8202    magn:    0.0057    constr:    0.0000
     atom:   31    charge:    0.8330    magn:    0.0045    constr:    0.0000
     atom:   32    charge:    0.8446    magn:    0.0048    constr:    0.0000
     atom:   33    charge:    0.8406    magn:    0.0076    constr:    0.0000
     atom:   34    charge:    0.8389    magn:    0.0056    constr:    0.0000
     atom:   35    charge:    0.8412    magn:    0.0072    constr:    0.0000
     atom:   36    charge:    0.8390    magn:    0.0057    constr:    0.0000
     atom:   37    charge:    0.8416    magn:    0.0054    constr:    0.0000
     atom:   38    charge:    0.8400    magn:    0.0072    constr:    0.0000
     atom:   39    charge:    0.8437    magn:    0.0067    constr:    0.0000
     atom:   40    charge:    0.8418    magn:    0.0068    constr:    0.0000
     atom:   41    charge:    0.8436    magn:    0.0055    constr:    0.0000
     atom:   42    charge:    0.8190    magn:    0.0054    constr:    0.0000
     atom:   43    charge:    0.8483    magn:    0.0053    constr:    0.0000
     atom:   44    charge:    0.8459    magn:    0.0050    constr:    0.0000
     atom:   45    charge:    0.8252    magn:   -0.0015    constr:    0.0000
     atom:   46    charge:    0.8260    magn:   -0.0016    constr:    0.0000
     atom:   47    charge:    0.8255    magn:   -0.0015    constr:    0.0000
     atom:   48    charge:    0.8270    magn:   -0.0015    constr:    0.0000
     atom:   49    charge:    3.0362    magn:    0.0340    constr:    0.0000
     atom:   50    charge:    3.0790    magn:    0.0337    constr:    0.0000
     atom:   51    charge:    3.0782    magn:    0.0328    constr:    0.0000
     atom:   52    charge:    3.0523    magn:    0.0322    constr:    0.0000
     atom:   53    charge:    3.0363    magn:    0.0340    constr:    0.0000
     atom:   54    charge:    3.0790    magn:    0.0337    constr:    0.0000
     atom:   55    charge:    3.0452    magn:    0.0333    constr:    0.0000
     atom:   56    charge:    3.0798    magn:    0.0336    constr:    0.0000
     atom:   57    charge:    0.4804    magn:   -0.0014    constr:    0.0000
     atom:   58    charge:    0.4798    magn:   -0.0012    constr:    0.0000
     atom:   59    charge:    0.4800    magn:   -0.0013    constr:    0.0000
     atom:   60    charge:    0.4815    magn:   -0.0013    constr:    0.0000
     atom:   61    charge:    0.4892    magn:   -0.0012    constr:    0.0000
     atom:   62    charge:    0.4891    magn:   -0.0012    constr:    0.0000
     atom:   63    charge:    0.4906    magn:   -0.0011    constr:    0.0000
     atom:   64    charge:    0.4897    magn:   -0.0008    constr:    0.0000
     atom:   65    charge:    0.4879    magn:   -0.0009    constr:    0.0000
     atom:   66    charge:    0.4728    magn:    0.0008    constr:    0.0000
     atom:   67    charge:    0.4887    magn:   -0.0010    constr:    0.0000
     atom:   68    charge:    0.4871    magn:   -0.0010    constr:    0.0000
     atom:   69    charge:    0.4778    magn:   -0.0010    constr:    0.0000
     atom:   70    charge:    0.4799    magn:   -0.0013    constr:    0.0000
     atom:   71    charge:    0.4804    magn:   -0.0014    constr:    0.0000
     atom:   72    charge:    0.4798    magn:   -0.0012    constr:    0.0000
     atom:   73    charge:    0.4911    magn:   -0.0009    constr:    0.0000
     atom:   74    charge:    0.4919    magn:   -0.0009    constr:    0.0000
     atom:   75    charge:    0.4906    magn:   -0.0011    constr:    0.0000
     atom:   76    charge:    0.4897    magn:   -0.0008    constr:    0.0000
     atom:   77    charge:    0.4879    magn:   -0.0009    constr:    0.0000
     atom:   78    charge:    0.4729    magn:    0.0008    constr:    0.0000
     atom:   79    charge:    0.4725    magn:    0.0005    constr:    0.0000
     atom:   80    charge:    0.4757    magn:    0.0004    constr:    0.0000
     atom:   81    charge:    2.4470    magn:    0.0132    constr:    0.0000
     atom:   82    charge:    2.4648    magn:    0.0127    constr:    0.0000
     atom:   83    charge:    2.4493    magn:    0.0127    constr:    0.0000
     atom:   84    charge:    2.4492    magn:    0.0133    constr:    0.0000
     atom:   85    charge:    2.4471    magn:    0.0132    constr:    0.0000
     atom:   86    charge:    2.4646    magn:    0.0127    constr:    0.0000
     atom:   87    charge:    2.4675    magn:    0.0122    constr:    0.0000
     atom:   88    charge:    2.4609    magn:    0.0128    constr:    0.0000
     atom:   89    charge:    7.4349    magn:    1.1151    constr:    0.0000
     atom:   90    charge:    7.4365    magn:    1.1054    constr:    0.0000
     atom:   91    charge:    7.4372    magn:    1.1114    constr:    0.0000
     atom:   92    charge:    7.4387    magn:    1.1059    constr:    0.0000
     atom:   93    charge:    3.2618    magn:    0.0541    constr:    0.0000
     atom:   94    charge:    3.2583    magn:    0.0565    constr:    0.0000
     atom:   95    charge:    3.2606    magn:    0.0561    constr:    0.0000
     atom:   96    charge:    3.2585    magn:    0.0559    constr:    0.0000
     atom:   97    charge:    3.2587    magn:    0.0556    constr:    0.0000
     atom:   98    charge:    3.2589    magn:    0.0583    constr:    0.0000
     atom:   99    charge:    3.2607    magn:    0.0575    constr:    0.0000
     atom:  100    charge:    3.2556    magn:    0.0575    constr:    0.0000
     atom:  101    charge:    3.2598    magn:    0.0556    constr:    0.0000
     atom:  102    charge:    3.2598    magn:    0.0566    constr:    0.0000
     atom:  103    charge:    3.2605    magn:    0.0560    constr:    0.0000
     atom:  104    charge:    3.2584    magn:    0.0558    constr:    0.0000
     atom:  105    charge:    3.2550    magn:    0.0571    constr:    0.0000
     atom:  106    charge:    3.2571    magn:    0.0578    constr:    0.0000
     atom:  107    charge:    3.2604    magn:    0.0578    constr:    0.0000
     atom:  108    charge:    3.2558    magn:    0.0573    constr:    0.0000

     total cpu time spent up to now is     2893.0 secs

     End of self-consistent calculation

 ------ SPIN UP ------------


          k = 0.0000 0.0000 0.0000 ( 91663 PWs)   bands (ev):

   -21.5097 -21.5037 -21.5022 -21.4758 -21.3804 -21.3762 -21.3752 -21.3472
   -18.6213 -18.6090 -18.5991 -18.5133 -18.4887 -18.4786 -18.4750 -18.4632
   -18.4606 -18.4549 -18.4356 -18.4278 -18.3157 -18.2891 -18.2754 -18.2187
   -17.1263 -17.0815 -17.0783 -16.8032 -16.3995 -16.3927 -16.3543 -16.3373
   -14.4341 -14.3933 -14.3603 -14.2956 -14.2429 -14.2164 -14.1889 -14.1743
   -13.3299 -13.2679 -13.1364 -12.9472 -12.8882 -12.8098 -12.7348 -12.7201
   -11.1200 -11.0506 -10.9920 -10.9092 -10.8397 -10.7906 -10.7748 -10.7696
   -10.0885 -10.0428 -10.0124  -9.9343  -9.8768  -9.8444  -9.8160  -9.7947
    -8.8692  -8.6998  -8.6659  -8.4090  -8.2747  -8.1015  -8.0608  -7.9925
    -7.2671  -7.2187  -7.1329  -7.0462  -7.0305  -7.0160  -6.9846  -6.9261
    -6.8970  -6.8480  -6.8051  -6.7390  -6.7112  -6.6747  -6.6327  -6.5147
    -6.3674  -6.3171  -6.2219  -6.0676  -6.0320  -5.9443  -5.9182  -5.9013
    -5.8728  -5.8437  -5.8343  -5.7844  -5.7401  -5.6995  -5.6733  -5.6238
    -5.6089  -5.5831  -5.5694  -5.5170  -5.4279  -5.3898  -5.3720  -5.3689
    -5.3331  -5.2908  -5.2481  -5.2287  -5.2060  -5.1628  -5.1308  -5.0564
    -5.0203  -4.9703  -4.9345  -4.8686  -4.8399  -4.7883  -4.7547  -4.7064
    -4.6487  -4.5687  -4.5406  -4.5052  -4.4075  -4.3609  -4.3207  -4.1769
    -4.0328  -3.9268  -3.8801  -3.7965  -3.7155  -3.6579  -3.6154  -3.5639
    -3.5075  -3.4731  -3.4304  -3.3797  -3.3458  -3.2908  -3.2292  -3.1254
    -3.1192  -3.0822  -3.0667  -3.0194  -2.9739  -2.9399  -2.8843  -2.8402
    -2.8194  -2.7117  -2.6768  -2.6487  -2.5925  -2.5534  -2.4024  -2.3457
    -2.2899  -2.2578  -2.2264  -2.2009  -2.1173  -2.0638  -2.0199  -1.9975
    -1.9621  -1.9405  -1.9016  -1.8361  -1.8193  -1.7994  -1.7300  -1.6758
    -1.6634  -1.5737  -1.5189  -1.4782  -1.4173  -1.3879  -1.3394  -1.3036
    -1.2758  -1.2683  -1.2396  -1.2266  -1.2094  -1.1882  -1.1209  -1.1096
    -1.0885  -1.0319  -1.0231  -0.9989  -0.9974  -0.9653  -0.8564  -0.8246
    -0.7902  -0.7032  -0.6706  -0.6373  -0.5383  -0.4992  -0.4676  -0.2832
    -0.2596  -0.1734  -0.0768  -0.0108   0.8301   0.8436   0.9026   0.9302
     1.1034   1.1353   1.1793   1.2239   2.6530   2.7206   2.8140   2.8335
     2.8812   2.9169   2.9616   2.9986   3.5800   3.7738   3.8231   3.9985
     4.0131   4.1465   4.2528   4.2787   4.5504   5.0032   5.1004   5.1719
     5.3112   5.3560   5.3947   5.4403   5.4784   5.5034   5.5810   5.6279
     5.6495   5.7169   5.7434   5.9024   6.0078   6.1532   6.2070   6.3072
     6.4290   6.5029   6.5908   6.7988   6.8258   6.8916   7.0500   7.1205
     7.1970   7.3063

 ------ SPIN DOWN ----------


          k = 0.0000 0.0000 0.0000 ( 91663 PWs)   bands (ev):

   -21.4057 -21.3989 -21.3976 -21.3706 -21.2771 -21.2725 -21.2715 -21.2424
   -18.5782 -18.5597 -18.5576 -18.4572 -18.3667 -18.3595 -18.3446 -18.3346
   -18.3323 -18.3283 -18.3197 -18.3059 -18.2727 -18.2414 -18.2347 -18.1793
   -17.0742 -17.0288 -17.0261 -16.7532 -16.3501 -16.3425 -16.3039 -16.2884
   -14.3944 -14.3543 -14.3211 -14.2558 -14.2019 -14.1763 -14.1476 -14.1332
   -13.2845 -13.2230 -13.0910 -12.9035 -12.8453 -12.7661 -12.6903 -12.6757
   -11.0763 -11.0083 -10.9509 -10.8663 -10.7979 -10.7486 -10.7325 -10.7260
   -10.0526 -10.0075  -9.9769  -9.9006  -9.8440  -9.8113  -9.7822  -9.7631
    -8.8358  -8.6664  -8.6330  -8.3756  -8.2403  -8.0655  -8.0229  -7.9572
    -7.2130  -7.1758  -7.0870  -6.9999  -6.9902  -6.9757  -6.9303  -6.8747
    -6.8438  -6.7991  -6.7518  -6.6787  -6.6471  -6.6026  -6.5615  -6.4422
    -6.3135  -6.2707  -6.1747  -5.9904  -5.9710  -5.8627  -5.8552  -5.8367
    -5.7862  -5.7395  -5.7360  -5.7054  -5.6566  -5.6228  -5.5767  -5.5196
    -5.5058  -5.4786  -5.4618  -5.4313  -5.3319  -5.3216  -5.2771  -5.2690
    -5.2390  -5.1947  -5.1504  -5.1301  -5.1081  -5.0438  -5.0223  -4.9903
    -4.9353  -4.9112  -4.8704  -4.8135  -4.7898  -4.7267  -4.6942  -4.6416
    -4.5991  -4.5059  -4.4665  -4.4236  -4.3511  -4.2980  -4.2485  -4.0952
    -3.9464  -3.8512  -3.8053  -3.7134  -3.6466  -3.5914  -3.4565  -3.3911
    -3.3579  -3.3091  -3.2822  -3.2381  -3.2341  -3.0915  -3.0591  -3.0454
    -2.9187  -2.9128  -2.8866  -2.8277  -2.7730  -2.7355  -2.6869  -2.6156
    -2.5760  -2.5361  -2.4995  -2.4732  -2.4128  -2.3865  -2.1716  -2.0932
    -2.0468  -1.9876  -1.9230  -1.8108  -1.7488  -1.7407  -1.7044  -1.6781
    -1.6181  -1.6077  -1.5833  -1.5432  -1.5041  -1.4539  -1.4288  -1.4091
    -1.3816  -1.2364  -1.2172  -1.1915  -1.1618  -1.1395  -1.1208  -1.0846
    -1.0365  -0.9938  -0.9129  -0.8650  -0.7828  -0.7638  -0.7187  -0.5498
    -0.5031  -0.4971  -0.4333  -0.4049  -0.3407  -0.3111  -0.2966  -0.2625
    -0.2285  -0.1909  -0.1779  -0.1525  -0.1213  -0.1005  -0.0471  -0.0382
     0.0106   0.0767   0.0870   0.1071   1.5892   1.5984   1.6533   1.6730
     1.8061   1.8476   1.8767   1.9102   2.7670   2.8499   2.9139   2.9395
     2.9854   3.0225   3.0687   3.1079   3.6637   3.8580   3.9069   4.0802
     4.0951   4.2302   4.3370   4.3651   4.5913   5.0468   5.1475   5.2178
     5.3713   5.4147   5.4512   5.5094   5.5463   5.5730   5.6519   5.6893
     5.7176   5.7873   5.7994   5.9434   6.0486   6.1945   6.2464   6.3497
     6.4685   6.5416   6.6304   6.8395   6.8676   6.9316   7.0933   7.1585
     7.2401   7.3412

     the spin up/dw Fermi energies are     1.3753    1.0357 ev

!    total energy              =   -1881.65715169 Ry
     Harris-Foulkes estimate   =   -1881.65715211 Ry
     estimated scf accuracy    <       0.00000073 Ry

     The total energy is the sum of the following terms:

     one-electron contribution =   -2478.35912686 Ry
     hartree contribution      =    1409.85593135 Ry
     xc contribution           =    -566.49216809 Ry
     ewald contribution        =    -248.99289399 Ry
     Dispersion Correction     =      -0.50165263 Ry
     smearing contrib. (-TS)   =       2.83275852 Ry

     total magnetization       =     8.00 Bohr mag/cell
     absolute magnetization    =     8.19 Bohr mag/cell

     convergence has been achieved in  15 iterations

     Forces acting on atoms (cartesian axes, Ry/au):

     atom    1 type  1   force =     0.03351095   -0.01256346    0.03921582
     atom    2 type  1   force =     0.00966516   -0.00849690   -0.00669954
[...]
    -2.0955  -2.0030  -1.9354  -1.8751  -1.8196  -1.7759  -1.7646  -1.7317
    -1.7136  -1.6669  -1.6463  -1.5866  -1.5784  -1.5368  -1.4756  -1.4330
    -1.4080  -1.3588  -1.3034  -1.2696  -1.2542  -1.1720  -1.1485  -1.1241
    -1.1025  -1.0350  -0.9667  -0.9203  -0.7983  -0.7743  -0.7007  -0.6755
    -0.5607  -0.5508  -0.5049  -0.4210  -0.3800  -0.3491  -0.3413  -0.3162
    -0.2701  -0.2496  -0.2252  -0.2217  -0.1864  -0.1480  -0.1072  -0.0837
    -0.0557  -0.0233   0.0529   0.1004   1.3911   1.4600   1.4988   1.5954
     1.7158   1.8095   1.8509   1.9129   2.7856   2.8821   2.8975   2.9232
     2.9961   3.0097   3.0239   3.0672   3.7799   3.9510   3.9879   4.0426
     4.1265   4.1361   4.2232   4.2681   4.6477   5.1319   5.2169   5.2616
     5.4041   5.4340   5.5286   5.5574   5.5729   5.6159   5.6549   5.6800
     5.7217   5.8075   5.9794   5.9868   6.1397   6.2060   6.2767   6.3282
     6.3961   6.4668   6.5403   6.6671   6.7669   6.8199   6.9840   7.1273
     7.3287   7.3737

     the spin up/dw Fermi energies are     1.3146    0.9747 ev

!    total energy              =   -1881.93536158 Ry
     Harris-Foulkes estimate   =   -1881.93536158 Ry
     estimated scf accuracy    <          8.5E-09 Ry

     The total energy is the sum of the following terms:

     one-electron contribution =   -2409.42198986 Ry
     hartree contribution      =    1374.93795946 Ry
     xc contribution           =    -566.17366175 Ry
     ewald contribution        =    -283.67567962 Ry
     Dispersion Correction     =      -0.51630608 Ry
     smearing contrib. (-TS)   =       2.91431627 Ry

     total magnetization       =     8.00 Bohr mag/cell
     absolute magnetization    =     8.22 Bohr mag/cell

     convergence has been achieved in  10 iterations

     Forces acting on atoms (cartesian axes, Ry/au):

     atom    1 type  1   force =     0.00036288   -0.00009182    0.00006495
     atom    2 type  1   force =    -0.00032387   -0.00019261    0.00053550
     atom    3 type  1   force =     0.00021962   -0.00016489    0.00016390
     atom    4 type  1   force =     0.00001009   -0.00015644   -0.00035464
     atom    5 type  1   force =    -0.00033730   -0.00023288    0.00010447
     atom    6 type  1   force =     0.00009877    0.00027130   -0.00039187
     atom    7 type  1   force =     0.00009739   -0.00010687   -0.00042377
     atom    8 type  1   force =     0.00007917    0.00003660   -0.00005264
     atom    9 type  1   force =     0.00022310    0.00029486   -0.00015889
     atom   10 type  1   force =    -0.00009694    0.00014619    0.00038914
     atom   11 type  1   force =     0.00025995    0.00002394    0.00012067
     atom   12 type  1   force =     0.00043867   -0.00027514   -0.00022813
     atom   13 type  1   force =    -0.00042224    0.00018737   -0.00017939
     atom   14 type  1   force =    -0.00026675   -0.00037798   -0.00021489
     atom   15 type  1   force =    -0.00006920    0.00023163   -0.00013289
     atom   16 type  1   force =     0.00041927   -0.00003136    0.00058904
     atom   17 type  1   force =    -0.00018266   -0.00033522    0.00002031
     atom   18 type  1   force =    -0.00009606    0.00024533    0.00008201
     atom   19 type  1   force =    -0.00009097    0.00000493    0.00013851
     atom   20 type  1   force =     0.00000249   -0.00028994    0.00037733
     atom   21 type  1   force =    -0.00015006   -0.00001929    0.00035924
     atom   22 type  1   force =     0.00007136    0.00025687   -0.00026535
     atom   23 type  1   force =     0.00012566   -0.00002793   -0.00038521
     atom   24 type  1   force =     0.00002457    0.00003081    0.00019371
     atom   25 type  1   force =     0.00045788    0.00018356    0.00012063
     atom   26 type  1   force =    -0.00011443   -0.00051970    0.00057815
     atom   27 type  1   force =     0.00016869   -0.00021078    0.00014601
     atom   28 type  1   force =     0.00005465   -0.00011530   -0.00016113
     atom   29 type  1   force =     0.00018352   -0.00028750    0.00005588
     atom   30 type  1   force =     0.00000674    0.00035998   -0.00057052
     atom   31 type  1   force =    -0.00030866   -0.00027876   -0.00008445
     atom   32 type  1   force =     0.00000829    0.00042551    0.00014020
     atom   33 type  1   force =     0.00016030    0.00030272   -0.00045483
     atom   34 type  1   force =     0.00016898    0.00039038    0.00007019
     atom   35 type  1   force =    -0.00013139    0.00034877   -0.00068677
     atom   36 type  1   force =     0.00000180   -0.00010196   -0.00033084
     atom   37 type  1   force =    -0.00016041   -0.00000169   -0.00020967
     atom   38 type  1   force =     0.00002680   -0.00025776    0.00023135
     atom   39 type  1   force =    -0.00008781   -0.00023866    0.00010373
     atom   40 type  1   force =    -0.00008902    0.00015428    0.00017614
     atom   41 type  1   force =    -0.00011667   -0.00002890   -0.00046254
     atom   42 type  1   force =     0.00005970   -0.00027248   -0.00075360
     atom   43 type  1   force =     0.00001265    0.00014375    0.00015553
     atom   44 type  1   force =    -0.00004120   -0.00023111    0.00006804
     atom   45 type  1   force =    -0.00011236    0.00002688   -0.00030569
     atom   46 type  1   force =     0.00026909   -0.00009182   -0.00009422
     atom   47 type  1   force =     0.00020685   -0.00020124   -0.00017868
     atom   48 type  1   force =    -0.00004840   -0.00018047    0.00008776
     atom   49 type  2   force =     0.00004656   -0.00063109    0.00018335
     atom   50 type  2   force =     0.00023622   -0.00000860   -0.00036113
     atom   51 type  2   force =    -0.00077214    0.00001231    0.00042677
     atom   52 type  2   force =     0.00034958   -0.00000202    0.00019145
     atom   53 type  2   force =     0.00050518    0.00013311    0.00060470
     atom   54 type  2   force =    -0.00036323    0.00006061   -0.00009702
     atom   55 type  2   force =    -0.00028267    0.00049901    0.00002761
     atom   56 type  2   force =     0.00061840    0.00027352   -0.00011434
     atom   57 type  3   force =     0.00020677    0.00015107    0.00020999
     atom   58 type  3   force =    -0.00040871   -0.00020412   -0.00013431
     atom   59 type  3   force =    -0.00001574    0.00022036   -0.00056439
     atom   60 type  3   force =    -0.00058937    0.00004726    0.00010109
     atom   61 type  3   force =     0.00010114   -0.00022296   -0.00031686
     atom   62 type  3   force =    -0.00005984    0.00006388   -0.00032109
     atom   63 type  3   force =     0.00039264    0.00002465    0.00065377
     atom   64 type  3   force =    -0.00007323   -0.00008162    0.00003708
     atom   65 type  3   force =    -0.00030615    0.00037633   -0.00021476
     atom   66 type  3   force =    -0.00021665    0.00002770   -0.00000392
     atom   67 type  3   force =    -0.00023978   -0.00064070   -0.00022798
     atom   68 type  3   force =     0.00032730   -0.00000939   -0.00004480
     atom   69 type  3   force =     0.00082438   -0.00008771   -0.00041214
     atom   70 type  3   force =     0.00053603    0.00033830    0.00009963
     atom   71 type  3   force =     0.00046633   -0.00012794   -0.00062898
     atom   72 type  3   force =    -0.00070610    0.00042065   -0.00001043
     atom   73 type  3   force =    -0.00015418    0.00028088    0.00030362
     atom   74 type  3   force =    -0.00029609    0.00017075   -0.00030404
     atom   75 type  3   force =     0.00000743    0.00047099    0.00013885
     atom   76 type  3   force =     0.00024100   -0.00000830   -0.00007938
     atom   77 type  3   force =     0.00004605    0.00024122   -0.00011261
     atom   78 type  3   force =    -0.00007791   -0.00005978    0.00027934
     atom   79 type  3   force =    -0.00011495    0.00013459    0.00056389
     atom   80 type  3   force =    -0.00020096    0.00009306    0.00003438
     atom   81 type  4   force =     0.00001105   -0.00036171    0.00002630
     atom   82 type  4   force =    -0.00007976   -0.00006846    0.00012195
     atom   83 type  4   force =     0.00051345   -0.00051140    0.00036747
     atom   84 type  4   force =    -0.00001887   -0.00028201    0.00004129
     atom   85 type  4   force =     0.00004289   -0.00001820    0.00006050
     atom   86 type  4   force =     0.00011448   -0.00013718   -0.00023540
     atom   87 type  4   force =    -0.00059675   -0.00026225   -0.00027866
     atom   88 type  4   force =    -0.00015986    0.00089869   -0.00022728
     atom   89 type  5   force =    -0.00021991    0.00080619    0.00005512
     atom   90 type  5   force =     0.00020126   -0.00025623    0.00014547
     atom   91 type  5   force =     0.00013839    0.00013060   -0.00013228
     atom   92 type  5   force =    -0.00064956   -0.00016543   -0.00051122
     atom   93 type  6   force =    -0.00009183   -0.00031184    0.00039471
     atom   94 type  6   force =    -0.00014787   -0.00031811    0.00002254
     atom   95 type  6   force =     0.00014244   -0.00004934   -0.00035987
     atom   96 type  6   force =    -0.00010421   -0.00043097   -0.00006769
     atom   97 type  6   force =     0.00009080    0.00017869    0.00037663
     atom   98 type  6   force =     0.00013740    0.00016319   -0.00032233
     atom   99 type  6   force =    -0.00051732   -0.00026959    0.00053920
     atom  100 type  6   force =    -0.00003036   -0.00009615   -0.00008999
     atom  101 type  6   force =     0.00053830    0.00035875    0.00065234
     atom  102 type  6   force =    -0.00029632    0.00018370    0.00016083
     atom  103 type  6   force =     0.00000208   -0.00001377    0.00021965
     atom  104 type  6   force =     0.00007458   -0.00006997    0.00019640
     atom  105 type  6   force =    -0.00005042    0.00001684    0.00084482
     atom  106 type  6   force =     0.00008388   -0.00014714    0.00002326
     atom  107 type  6   force =    -0.00026055    0.00021895   -0.00002972
     atom  108 type  6   force =     0.00013271    0.00011298    0.00010683

     Total force =     0.005168     Total SCF correction =     0.000222

     bfgs converged in  71 scf cycles and  70 bfgs steps
     (criteria: energy <  1.0E-04 Ry, force <  1.0E-03 Ry/Bohr)

     End of BFGS Geometry Optimization

     Final energy   =   -1881.9353615766 Ry
Begin final coordinates

ATOMIC_POSITIONS (crystal)
C             0.2794786833        0.9671570626        0.5415162717
C             0.0433144244        0.0317091520        0.0097007426
C             0.3802639226        0.0178704445        0.5574108059
C             0.1432636687        0.9855321705        0.0350923993
C             0.4478111370        0.9751948185        0.6547138325
C             0.2055547489        0.0302958332        0.1376231590
C             0.2110466410        0.5240469860        0.5276422456
C             0.4394648506        0.4421771234        0.0097499054
C             0.2448510892        0.6105608053        0.6039492948
C             0.4761961091        0.3621520785        0.0964829092
C             0.2520986388        0.8794982945        0.6202196538
C             0.0069257276        0.1156419639        0.0877744573
C             0.4148386685        0.8893665639        0.7320411924
C             0.1667009381        0.1198269486        0.2074293788
C             0.0987187908        0.5934586680        0.7392004134
C             0.3344264455        0.3935359757        0.2344173262
C             0.0626935953        0.5023233531        0.6694512693
C             0.2955067581        0.4757357625        0.1544086737
C             0.1180795607        0.4684823349        0.5578050793
C             0.3496151669        0.5043062071        0.0422605525
C             0.4158131650        0.1091641316        0.4783104634
C             0.1833739581        0.8941659306        0.9603205002
C             0.0784897336        0.3814130093        0.4738458933
C             0.3132697824        0.5962035492        0.9648958780
C             0.7769563546        0.9787970395        0.5450071413
C             0.5385451664        0.0320138083        0.0228668701
C             0.8827814205        0.0189963408        0.5497431182
C             0.6407042940        0.9896651919        0.0439699038
C             0.9526178370        0.9704456959        0.6402278968
C             0.7034826431        0.0357805110        0.1452075626
C             0.7152099705        0.5247119152        0.5430094967
C             0.9748255786        0.4935147544        0.0523957313
C             0.7519851090        0.6070105588        0.6270715323
C             1.0106711718        0.4081398321        0.1299691950
C             0.7477059005        0.8931015716        0.6255905558
C             0.5005866836        0.1129367034        0.1041911524
C             0.9177903802        0.8876360687        0.7209368960
C             0.6627994753        0.1235177478        0.2169900715
C             0.5793836419        0.6393339532        0.6958293642
C             0.8389643321        0.3746664655        0.2024802696
C             0.5380789637        0.5586668607        0.6139683254
C             0.7988437169        0.4644226158        0.1325522048
C             0.6056612073        0.4962890256        0.5387067231
C             0.8671223854        0.5233634602        0.0513404054
C             0.9215266972        0.1057078508        0.4661557926
C             0.6821272020        0.9011591635        0.9655515657
C             0.5629478580        0.4039967892        0.4642853841
C             0.8255384294        0.6112494647        0.9695490931
Cl            0.1813952157        0.0045223956        0.4402103808
Cl            0.3204569451        0.9735878579        0.1885476787
Cl            0.9588210464        0.4356735009        0.7299116404
Cl            0.5063016422        0.4550641558        0.8720254265
Cl            0.6753601729        0.0282062796        0.4575824248
Cl            0.8220220996        0.9842228077        0.1907444742
Cl            0.8089221483        0.4639535488        0.4584052048
Cl            0.6721009241        0.5002080474        0.1567776979
H             0.4858452851        0.0003764588        0.9467219450
H             0.0346954972        0.9979989441        0.6506046625
H             0.2588427197        0.4999398986        0.4457993438
H             0.0330697307        0.5375605152        0.9968530919
H             0.3175383108        0.6545645310        0.5839193735
H             0.0943941155        0.3852473880        0.1354188197
H             0.1743565709        0.8415506710        0.6075912457
H             0.4211413425        0.1464483476        0.0903807086
H             0.4659399845        0.8580775223        0.8099400156
H             0.2171192726        0.1586810710        0.2806674813
H             0.0541426428        0.6236836030        0.8210446667
H             0.2936644117        0.3692824806        0.3216979132
H             0.4528839683        0.5420246850        0.6148404012
H             0.2238926697        0.5186979756        0.1816215327
H             0.9908352641        0.0008523580        0.9328850292
H             0.5265557311        1.0093496236        0.6730100124
H             0.8366385115        0.6264931476        0.6334608048
H             0.5475413897        0.3167851733        0.0750901931
H             0.6666354760        0.8618752454        0.6209778074
H             0.9288839559        0.1517805311        0.0711780926
H             0.9705340070        0.8512350338        0.7937171797
H             0.7143554775        0.1648701663        0.2867997420
H             0.5283265507        0.6841231281        0.7599784029
H             0.7857517630        0.3265454484        0.2606034476
N             0.3179451668        0.8428703681        0.7138392857
N             0.0663131383        0.1555452069        0.1883487824
N             0.1887453373        0.6444402445        0.7071784441
N             0.4255594584        0.3407399297        0.2068363426
N             0.8163157484        0.8505474672        0.7121115099
N             0.5605764017        0.1549292506        0.2031029298
N             0.6854190005        0.6606808351        0.7033438370
N             0.9433621409        0.3499500382        0.2034452990
Ni            0.2517443501        0.7444749907        0.8365900915
Ni            0.4926388178        0.2496349397        0.3408047142
Ni            0.7510086549        0.7549691051        0.8367970962
Ni            1.0014636440        0.2440686590        0.3311555157
O             0.1322019834        0.3401344130        0.3816344761
O             0.3712077801        0.6424844126        0.8796661131
O             0.3614789973        0.1533851738        0.3858764133
O             0.1278101302        0.8459246127        0.8714744000
O             0.4651206275        0.3749898378        0.4720197853
O             0.2201651369        0.6372886229        0.9788925330
O             0.0207886958        0.1339206636        0.4703443521
O             0.2782887095        0.8565686350        0.9773163424
O             0.6191892866        0.3455647199        0.3883422054
O             0.8818088236        0.6608266353        0.8856720029
O             0.8652238591        0.1588464032        0.3829162933
O             0.6260837911        0.8531477736        0.8767339562
O             0.9838928611        0.3426962419        0.4841161901
O             0.7279860887        0.6436069044        0.9744100569
O             0.5092284537        0.1514405248        0.4956484087
O             0.7780754505        0.8656992940        0.9789092322
End final coordinates



     Writing output data file ./QE_relaxation_results/pbesol_relax/NiPyC2_relax_sc211_meta_functionalized_Cl_pbesol_relax.save/
 
     init_run     :     30.37s CPU     40.51s WALL (       1 calls)
     electrons    :  52530.25s CPU  66471.41s WALL (      71 calls)
     update_pot   :    574.15s CPU    607.35s WALL (      70 calls)
     forces       :   1127.61s CPU   1331.71s WALL (      71 calls)

     Called by init_run:
     wfcinit      :     21.39s CPU     31.01s WALL (       1 calls)
     potinit      :      3.76s CPU      4.14s WALL (       1 calls)
     hinit0       :      3.81s CPU      3.90s WALL (       1 calls)

     Called by electrons:
     c_bands      :  49196.39s CPU  61619.04s WALL (     915 calls)
     sum_band     :   2075.15s CPU   3028.09s WALL (     915 calls)
     v_of_rho     :    616.21s CPU    836.59s WALL (     962 calls)
     mix_rho      :    640.27s CPU    944.75s WALL (     915 calls)

     Called by c_bands:
     init_us_2    :     43.55s CPU     48.01s WALL (    1831 calls)
     regterg      :  48937.85s CPU  60364.85s WALL (     915 calls)

     Called by sum_band:

     Called by *egterg:
     h_psi        :  17648.73s CPU  22448.58s WALL (    3146 calls)
     g_psi        :      9.88s CPU     10.63s WALL (    2230 calls)
     rdiaghg      :   2309.84s CPU   2324.50s WALL (    3051 calls)

     Called by h_psi:
     h_psi:calbec :   5031.56s CPU   6330.83s WALL (    3146 calls)
     vloc_psi     :   7645.13s CPU  11123.22s WALL (    3146 calls)
     add_vuspsi   :   4926.65s CPU   4944.76s WALL (    3146 calls)

     General routines
     calbec       :   5739.62s CPU   7212.51s WALL (    3430 calls)
     fft          :    413.38s CPU    672.74s WALL (   15258 calls)
     ffts         :    435.44s CPU    661.59s WALL (   15770 calls)
     fftw         :   8189.66s CPU  12377.14s WALL (  688361 calls)
 
     Parallel routines
     fft_scatt_xy :   1412.64s CPU   1590.35s WALL (  719389 calls)
     fft_scatt_yz :   3058.14s CPU   6998.82s WALL (  719389 calls)
 
     PWSCF        :     15h 4m CPU     19h 1m WALL

 
   This run was terminated on:   3:23:38  24Jun2020            

=------------------------------------------------------------------------------=
   JOB DONE.
=------------------------------------------------------------------------------=
QE finished Wed Jun 24 03:23:38 PDT 2020
