/apps/openmpi/3.1_intel-19/bin/mpiexec
starting QE Sun Jun 21 23:00:21 PDT 2020

     Program PWSCF v.6.5 starts on 21Jun2020 at 23: 0:23 

     This program is part of the open-source Quantum ESPRESSO suite
     for quantum simulation of materials; please cite
         "P. Giannozzi et al., J. Phys.:Condens. Matter 21 395502 (2009);
         "P. Giannozzi et al., J. Phys.:Condens. Matter 29 465901 (2017);
          URL http://www.quantum-espresso.org", 
     in publications or presentations arising from this work. More details at
     http://www.quantum-espresso.org/quote

     Parallel version (MPI), running on    32 processors

     MPI processes distributed on     1 nodes
     K-points division:     npool     =       2
     R & G space division:  proc/nbgrp/npool/nimage =      16
     Reading input from QE_input_scripts/pw.NiPyC2_relax_sc211_meta_functionalized_Br_pbesol_relax.in
Warning: card &CELL ignored
Warning: card    CELL_DYNAMICS = 'BFGS' ignored
Warning: card    CELL_DOFREE = 'XYZ' ignored
Warning: card / ignored

     Current dimensions of program PWSCF are:
     Max number of different atomic species (ntypx) = 10
     Max number of k-points (npk) =  40000
     Max angular momentum in pseudopotentials (lmaxx) =  3

     -------------------------------------------------
     Parameters for Dispersion (Grimme-D2) Correction:
     -------------------------------------------------
       atom      VdW radius       C_6     

        Br         3.305        432.600
        C          2.744         60.710
        H          1.892          4.857
        N          2.640         42.670
        Ni         2.952        374.666
        O          2.536         24.284

     gamma-point specific algorithms are used

     Subspace diagonalization in iterative solution of the eigenvalue problem:
     a serial algorithm will be used

 
     Parallelization info
     --------------------
     sticks:   dense  smooth     PW     G-vecs:    dense   smooth      PW
     Min        1113    1113    277                91686    91686   11456
     Max        1116    1116    280                91692    91692   11460
     Sum       17829   17829   4453              1467017  1467017  183325
 


     bravais-lattice index     =            0
     lattice parameter (alat)  =      23.6322  a.u.
     unit-cell volume          =   10858.6228 (a.u.)^3
     number of atoms/cell      =          108
     number of atomic types    =            6
     number of electrons       =       448.00 (up: 228.00, down: 220.00)
     number of Kohn-Sham states=          274
     kinetic-energy cutoff     =     100.0000  Ry
     charge density cutoff     =     400.0000  Ry
     convergence threshold     =      1.0E-06
     mixing beta               =       0.7000
     number of iterations used =            8  local-TF  mixing
     Exchange-correlation= PBESOL
                           (   1   4  10   8   0   0   0)
     nstep                     =          200


     celldm(1)=  23.632159  celldm(2)=   0.000000  celldm(3)=   0.000000
     celldm(4)=   0.000000  celldm(5)=   0.000000  celldm(6)=   0.000000

     crystal axes: (cart. coord. in units of alat)
               a(1) = (   1.000000   0.000000   0.000000 )  
               a(2) = (   0.000000   1.001423   0.000000 )  
               a(3) = (  -0.018199   0.000000   0.821574 )  

     reciprocal axes: (cart. coord. in units 2 pi/alat)
               b(1) = (  1.000000  0.000000  0.022152 )  
               b(2) = (  0.000000  0.998579  0.000000 )  
               b(3) = (  0.000000  0.000000  1.217175 )  


     PseudoPot. # 1 for Br read from file:
     ./pseudo/Br.pbesol-n-nc.UPF
     MD5 check sum: aa882b714d6bd557db24118bfa7419d9
     Pseudo is Norm-conserving + core correction, Zval =  7.0
     Generated using "atomic" code by A. Dal Corso v.6.5
     Using radial grid of 1213 points,  2 beta functions with: 
                l(1) =   0
                l(2) =   1

     PseudoPot. # 2 for C  read from file:
     ./pseudo/C.pbesol-nc.UPF
     MD5 check sum: ce26087537ded160c8d400e183a8bf42
     Pseudo is Norm-conserving, Zval =  4.0
     Generated using "atomic" code by A. Dal Corso v.6.5
     Using radial grid of 1073 points,  1 beta functions with: 
                l(1) =   1

     PseudoPot. # 3 for H  read from file:
     ./pseudo/H.pbesol-n-nc.UPF
     MD5 check sum: 7995ef24074557c85b430109caaacc09
     Pseudo is Norm-conserving, Zval =  1.0
     Generated using "atomic" code by A. Dal Corso v.6.5
     Using radial grid of  929 points,  0 beta functions with: 

     PseudoPot. # 4 for N  read from file:
     ./pseudo/N.pbesol-nc.UPF
     MD5 check sum: e18cc5e4b8a5600c1a19b30c2cab1ca0
     Pseudo is Norm-conserving, Zval =  5.0
     Generated using "atomic" code by A. Dal Corso v.6.5
     Using radial grid of 1085 points,  1 beta functions with: 
                l(1) =   1

     PseudoPot. # 5 for Ni read from file:
     ./pseudo/Ni.pbesol-n-nc.UPF
     MD5 check sum: 623411631e0c2eb7c0b2b9815547d2d9
     Pseudo is Norm-conserving + core correction, Zval = 10.0
     Generated using "atomic" code by A. Dal Corso v.6.5
     Using radial grid of 1195 points,  2 beta functions with: 
                l(1) =   1
                l(2) =   2

     PseudoPot. # 6 for O  read from file:
     ./pseudo/O.pbesol-nc.UPF
     MD5 check sum: 73d10e7e91dbfcbe8a7e362101007f84
     Pseudo is Norm-conserving, Zval =  6.0
     Generated using "atomic" code by A. Dal Corso v.6.5
     Using radial grid of 1095 points,  1 beta functions with: 
                l(1) =   1

     atomic species   valence    mass     pseudopotential
        Br             7.00    79.90400     Br( 1.00)
        C              4.00    12.01070     C ( 1.00)
        H              1.00     1.00794     H ( 1.00)
        N              5.00    14.00670     N ( 1.00)
        Ni            10.00    58.69340     Ni( 1.00)
        O              6.00    15.99940     O ( 1.00)

     Starting magnetic structure 
     atomic species   magnetization
        Br           0.000
        C            0.000
        H            0.000
        N            0.000
        Ni           0.250
        O            0.000

     No symmetry found



   Cartesian axes

     site n.     atom                  positions (alat units)
         1           Br  tau(   1) = (   0.5819058   0.0163072   0.5721082  )
         2           Br  tau(   2) = (   0.3412546   0.9818255   0.1599580  )
         3           Br  tau(   3) = (   0.8945211   0.4745345   0.5707370  )
         4           Br  tau(   4) = (   0.1539678   0.5253747   0.1617129  )
         5           Br  tau(   5) = (   0.0819058   0.0163072   0.5721082  )
         6           Br  tau(   6) = (   0.4273232   0.9882997   0.7249892  )
         7           Br  tau(   7) = (   0.7936544   0.4858736   0.3199120  )
         8           Br  tau(   8) = (   0.6539678   0.5253747   0.1617129  )
         9           C   tau(   9) = (   0.2787122   0.9714307   0.4288486  )
        10           C   tau(  10) = (   0.0379730   0.0311503   0.0183277  )
        11           C   tau(  11) = (   0.3806882   0.0117868   0.4489838  )
        12           C   tau(  12) = (   0.1394042   0.9891499   0.0379124  )
        13           C   tau(  13) = (   0.4400787   0.9715829   0.5343281  )
        14           C   tau(  14) = (   0.1997920   0.0283934   0.1231482  )
        15           C   tau(  15) = (   0.1986011   0.5304580   0.4324635  )
        16           C   tau(  16) = (   0.4580372   0.4720800   0.0229252  )
        17           C   tau(  17) = (   0.2341003   0.6142040   0.4982314  )
        18           C   tau(  18) = (   0.4948422   0.3892302   0.0892369  )
        19           C   tau(  19) = (   0.2384981   0.8904717   0.4955761  )
        20           C   tau(  20) = (  -0.0008282   0.1123917   0.0856467  )
        21           C   tau(  21) = (   0.3947360   0.8906489   0.5977380  )
        22           C   tau(  22) = (   0.1557890   0.1097029   0.1871645  )
        23           C   tau(  23) = (   0.0756247   0.6098498   0.5975737  )
        24           C   tau(  24) = (   0.3367152   0.3921904   0.1884642  )
        25           C   tau(  25) = (   0.0350715   0.5258264   0.5351012  )
        26           C   tau(  26) = (   0.2948780   0.4753867   0.1254988  )
        27           C   tau(  27) = (   0.0981522   0.4849593   0.4519611  )
        28           C   tau(  28) = (   0.3569104   0.5163900   0.0416029  )
        29           C   tau(  29) = (   0.4248178   0.0994604   0.3833638  )
        30           C   tau(  30) = (   0.1639424   0.9010006   0.7933713  )
        31           C   tau(  31) = (   0.0588120   0.3950355   0.3866953  )
        32           C   tau(  32) = (   0.2984059   0.6050320   0.7961934  )
        33           C   tau(  33) = (   0.7787122   0.9714307   0.4288486  )
        34           C   tau(  34) = (   0.5379730   0.0311503   0.0183277  )
        35           C   tau(  35) = (   0.8806882   0.0117868   0.4489838  )
        36           C   tau(  36) = (   0.6394042   0.9891499   0.0379124  )
        37           C   tau(  37) = (   0.9400787   0.9715829   0.5343281  )
        38           C   tau(  38) = (   0.6997920   0.0283934   0.1231482  )
        39           C   tau(  39) = (   0.6986021   0.5304580   0.4324635  )
        40           C   tau(  40) = (   0.9580382   0.4720800   0.0229252  )
        41           C   tau(  41) = (   0.7341003   0.6142040   0.4982314  )
        42           C   tau(  42) = (   0.9948422   0.3892302   0.0892369  )
        43           C   tau(  43) = (   0.7384981   0.8904717   0.4955761  )
        44           C   tau(  44) = (   0.4991718   0.1123917   0.0856467  )
        45           C   tau(  45) = (   0.8947360   0.8906489   0.5977380  )
        46           C   tau(  46) = (   0.6557880   0.1097029   0.1871645  )
        47           C   tau(  47) = (   0.5756247   0.6098498   0.5975737  )
        48           C   tau(  48) = (   0.8367152   0.3921904   0.1884642  )
        49           C   tau(  49) = (   0.5350715   0.5258264   0.5351012  )
        50           C   tau(  50) = (   0.7948780   0.4753867   0.1254988  )
        51           C   tau(  51) = (   0.5981522   0.4849593   0.4519611  )
        52           C   tau(  52) = (   0.8569104   0.5163900   0.0416029  )
        53           C   tau(  53) = (   0.9248178   0.0994604   0.3833638  )
        54           C   tau(  54) = (   0.6639424   0.9010006   0.7933713  )
        55           C   tau(  55) = (   0.5588110   0.3950355   0.3866953  )
        56           C   tau(  56) = (   0.7984059   0.6050320   0.7961934  )
        57           H   tau(  57) = (   0.2290596   1.0009978   0.3640502  )
        58           H   tau(  58) = (   0.2505234   0.5016080   0.3691185  )
        59           H   tau(  59) = (  -0.0086584   0.5011092   0.7809458  )
        60           H   tau(  60) = (   0.3118554   0.6514319   0.4868937  )
        61           H   tau(  61) = (   0.0732386   0.3533532   0.0780726  )
        62           H   tau(  62) = (   0.1594426   0.8563401   0.4835457  )
        63           H   tau(  63) = (   0.4206861   0.1479423   0.0738480  )
        64           H   tau(  64) = (   0.4386511   0.8563902   0.6644572  )
        65           H   tau(  65) = (   0.2006191   0.1433067   0.2536997  )
        66           H   tau(  66) = (   0.0290492   0.6438591   0.6626884  )
        67           H   tau(  67) = (   0.2907535   0.3580349   0.2539083  )
        68           H   tau(  68) = (   0.4564147   0.4939330   0.5533319  )
        69           H   tau(  69) = (   0.7290596   1.0009978   0.3640502  )
        70           H   tau(  70) = (   0.9693669   0.0026958   0.7751545  )
        71           H   tau(  71) = (   0.7791988   1.0000865   0.1418054  )
        72           H   tau(  72) = (   0.4913416   0.5011092   0.7809458  )
        73           H   tau(  73) = (   0.8118554   0.6514319   0.4868937  )
        74           H   tau(  74) = (   0.5732386   0.3533532   0.0780726  )
        75           H   tau(  75) = (   0.6594426   0.8563401   0.4835457  )
        76           H   tau(  76) = (   0.9206861   0.1479423   0.0738480  )
        77           H   tau(  77) = (   0.9386511   0.8563902   0.6644572  )
        78           H   tau(  78) = (   0.7006201   0.1433067   0.2536997  )
        79           H   tau(  79) = (   0.5290492   0.6438591   0.6626884  )
        80           H   tau(  80) = (   0.7907535   0.3580349   0.2539083  )
        81           N   tau(  81) = (   0.2956096   0.8524646   0.5790685  )
        82           N   tau(  82) = (   0.0569790   0.1490689   0.1692870  )
        83           N   tau(  83) = (   0.1736962   0.6512356   0.5798983  )
        84           N   tau(  84) = (   0.4350238   0.3514275   0.1709211  )
        85           N   tau(  85) = (   0.7956096   0.8524646   0.5790685  )
        86           N   tau(  86) = (   0.5569790   0.1490689   0.1692870  )
        87           N   tau(  87) = (   0.6736972   0.6512356   0.5798983  )
        88           N   tau(  88) = (   0.9350238   0.3514275   0.1709211  )
        89           Ni  tau(  89) = (   0.2317814   0.7525556   0.6871039  )
        90           Ni  tau(  90) = (   0.4937992   0.2483520   0.2786599  )
        91           Ni  tau(  91) = (   0.7317814   0.7525556   0.6871039  )
        92           Ni  tau(  92) = (   0.9937992   0.2483520   0.2786599  )
        93           O   tau(  93) = (   0.1158100   0.3481839   0.3145586  )
        94           O   tau(  94) = (   0.3551690   0.6519036   0.7240468  )
        95           O   tau(  95) = (   0.3707656   0.1477170   0.3098797  )
        96           O   tau(  96) = (   0.1091506   0.8535652   0.7199135  )
        97           O   tau(  97) = (   0.4642788   0.3566669   0.3968154  )
        98           O   tau(  98) = (   0.2033039   0.6423280   0.8050417  )
        99           O   tau(  99) = (   0.0200847   0.1353504   0.3952413  )
       100           O   tau( 100) = (   0.2588616   0.8639860   0.8046490  )
       101           O   tau( 101) = (   0.6158110   0.3481839   0.3145586  )
       102           O   tau( 102) = (   0.8551690   0.6519036   0.7240468  )
       103           O   tau( 103) = (   0.8707656   0.1477170   0.3098797  )
       104           O   tau( 104) = (   0.6091506   0.8535652   0.7199135  )
       105           O   tau( 105) = (   0.9642788   0.3566669   0.3968154  )
       106           O   tau( 106) = (   0.7033039   0.6423280   0.8050417  )
       107           O   tau( 107) = (   0.5200847   0.1353504   0.3952413  )
       108           O   tau( 108) = (   0.7588616   0.8639860   0.8046490  )

     number of k points=     1  Marzari-Vanderbilt smearing, width (Ry)=  0.2000
                       cart. coord. in units 2pi/alat
        k(    1) = (   0.0000000   0.0000000   0.0000000), wk =   1.0000000

     Dense  grid:   733509 G-vectors     FFT dimensions: ( 160, 160, 125)

     Estimated max dynamical RAM per process >     335.26 MB

     Estimated total dynamical RAM >      10.48 GB
     Generating pointlists ...
     new r_m :   0.0594 (alat units)  1.4028 (a.u.) for type    1
     new r_m :   0.0358 (alat units)  0.8462 (a.u.) for type    2
     new r_m :   0.0358 (alat units)  0.8462 (a.u.) for type    3
     new r_m :   0.0445 (alat units)  1.0514 (a.u.) for type    4
     new r_m :   0.0654 (alat units)  1.5454 (a.u.) for type    5
     new r_m :   0.0423 (alat units)  0.9991 (a.u.) for type    6

     Check: negative core charge=   -0.000141

     Initial potential from superposition of free atoms

     starting charge  447.99659, renormalised to  448.00000
     Starting wfcs are  380 randomized atomic wfcs

     total cpu time spent up to now is       43.1 secs

     Self-consistent Calculation

     iteration #  1     ecut=   100.00 Ry     beta= 0.70
     Davidson diagonalization with overlap
     ethr =  1.00E-02,  avg # of iterations =  4.5

     total cpu time spent up to now is      151.2 secs

     total energy              =   -1888.85942133 Ry
     Harris-Foulkes estimate   =   -1895.70210317 Ry
     estimated scf accuracy    <      19.75845699 Ry

     total magnetization       =     8.00 Bohr mag/cell
     absolute magnetization    =     8.04 Bohr mag/cell

     iteration #  2     ecut=   100.00 Ry     beta= 0.70
     Davidson diagonalization with overlap
     ethr =  4.41E-03,  avg # of iterations =  2.0

     total cpu time spent up to now is      211.3 secs

     total energy              =   -1890.25635905 Ry
     Harris-Foulkes estimate   =   -1891.58722009 Ry
     estimated scf accuracy    <       4.25155243 Ry

     total magnetization       =     8.00 Bohr mag/cell
     absolute magnetization    =     8.07 Bohr mag/cell

     iteration #  3     ecut=   100.00 Ry     beta= 0.70
     Davidson diagonalization with overlap
     ethr =  9.49E-04,  avg # of iterations =  6.5

     total cpu time spent up to now is      285.6 secs

     total energy              =   -1890.11594440 Ry
     Harris-Foulkes estimate   =   -1891.51287435 Ry
     estimated scf accuracy    <       9.58942340 Ry

     total magnetization       =     8.00 Bohr mag/cell
     absolute magnetization    =     8.19 Bohr mag/cell

     iteration #  4     ecut=   100.00 Ry     beta= 0.70
     Davidson diagonalization with overlap
     ethr =  9.49E-04,  avg # of iterations =  1.5

     total cpu time spent up to now is      345.9 secs

     total energy              =   -1890.75817394 Ry
     Harris-Foulkes estimate   =   -1891.01623571 Ry
     estimated scf accuracy    <       2.04955532 Ry

     total magnetization       =     8.00 Bohr mag/cell
     absolute magnetization    =     8.10 Bohr mag/cell

     iteration #  5     ecut=   100.00 Ry     beta= 0.70
     Davidson diagonalization with overlap
     ethr =  4.57E-04,  avg # of iterations =  1.0

     total cpu time spent up to now is      405.2 secs

     total energy              =   -1890.73733250 Ry
     Harris-Foulkes estimate   =   -1890.81998805 Ry
     estimated scf accuracy    <       0.43479365 Ry

     total magnetization       =     8.00 Bohr mag/cell
     absolute magnetization    =     8.11 Bohr mag/cell

     iteration #  6     ecut=   100.00 Ry     beta= 0.70
     Davidson diagonalization with overlap
     ethr =  9.71E-05,  avg # of iterations =  9.5

     total cpu time spent up to now is      478.4 secs

     total energy              =   -1890.73037814 Ry
     Harris-Foulkes estimate   =   -1890.76666039 Ry
     estimated scf accuracy    <       0.40788485 Ry

     total magnetization       =     8.00 Bohr mag/cell
     absolute magnetization    =     8.13 Bohr mag/cell

     iteration #  7     ecut=   100.00 Ry     beta= 0.70
     Davidson diagonalization with overlap
     ethr =  9.10E-05,  avg # of iterations =  2.0

     total cpu time spent up to now is      538.5 secs

     total energy              =   -1890.73253475 Ry
     Harris-Foulkes estimate   =   -1890.75065803 Ry
     estimated scf accuracy    <       0.11092279 Ry

     total magnetization       =     8.00 Bohr mag/cell
     absolute magnetization    =     8.14 Bohr mag/cell

     iteration #  8     ecut=   100.00 Ry     beta= 0.70
     Davidson diagonalization with overlap
     ethr =  2.48E-05,  avg # of iterations =  3.0

     total cpu time spent up to now is      601.7 secs

     total energy              =   -1890.73325059 Ry
     Harris-Foulkes estimate   =   -1890.73679312 Ry
     estimated scf accuracy    <       0.04437548 Ry

     total magnetization       =     8.00 Bohr mag/cell
     absolute magnetization    =     8.15 Bohr mag/cell

     iteration #  9     ecut=   100.00 Ry     beta= 0.70
     Davidson diagonalization with overlap
     ethr =  9.91E-06,  avg # of iterations =  5.5

     total cpu time spent up to now is      666.9 secs

     total energy              =   -1890.73291613 Ry
     Harris-Foulkes estimate   =   -1890.73776288 Ry
     estimated scf accuracy    <       0.08328243 Ry

     total magnetization       =     8.00 Bohr mag/cell
     absolute magnetization    =     8.15 Bohr mag/cell

     iteration # 10     ecut=   100.00 Ry     beta= 0.70
     Davidson diagonalization with overlap
     ethr =  9.91E-06,  avg # of iterations =  1.0

     total cpu time spent up to now is      726.5 secs

     total energy              =   -1890.73849823 Ry
     Harris-Foulkes estimate   =   -1890.73648392 Ry
     estimated scf accuracy    <       0.01293490 Ry

     total magnetization       =     8.00 Bohr mag/cell
     absolute magnetization    =     8.16 Bohr mag/cell

     iteration # 11     ecut=   100.00 Ry     beta= 0.70
     Davidson diagonalization with overlap
     ethr =  2.89E-06,  avg # of iterations =  6.0

     total cpu time spent up to now is      799.9 secs

     total energy              =   -1890.74097497 Ry
     Harris-Foulkes estimate   =   -1890.73917427 Ry
     estimated scf accuracy    <       0.00355708 Ry

     total magnetization       =     8.00 Bohr mag/cell
     absolute magnetization    =     8.16 Bohr mag/cell

     iteration # 12     ecut=   100.00 Ry     beta= 0.70
     Davidson diagonalization with overlap
     ethr =  7.94E-07,  avg # of iterations =  3.5

     total cpu time spent up to now is      869.8 secs

     total energy              =   -1890.74159054 Ry
     Harris-Foulkes estimate   =   -1890.74121798 Ry
     estimated scf accuracy    <       0.00087101 Ry

     total magnetization       =     8.00 Bohr mag/cell
     absolute magnetization    =     8.16 Bohr mag/cell

     iteration # 13     ecut=   100.00 Ry     beta= 0.70
     Davidson diagonalization with overlap
     ethr =  1.94E-07,  avg # of iterations =  3.5

     total cpu time spent up to now is      936.0 secs

     total energy              =   -1890.74160832 Ry
     Harris-Foulkes estimate   =   -1890.74185783 Ry
     estimated scf accuracy    <       0.00497912 Ry

     total magnetization       =     8.00 Bohr mag/cell
     absolute magnetization    =     8.15 Bohr mag/cell

     iteration # 14     ecut=   100.00 Ry     beta= 0.70
     Davidson diagonalization with overlap
     ethr =  1.94E-07,  avg # of iterations =  2.5

     total cpu time spent up to now is      997.2 secs

     total energy              =   -1890.74192734 Ry
     Harris-Foulkes estimate   =   -1890.74181690 Ry
     estimated scf accuracy    <       0.00022022 Ry

     total magnetization       =     8.00 Bohr mag/cell
     absolute magnetization    =     8.15 Bohr mag/cell

     iteration # 15     ecut=   100.00 Ry     beta= 0.70
     Davidson diagonalization with overlap
     ethr =  4.92E-08,  avg # of iterations =  3.5

     total cpu time spent up to now is     1061.3 secs

     total energy              =   -1890.74199454 Ry
     Harris-Foulkes estimate   =   -1890.74194038 Ry
     estimated scf accuracy    <       0.00006654 Ry

     total magnetization       =     8.00 Bohr mag/cell
     absolute magnetization    =     8.15 Bohr mag/cell

     iteration # 16     ecut=   100.00 Ry     beta= 0.70
     Davidson diagonalization with overlap
     ethr =  1.49E-08,  avg # of iterations =  4.0

     total cpu time spent up to now is     1127.7 secs

     total energy              =   -1890.74200323 Ry
     Harris-Foulkes estimate   =   -1890.74200442 Ry
     estimated scf accuracy    <       0.00008893 Ry

     total magnetization       =     8.00 Bohr mag/cell
     absolute magnetization    =     8.15 Bohr mag/cell

     iteration # 17     ecut=   100.00 Ry     beta= 0.70
     Davidson diagonalization with overlap
     ethr =  1.49E-08,  avg # of iterations =  2.0

     total cpu time spent up to now is     1188.9 secs

     total energy              =   -1890.74200952 Ry
     Harris-Foulkes estimate   =   -1890.74200806 Ry
     estimated scf accuracy    <       0.00003512 Ry

     total magnetization       =     8.00 Bohr mag/cell
     absolute magnetization    =     8.15 Bohr mag/cell

     iteration # 18     ecut=   100.00 Ry     beta= 0.70
     Davidson diagonalization with overlap
     ethr =  7.84E-09,  avg # of iterations =  2.5

     total cpu time spent up to now is     1250.2 secs

     total energy              =   -1890.74201270 Ry
     Harris-Foulkes estimate   =   -1890.74201095 Ry
     estimated scf accuracy    <       0.00000690 Ry

     total magnetization       =     8.00 Bohr mag/cell
     absolute magnetization    =     8.15 Bohr mag/cell

     iteration # 19     ecut=   100.00 Ry     beta= 0.70
     Davidson diagonalization with overlap
     ethr =  1.54E-09,  avg # of iterations =  3.0

     total cpu time spent up to now is     1313.9 secs

     total energy              =   -1890.74201321 Ry
     Harris-Foulkes estimate   =   -1890.74201357 Ry
     estimated scf accuracy    <       0.00001599 Ry

     total magnetization       =     8.00 Bohr mag/cell
     absolute magnetization    =     8.15 Bohr mag/cell

     iteration # 20     ecut=   100.00 Ry     beta= 0.70
     Davidson diagonalization with overlap
     ethr =  1.54E-09,  avg # of iterations =  2.5

     total cpu time spent up to now is     1375.5 secs

     total energy              =   -1890.74201412 Ry
     Harris-Foulkes estimate   =   -1890.74201410 Ry
     estimated scf accuracy    <       0.00000414 Ry

     total magnetization       =     8.00 Bohr mag/cell
     absolute magnetization    =     8.15 Bohr mag/cell

     iteration # 21     ecut=   100.00 Ry     beta= 0.70
     Davidson diagonalization with overlap
     ethr =  9.25E-10,  avg # of iterations =  2.5

     total cpu time spent up to now is     1435.7 secs

     total energy              =   -1890.74201457 Ry
     Harris-Foulkes estimate   =   -1890.74201438 Ry
     estimated scf accuracy    <       0.00000163 Ry

     total magnetization       =     8.00 Bohr mag/cell
     absolute magnetization    =     8.15 Bohr mag/cell

     iteration # 22     ecut=   100.00 Ry     beta= 0.70
     Davidson diagonalization with overlap
     ethr =  3.64E-10,  avg # of iterations =  3.0
 
     Magnetic moment per site:
     atom:    1    charge:    2.3206    magn:    0.0316    constr:    0.0000
     atom:    2    charge:    2.3168    magn:    0.0332    constr:    0.0000
     atom:    3    charge:    2.3173    magn:    0.0331    constr:    0.0000
     atom:    4    charge:    2.3160    magn:    0.0332    constr:    0.0000
     atom:    5    charge:    2.3170    magn:    0.0333    constr:    0.0000
     atom:    6    charge:    2.3457    magn:    0.0333    constr:    0.0000
     atom:    7    charge:    2.3442    magn:    0.0339    constr:    0.0000
     atom:    8    charge:    2.3196    magn:    0.0305    constr:    0.0000
     atom:    9    charge:    0.8458    magn:    0.0060    constr:    0.0000
     atom:   10    charge:    0.8453    magn:    0.0050    constr:    0.0000
     atom:   11    charge:    0.8473    magn:    0.0032    constr:    0.0000
     atom:   12    charge:    0.8465    magn:    0.0042    constr:    0.0000
     atom:   13    charge:    0.8232    magn:    0.0081    constr:    0.0000
     atom:   14    charge:    0.8187    magn:    0.0045    constr:    0.0000
     atom:   15    charge:    0.8464    magn:    0.0049    constr:    0.0000
     atom:   16    charge:    0.8462    magn:    0.0051    constr:    0.0000
     atom:   17    charge:    0.8382    magn:    0.0049    constr:    0.0000
     atom:   18    charge:    0.8377    magn:    0.0047    constr:    0.0000
     atom:   19    charge:    0.8376    magn:    0.0043    constr:    0.0000
     atom:   20    charge:    0.8378    magn:    0.0049    constr:    0.0000
     atom:   21    charge:    0.8571    magn:    0.0069    constr:    0.0000
     atom:   22    charge:    0.8402    magn:    0.0056    constr:    0.0000
     atom:   23    charge:    0.8404    magn:    0.0056    constr:    0.0000
     atom:   24    charge:    0.8400    magn:    0.0054    constr:    0.0000
     atom:   25    charge:    0.8177    magn:    0.0043    constr:    0.0000
     atom:   26    charge:    0.8173    magn:    0.0044    constr:    0.0000
     atom:   27    charge:    0.8489    magn:    0.0043    constr:    0.0000
     atom:   28    charge:    0.8466    magn:    0.0044    constr:    0.0000
     atom:   29    charge:    0.8225    magn:   -0.0008    constr:    0.0000
     atom:   30    charge:    0.8237    magn:   -0.0004    constr:    0.0000
     atom:   31    charge:    0.8232    magn:   -0.0006    constr:    0.0000
     atom:   32    charge:    0.8236    magn:   -0.0014    constr:    0.0000
     atom:   33    charge:    0.8458    magn:    0.0053    constr:    0.0000
     atom:   34    charge:    0.8262    magn:    0.0096    constr:    0.0000
     atom:   35    charge:    0.8470    magn:    0.0042    constr:    0.0000
     atom:   36    charge:    0.8464    magn:    0.0037    constr:    0.0000
     atom:   37    charge:    0.8177    magn:    0.0045    constr:    0.0000
     atom:   38    charge:    0.8466    magn:    0.0055    constr:    0.0000
     atom:   39    charge:    0.8274    magn:    0.0089    constr:    0.0000
     atom:   40    charge:    0.8462    magn:    0.0057    constr:    0.0000
     atom:   41    charge:    0.8381    magn:    0.0060    constr:    0.0000
     atom:   42    charge:    0.8367    magn:    0.0045    constr:    0.0000
     atom:   43    charge:    0.8386    magn:    0.0046    constr:    0.0000
     atom:   44    charge:    0.8379    magn:    0.0060    constr:    0.0000
     atom:   45    charge:    0.8407    magn:    0.0053    constr:    0.0000
     atom:   46    charge:    0.8397    magn:    0.0045    constr:    0.0000
     atom:   47    charge:    0.8399    magn:    0.0046    constr:    0.0000
     atom:   48    charge:    0.8554    magn:    0.0072    constr:    0.0000
     atom:   49    charge:    0.8457    magn:    0.0054    constr:    0.0000
     atom:   50    charge:    0.8227    magn:    0.0076    constr:    0.0000
     atom:   51    charge:    0.8487    magn:    0.0039    constr:    0.0000
     atom:   52    charge:    0.8468    magn:    0.0035    constr:    0.0000
     atom:   53    charge:    0.8223    magn:   -0.0013    constr:    0.0000
     atom:   54    charge:    0.8236    magn:   -0.0009    constr:    0.0000
     atom:   55    charge:    0.8232    magn:   -0.0010    constr:    0.0000
     atom:   56    charge:    0.8237    magn:   -0.0011    constr:    0.0000
     atom:   57    charge:    0.4846    magn:   -0.0012    constr:    0.0000
     atom:   58    charge:    0.4852    magn:   -0.0011    constr:    0.0000
     atom:   59    charge:    0.4847    magn:   -0.0011    constr:    0.0000
     atom:   60    charge:    0.4908    magn:   -0.0011    constr:    0.0000
     atom:   61    charge:    0.4894    magn:   -0.0004    constr:    0.0000
     atom:   62    charge:    0.4892    magn:   -0.0003    constr:    0.0000
     atom:   63    charge:    0.4894    magn:   -0.0002    constr:    0.0000
     atom:   64    charge:    0.4875    magn:    0.0025    constr:    0.0000
     atom:   65    charge:    0.4846    magn:   -0.0009    constr:    0.0000
     atom:   66    charge:    0.4845    magn:   -0.0009    constr:    0.0000
     atom:   67    charge:    0.4841    magn:   -0.0009    constr:    0.0000
     atom:   68    charge:    0.4849    magn:   -0.0011    constr:    0.0000
     atom:   69    charge:    0.4850    magn:   -0.0012    constr:    0.0000
     atom:   70    charge:    0.4855    magn:   -0.0011    constr:    0.0000
     atom:   71    charge:    0.4851    magn:   -0.0011    constr:    0.0000
     atom:   72    charge:    0.4852    magn:   -0.0011    constr:    0.0000
     atom:   73    charge:    0.4889    magn:   -0.0004    constr:    0.0000
     atom:   74    charge:    0.4910    magn:   -0.0005    constr:    0.0000
     atom:   75    charge:    0.4910    magn:   -0.0003    constr:    0.0000
     atom:   76    charge:    0.4912    magn:   -0.0011    constr:    0.0000
     atom:   77    charge:    0.4847    magn:   -0.0009    constr:    0.0000
     atom:   78    charge:    0.4867    magn:   -0.0009    constr:    0.0000
     atom:   79    charge:    0.4867    magn:   -0.0009    constr:    0.0000
     atom:   80    charge:    0.4887    magn:    0.0022    constr:    0.0000
     atom:   81    charge:    2.4530    magn:    0.0162    constr:    0.0000
     atom:   82    charge:    2.4470    magn:    0.0128    constr:    0.0000
     atom:   83    charge:    2.4503    magn:    0.0125    constr:    0.0000
     atom:   84    charge:    2.4489    magn:    0.0132    constr:    0.0000
     atom:   85    charge:    2.4493    magn:    0.0135    constr:    0.0000
     atom:   86    charge:    2.4486    magn:    0.0146    constr:    0.0000
     atom:   87    charge:    2.4516    magn:    0.0140    constr:    0.0000
     atom:   88    charge:    2.4515    magn:    0.0156    constr:    0.0000
     atom:   89    charge:    7.4423    magn:    1.0973    constr:    0.0000
     atom:   90    charge:    7.4377    magn:    1.0995    constr:    0.0000
     atom:   91    charge:    7.4388    magn:    1.1009    constr:    0.0000
     atom:   92    charge:    7.4401    magn:    1.0964    constr:    0.0000
     atom:   93    charge:    3.2600    magn:    0.0508    constr:    0.0000
     atom:   94    charge:    3.2590    magn:    0.0531    constr:    0.0000
     atom:   95    charge:    3.2613    magn:    0.0511    constr:    0.0000
     atom:   96    charge:    3.2586    magn:    0.0508    constr:    0.0000
     atom:   97    charge:    3.2571    magn:    0.0526    constr:    0.0000
     atom:   98    charge:    3.2587    magn:    0.0530    constr:    0.0000
     atom:   99    charge:    3.2600    magn:    0.0523    constr:    0.0000
     atom:  100    charge:    3.2610    magn:    0.0488    constr:    0.0000
     atom:  101    charge:    3.2638    magn:    0.0500    constr:    0.0000
     atom:  102    charge:    3.2589    magn:    0.0529    constr:    0.0000
     atom:  103    charge:    3.2608    magn:    0.0520    constr:    0.0000
     atom:  104    charge:    3.2623    magn:    0.0503    constr:    0.0000
     atom:  105    charge:    3.2612    magn:    0.0491    constr:    0.0000
     atom:  106    charge:    3.2596    magn:    0.0513    constr:    0.0000
     atom:  107    charge:    3.2607    magn:    0.0501    constr:    0.0000
     atom:  108    charge:    3.2566    magn:    0.0528    constr:    0.0000

     total cpu time spent up to now is     1498.0 secs

     End of self-consistent calculation

 ------ SPIN UP ------------


          k = 0.0000 0.0000 0.0000 ( 91663 PWs)   bands (ev):

   -21.1735 -21.1533 -21.1322 -21.1210 -21.0021 -20.9963 -20.9911 -20.9867
   -18.5021 -18.3978 -18.1910 -18.1613 -18.1275 -18.1005 -18.0841 -18.0803
   -18.0549 -18.0400 -17.9687 -17.9505 -17.8674 -17.8555 -17.8516 -17.8251
   -16.6152 -16.5972 -15.2754 -15.2360 -15.2182 -15.1825 -15.1695 -15.1331
   -14.2492 -14.2241 -14.0528 -14.0164 -13.8922 -13.8737 -13.8586 -13.8171
   -13.2606 -13.2306 -12.7281 -12.6891 -12.5756 -12.5589 -12.4811 -12.4426
   -10.8447 -10.7974 -10.4715 -10.4356 -10.4272 -10.3693 -10.3558 -10.3388
    -9.9981  -9.9429  -9.6279  -9.6131  -9.5683  -9.5569  -9.5199  -9.4757
    -8.6924  -8.6237  -8.0404  -7.9719  -7.8609  -7.8514  -7.7526  -7.7109
    -6.9904  -6.8818  -6.7828  -6.6799  -6.6396  -6.5862  -6.5512  -6.4834
    -6.4602  -6.4234  -6.4145  -6.3419  -6.3274  -6.2761  -6.1774  -6.1447
    -6.0668  -6.0148  -5.6892  -5.6177  -5.5906  -5.5635  -5.5272  -5.4661
    -5.4535  -5.4246  -5.3589  -5.3531  -5.2950  -5.2766  -5.2517  -5.2110
    -5.1930  -5.1749  -5.1110  -5.1047  -5.0526  -5.0200  -4.9999  -4.9780
    -4.9456  -4.9159  -4.8836  -4.8601  -4.7995  -4.7772  -4.7606  -4.7334
    -4.7098  -4.6662  -4.6006  -4.5732  -4.4299  -4.3645  -4.3481  -4.3160
    -4.2422  -4.1835  -4.1167  -4.0682  -3.9715  -3.9419  -3.7933  -3.6845
    -3.6397  -3.5668  -3.4158  -3.3482  -3.3137  -3.2491  -3.2184  -3.1245
    -3.0769  -3.0294  -2.9330  -2.9182  -2.8773  -2.8565  -2.6918  -2.6571
    -2.6187  -2.6028  -2.4966  -2.4762  -2.4085  -2.3808  -2.3106  -2.2819
    -2.2582  -2.2063  -2.1989  -2.1617  -2.0975  -1.9920  -1.9857  -1.9438
    -1.8601  -1.8471  -1.8402  -1.8163  -1.7475  -1.6531  -1.6418  -1.6224
    -1.5283  -1.4966  -1.4869  -1.4564  -1.3743  -1.3342  -1.2919  -1.2649
    -1.1872  -1.1705  -1.1270  -1.0971  -1.0409  -0.9853  -0.9798  -0.9515
    -0.9389  -0.9135  -0.8818  -0.8277  -0.7971  -0.7769  -0.7633  -0.7282
    -0.7241  -0.7047  -0.6832  -0.6506  -0.5398  -0.5115  -0.3987  -0.3561
    -0.3046  -0.2194  -0.1074  -0.0492  -0.0182   0.0718   0.0902   0.1609
     0.4499   0.5011   0.5220   0.6452   1.2123   1.2489   1.3217   1.3626
     1.5128   1.5451   1.5859   1.6152   2.9545   3.0041   3.1643   3.2004
     3.2434   3.2713   3.3243   3.3743   3.6602   3.7428   4.2000   4.3595
     4.3995   4.4136   4.4315   4.4577   4.5049   4.6105   4.6963   4.7430
     4.7755   4.8159   5.0938   5.3609   5.4759   5.6060   5.7398   5.7780
     5.8404   5.8634   5.9133   5.9792   5.9911   6.0303   6.3336   6.4386
     6.5387   6.5599   6.6158   6.7871   6.9456   6.9685   7.2321   7.3821
     7.4067   7.4602

 ------ SPIN DOWN ----------


          k = 0.0000 0.0000 0.0000 ( 91663 PWs)   bands (ev):

   -21.0805 -21.0599 -21.0377 -21.0249 -20.9079 -20.9010 -20.8959 -20.8901
   -18.4564 -18.3525 -18.0763 -18.0458 -18.0097 -17.9807 -17.9667 -17.9612
   -17.9415 -17.9242 -17.9215 -17.9070 -17.8325 -17.8194 -17.8172 -17.7917
   -16.5517 -16.5341 -15.2166 -15.1782 -15.1605 -15.1261 -15.1138 -15.0771
   -14.2114 -14.1867 -14.0068 -13.9712 -13.8482 -13.8307 -13.8136 -13.7718
   -13.2173 -13.1872 -12.6867 -12.6475 -12.5330 -12.5162 -12.4374 -12.3988
   -10.8047 -10.7575 -10.4317 -10.3957 -10.3873 -10.3296 -10.3147 -10.3008
    -9.9586  -9.9043  -9.5950  -9.5799  -9.5362  -9.5254  -9.4908  -9.4464
    -8.6557  -8.5874  -8.0085  -7.9404  -7.8305  -7.8203  -7.7182  -7.6783
    -6.9358  -6.8407  -6.7443  -6.6225  -6.5774  -6.5361  -6.5020  -6.4353
    -6.4037  -6.3739  -6.3593  -6.3068  -6.2695  -6.2199  -6.1142  -6.0775
    -6.0106  -5.9622  -5.6239  -5.5498  -5.4881  -5.4614  -5.4269  -5.3981
    -5.3716  -5.3466  -5.2591  -5.2494  -5.2199  -5.1876  -5.1763  -5.1263
    -5.1157  -5.0812  -5.0288  -5.0248  -4.9882  -4.9438  -4.9255  -4.8943
    -4.8612  -4.8327  -4.7910  -4.7691  -4.7100  -4.6888  -4.6836  -4.6753
    -4.6542  -4.5966  -4.5274  -4.4966  -4.3618  -4.3003  -4.2910  -4.2710
    -4.1750  -4.1464  -4.0408  -4.0161  -3.8996  -3.8648  -3.7287  -3.6109
    -3.5733  -3.5065  -3.3006  -3.2638  -3.2397  -3.0358  -3.0073  -2.9835
    -2.9629  -2.8504  -2.8452  -2.8190  -2.7726  -2.6840  -2.4295  -2.4167
    -2.3569  -2.3205  -2.2986  -2.2389  -2.2268  -2.2133  -2.1679  -2.1067
    -2.0631  -2.0568  -2.0104  -1.9798  -1.8748  -1.8070  -1.7739  -1.7167
    -1.6716  -1.5716  -1.5298  -1.5015  -1.4573  -1.4414  -1.4008  -1.3664
    -1.3339  -1.2323  -1.1984  -1.1246  -1.0879  -1.0739  -1.0661  -1.0513
    -0.9368  -0.9101  -0.8639  -0.8307  -0.8205  -0.8141  -0.7534  -0.6420
    -0.6344  -0.5679  -0.4720  -0.3664  -0.2731  -0.2585  -0.2101  -0.1739
    -0.1102  -0.0795   0.0060   0.0731   0.0927   0.1356   0.1710   0.2215
     0.2322   0.2633   0.2743   0.3065   0.3326   0.4118   0.4507   0.4642
     0.6025   0.6593   0.6814   0.7898   1.9588   1.9972   2.0316   2.0882
     2.1898   2.2470   2.2647   2.2924   3.0643   3.1223   3.2594   3.3058
     3.3448   3.3687   3.4270   3.4808   3.7482   3.8291   4.2729   4.4334
     4.4620   4.4816   4.5003   4.5391   4.5831   4.6874   4.7533   4.7928
     4.8263   4.8654   5.1425   5.4333   5.5463   5.6669   5.7965   5.8435
     5.9096   5.9254   5.9777   6.0471   6.0657   6.0970   6.3847   6.4953
     6.5854   6.6105   6.6578   6.8327   6.9975   7.0092   7.2783   7.4259
     7.4492   7.5024

     the spin up/dw Fermi energies are     1.7940    1.4614 ev

!    total energy              =   -1890.74201464 Ry
     Harris-Foulkes estimate   =   -1890.74201470 Ry
     estimated scf accuracy    <       0.00000062 Ry

     The total energy is the sum of the following terms:

     one-electron contribution =   -2375.79337879 Ry
     hartree contribution      =    1363.87898864 Ry
     xc contribution           =    -598.64562606 Ry
     ewald contribution        =    -282.31134805 Ry
     Dispersion Correction     =      -0.56289775 Ry
     smearing contrib. (-TS)   =       2.69224736 Ry

     total magnetization       =     8.00 Bohr mag/cell
     absolute magnetization    =     8.15 Bohr mag/cell

     convergence has been achieved in  22 iterations

     Forces acting on atoms (cartesian axes, Ry/au):

     atom    1 type  1   force =    -0.02097141    0.03275178   -0.03568960
     atom    2 type  1   force =    -0.06086694   -0.01781817   -0.00198273
     atom    3 type  1   force =     0.05787320   -0.00857640    0.00085481
     atom    4 type  1   force =     0.05742539    0.01428402   -0.00753424
     atom    5 type  1   force =    -0.06214884    0.02583246   -0.00868139
     atom    6 type  1   force =    -0.00421090    0.19070560    0.24749118
     atom    7 type  1   force =    -0.01393117    0.16896765    0.25378464
     atom    8 type  1   force =     0.01424270    0.02522877   -0.03976312
     atom    9 type  2   force =     0.00496842   -0.00892722    0.00691167
     atom   10 type  2   force =     0.00026465    0.01230085    0.01733208
     atom   11 type  2   force =     0.01847258    0.02036457   -0.01639248
     atom   12 type  2   force =     0.01688063   -0.02879828   -0.02163724
     atom   13 type  2   force =     0.01645979   -0.00638775   -0.07032758
     atom   14 type  2   force =     0.01024920    0.00994900    0.01471552
     atom   15 type  2   force =    -0.00055787    0.01244303    0.01805320
     atom   16 type  2   force =    -0.00846539   -0.00930522    0.00807039
     atom   17 type  2   force =    -0.00392626   -0.00879992   -0.00492315
     atom   18 type  2   force =    -0.00993395   -0.00212048   -0.00554062
     atom   19 type  2   force =     0.01311631   -0.00067079   -0.00384309
     atom   20 type  2   force =     0.00384681   -0.00840898   -0.00501982
     atom   21 type  2   force =    -0.02797921   -0.09491282   -0.10001831
     atom   22 type  2   force =     0.00739219    0.00446766    0.00966294
     atom   23 type  2   force =    -0.00780407    0.00377691    0.00866631
     atom   24 type  2   force =    -0.00718482   -0.00410830    0.00849985
     atom   25 type  2   force =    -0.01227799    0.00819421    0.01335944
     atom   26 type  2   force =    -0.01388073   -0.00741583    0.01431776
     atom   27 type  2   force =    -0.01522298   -0.02850764   -0.02117791
     atom   28 type  2   force =    -0.01203236    0.02537675   -0.02052311
     atom   29 type  2   force =     0.00079681    0.00540364    0.00360741
     atom   30 type  2   force =    -0.01291499    0.00267334    0.00392319
     atom   31 type  2   force =     0.01706203    0.00251132   -0.00313310
     atom   32 type  2   force =     0.00615809    0.00340283   -0.00533256
     atom   33 type  2   force =     0.00834718   -0.00877758    0.00755874
     atom   34 type  2   force =     0.01630512    0.02093382    0.02807608
     atom   35 type  2   force =     0.01317947    0.02540198   -0.02052030
     atom   36 type  2   force =     0.00221513   -0.02175142   -0.02361410
     atom   37 type  2   force =     0.01096082   -0.01073260    0.01660904
     atom   38 type  2   force =    -0.01459815    0.01654328    0.00506823
     atom   39 type  2   force =    -0.01353437    0.02328883    0.02492545
     atom   40 type  2   force =    -0.00535196   -0.00970795    0.00797414
     atom   41 type  2   force =     0.00261620    0.00997656    0.00203469
     atom   42 type  2   force =    -0.01073455    0.00065126   -0.00280399
     atom   43 type  2   force =     0.01065870   -0.00239814   -0.00741101
     atom   44 type  2   force =    -0.00408682    0.01089004   -0.00036058
     atom   45 type  2   force =     0.00558979   -0.00454812    0.00856245
     atom   46 type  2   force =     0.00499289   -0.00694808   -0.00480743
     atom   47 type  2   force =    -0.00539697   -0.00828566   -0.00553918
     atom   48 type  2   force =     0.03542307   -0.08201870   -0.10455878
     atom   49 type  2   force =     0.01390069    0.01591020    0.00475233
     atom   50 type  2   force =    -0.00835944   -0.00592844   -0.06417896
     atom   51 type  2   force =    -0.00185667   -0.02147622   -0.02312284
     atom   52 type  2   force =    -0.01744220    0.01992067   -0.01655087
     atom   53 type  2   force =    -0.00796302    0.00465836   -0.00675609
     atom   54 type  2   force =     0.01782352   -0.00438096    0.01268220
     atom   55 type  2   force =    -0.01260528   -0.00437049    0.00578111
     atom   56 type  2   force =     0.00141240    0.00517784   -0.00053003
     atom   57 type  3   force =     0.00178739    0.00491003   -0.00040342
     atom   58 type  3   force =    -0.00253309   -0.00442958   -0.00006233
     atom   59 type  3   force =    -0.00210409    0.00469103   -0.00084254
     atom   60 type  3   force =    -0.00038136    0.00022256    0.00182310
     atom   61 type  3   force =    -0.00806717   -0.01101341   -0.00441560
     atom   62 type  3   force =     0.01016402   -0.01392835   -0.00746877
     atom   63 type  3   force =     0.00648698    0.01068538   -0.00721387
     atom   64 type  3   force =     0.02053948   -0.09577184   -0.05685032
     atom   65 type  3   force =    -0.00004975   -0.00016419    0.00075889
     atom   66 type  3   force =    -0.00029696    0.00016261    0.00118342
     atom   67 type  3   force =    -0.00093277   -0.00000066    0.00119653
     atom   68 type  3   force =    -0.00158399   -0.00404575   -0.00469112
     atom   69 type  3   force =     0.00206782    0.00424190   -0.00317145
     atom   70 type  3   force =     0.00222189   -0.00428651   -0.00032573
     atom   71 type  3   force =     0.00114150   -0.00408706   -0.00417264
     atom   72 type  3   force =    -0.00206230    0.00407603   -0.00384427
     atom   73 type  3   force =    -0.00475435    0.00821286   -0.00450834
     atom   74 type  3   force =    -0.00782814   -0.01013884   -0.00530429
     atom   75 type  3   force =     0.00979469   -0.01304523   -0.00860115
     atom   76 type  3   force =    -0.00006196   -0.00048203    0.00114401
     atom   77 type  3   force =     0.00007560   -0.00057158    0.00163561
     atom   78 type  3   force =    -0.00216752   -0.00024594   -0.00053219
     atom   79 type  3   force =     0.00191452    0.00022460    0.00007248
     atom   80 type  3   force =    -0.01498863   -0.09232788   -0.05847237
     atom   81 type  4   force =    -0.01668693   -0.01597174    0.00558392
     atom   82 type  4   force =     0.00100352    0.00214054   -0.00075255
     atom   83 type  4   force =    -0.00293276    0.00203456   -0.00210081
     atom   84 type  4   force =    -0.00315594   -0.00577062    0.00208446
     atom   85 type  4   force =     0.00406914   -0.00686951    0.00513181
     atom   86 type  4   force =     0.00399255    0.00774630    0.00414391
     atom   87 type  4   force =    -0.00445617    0.00680816    0.00125110
     atom   88 type  4   force =     0.01232368   -0.01163651    0.00446327
     atom   89 type  5   force =     0.00852533   -0.00957506   -0.00166195
     atom   90 type  5   force =    -0.00040360    0.00418261    0.00345185
     atom   91 type  5   force =     0.01408308   -0.00103636    0.00260926
     atom   92 type  5   force =     0.00387071   -0.00604232    0.00113769
     atom   93 type  6   force =     0.00169962   -0.00239140    0.00612824
     atom   94 type  6   force =     0.00384741   -0.00103880    0.00261900
     atom   95 type  6   force =    -0.00708573    0.00444904    0.00435877
     atom   96 type  6   force =    -0.00550842   -0.00656213    0.00519037
     atom   97 type  6   force =     0.00050696    0.00382712    0.00066628
     atom   98 type  6   force =    -0.00633774   -0.00025851    0.00097346
     atom   99 type  6   force =     0.00516676   -0.00088928    0.00050872
     atom  100 type  6   force =     0.00353682   -0.00793404    0.00405073
     atom  101 type  6   force =     0.00869900   -0.01037797    0.00067402
     atom  102 type  6   force =     0.00565587    0.00195334    0.00488076
     atom  103 type  6   force =    -0.00278770   -0.00188345    0.00270051
     atom  104 type  6   force =    -0.01352770   -0.01552385    0.00056073
     atom  105 type  6   force =    -0.00747506   -0.00821928    0.00222556
     atom  106 type  6   force =    -0.00441552   -0.00235501    0.00071143
     atom  107 type  6   force =     0.00115251   -0.00302316   -0.00038722
     atom  108 type  6   force =    -0.00413596    0.00542410    0.00086238

     Total force =     0.556511     Total SCF correction =     0.001567

     BFGS Geometry Optimization

     number of scf cycles    =   1
     number of bfgs steps    =   0

     energy   new            =   -1890.7420146409 Ry

     new trust radius        =       0.3124711854 bohr
     new conv_thr            =       0.0000010000 Ry


ATOMIC_POSITIONS (crystal)
Br            0.5936581364        0.0176679291        0.6945178054
Br            0.3422205434        0.9796770920        0.1945948794
Br            0.9096137184        0.4734976034        0.6947310272
Br            0.1599729056        0.5252315724        0.1964449488
Br            0.0919410207        0.0173755527        0.6959088648
Br            0.4434368030        0.9949532795        0.8951860445
Br            0.8003893868        0.4923227408        0.4024601895
Br            0.6581154107        0.5256940434        0.1947849986
C             0.2884287183        0.9696727798        0.5223399858
C             0.0384064452        0.0316257732        0.0232006896
C             0.3914003057        0.0126305063        0.5456477048
C             0.1409380258        0.9865271266        0.0450315728
C             0.4525455774        0.9699320851        0.6467487750
C             0.2029674909        0.0287733957        0.1506509238
C             0.2081743158        0.5302297811        0.5273138310
C             0.4581943501        0.4710158071        0.0283196657
C             0.2449662446        0.6129591585        0.6061814327
C             0.4963934494        0.3885873990        0.1083316303
C             0.2500274170        0.8891776558        0.6030050616
C             0.0012270733        0.1118766779        0.1039884539
C             0.4066993007        0.8853724515        0.7224005525
C             0.1602568599        0.1097357813        0.2283096901
C             0.0885398924        0.6091425935        0.7277983588
C             0.3405939404        0.3914594035        0.2298317852
C             0.0464179768        0.5254252471        0.6520000787
C             0.2970840548        0.4743976436        0.1534914371
C             0.1074999848        0.4830654076        0.5490252310
C             0.3573036105        0.5167282965        0.0495809561
C             0.4333470985        0.0995473314        0.4668067998
C             0.1809741766        0.8998329622        0.9658740640
C             0.0680970465        0.3945801162        0.4705146295
C             0.3162985822        0.6043157867        0.9688323462
C             0.7885722979        0.9696791025        0.5223733132
C             0.5390952720        0.0319905603        0.0237540598
C             0.8911724571        0.0128433624        0.5454351010
C             0.6403155990        0.9868248921        0.0449297545
C             0.9523943780        0.9697484931        0.6512264493
C             0.7019070269        0.0290520374        0.1501540394
C             0.7076326541        0.5306880713        0.5276677863
C             0.9583270053        0.4709987899        0.0283147086
C             0.7452496123        0.6137525602        0.6065397967
C             0.9963621369        0.3887045188        0.1084725806
C             0.7499200786        0.8891046665        0.6028212955
C             0.5008957273        0.1126921596        0.1042284285
C             0.9082215593        0.8891908187        0.7279930095
C             0.6601407691        0.1092534082        0.2275643929
C             0.5886284338        0.6086328890        0.7270667045
C             0.8422909259        0.3881672936        0.2240086953
C             0.5475176655        0.5257512868        0.6515567689
C             0.7972441099        0.4744604932        0.1494484597
C             0.6080637603        0.4833625209        0.5489250569
C             0.8570784153        0.5164977494        0.0497855467
C             0.9329667103        0.0995158395        0.4662730271
C             0.6822830938        0.8995348822        0.9663251972
C             0.5668490236        0.3942893245        0.4709737564
C             0.8161022692        0.6043907899        0.9690797005
H             0.2371992558        0.9997824737        0.4430922216
H             0.2585927532        0.5007078277        0.4492787894
H             0.0085511753        0.5005952200        0.9505046050
H             0.3226265715        0.6505154041        0.5927288989
H             0.0746224967        0.3523856275        0.0948005744
H             0.1705770918        0.8545344567        0.5881753205
H             0.4225897359        0.1481835117        0.0895144493
H             0.4541858435        0.8511261537        0.8058329217
H             0.2062376062        0.1430960622        0.3088360868
H             0.0437175433        0.6429508709        0.8066689523
H             0.2963396511        0.3575259723        0.3091126271
H             0.4686005758        0.4930600467        0.6732603836
H             0.7372085274        0.9997542420        0.4429496544
H             0.9866317144        0.0025108732        0.9434822233
H             0.7823843916        0.9984923008        0.1723870881
H             0.5085501299        0.5005692328        0.9503500005
H             0.8224355926        0.6508530351        0.5924027976
H             0.5746317787        0.3524225825        0.0947548022
H             0.6705604022        0.8545717729        0.5881169973
H             0.9223204506        0.1477116318        0.0899449221
H             0.9533747323        0.8551488479        0.8088452422
H             0.7061477819        0.1430926077        0.3087695897
H             0.5438100811        0.6429534905        0.8066117333
H             0.7956889432        0.3536246786        0.3060393780
N             0.3077361229        0.8505781130        0.7051156002
N             0.0607707588        0.1489474488        0.2060132398
N             0.1864159302        0.6503959703        0.7057297976
N             0.4386784095        0.3506841619        0.2081483603
N             0.8086139967        0.8509627282        0.7050923141
N             0.5609018301        0.1491843203        0.2062654321
N             0.6863556088        0.6505976794        0.7059024381
N             0.9393356630        0.3504362986        0.2082708810
Ni            0.2473611934        0.7510814049        0.8362404012
Ni            0.4999581570        0.2481757366        0.3393557878
Ni            0.7476003745        0.7514422087        0.8364603900
Ni            1.0001368562        0.2477436812        0.3392365965
O             0.1228556643        0.3475879513        0.3831886351
O             0.3713732591        0.6509331053        0.8814268917
O             0.3773342515        0.1476949947        0.3774024985
O             0.1248697752        0.8520747166        0.8765283304
O             0.4730910768        0.3563217153        0.4830283168
O             0.2208697297        0.6414040767        0.9799271383
O             0.0290591096        0.1351204236        0.4811042017
O             0.2768394582        0.8624227465        0.9796076331
O             0.6231477319        0.3472504782        0.3829077153
O             0.8714519044        0.6510595384        0.8815433839
O             0.8775145694        0.1474274146        0.3773170901
O             0.6245260980        0.8516960385        0.8762898805
O             0.9727547774        0.3558126937        0.4831086278
O             0.7209508231        0.6413154891        0.9799136421
O             0.5288884059        0.1350302560        0.4810580561
O             0.7765117943        0.8629871959        0.9794434170



     Writing output data file ./QE_relaxation_results/pbesol_relax/NiPyC2_relax_sc211_meta_functionalized_Br_pbesol_relax.save/
     NEW-OLD atomic charge density approx. for the potential

     Check: negative core charge=   -0.000141

     total cpu time spent up to now is     1526.4 secs

     Self-consistent Calculation

     iteration #  1     ecut=   100.00 Ry     beta= 0.70
     Davidson diagonalization with overlap
     ethr =  1.00E-06,  avg # of iterations = 15.5

     total cpu time spent up to now is     1789.5 secs

     total energy              =   -1890.94533014 Ry
     Harris-Foulkes estimate   =   -1890.95201625 Ry
     estimated scf accuracy    <       0.02392777 Ry

     total magnetization       =     8.00 Bohr mag/cell
     absolute magnetization    =     8.16 Bohr mag/cell

     iteration #  2     ecut=   100.00 Ry     beta= 0.70
     Davidson diagonalization with overlap
     ethr =  5.34E-06,  avg # of iterations =  2.0

     total cpu time spent up to now is     1849.8 secs

     total energy              =   -1890.94461283 Ry
     Harris-Foulkes estimate   =   -1890.94774325 Ry
     estimated scf accuracy    <       0.01474264 Ry

     total magnetization       =     8.00 Bohr mag/cell
     absolute magnetization    =     8.16 Bohr mag/cell

     iteration #  3     ecut=   100.00 Ry     beta= 0.70
     Davidson diagonalization with overlap
     ethr =  3.29E-06,  avg # of iterations =  2.0

     total cpu time spent up to now is     1910.7 secs

     total energy              =   -1890.94465248 Ry
     Harris-Foulkes estimate   =   -1890.94832082 Ry
     estimated scf accuracy    <       0.03315468 Ry

     total magnetization       =     8.00 Bohr mag/cell
     absolute magnetization    =     8.16 Bohr mag/cell

     iteration #  4     ecut=   100.00 Ry     beta= 0.70
     Davidson diagonalization with overlap
     ethr =  3.29E-06,  avg # of iterations =  1.5

     total cpu time spent up to now is     1969.7 secs

     total energy              =   -1890.94622256 Ry
     Harris-Foulkes estimate   =   -1890.94674759 Ry
     estimated scf accuracy    <       0.00548392 Ry

     total magnetization       =     8.00 Bohr mag/cell
     absolute magnetization    =     8.16 Bohr mag/cell

     iteration #  5     ecut=   100.00 Ry     beta= 0.70
     Davidson diagonalization with overlap
     ethr =  1.22E-06,  avg # of iterations =  1.0

     total cpu time spent up to now is     2028.7 secs

     total energy              =   -1890.94642500 Ry
     Harris-Foulkes estimate   =   -1890.94663666 Ry
     estimated scf accuracy    <       0.00218465 Ry

     total magnetization       =     8.00 Bohr mag/cell
     absolute magnetization    =     8.16 Bohr mag/cell

     iteration #  6     ecut=   100.00 Ry     beta= 0.70
     Davidson diagonalization with overlap
     ethr =  4.88E-07,  avg # of iterations =  1.0

     total cpu time spent up to now is     2087.5 secs

     total energy              =   -1890.94649832 Ry
     Harris-Foulkes estimate   =   -1890.94652672 Ry
     estimated scf accuracy    <       0.00013611 Ry

     total magnetization       =     8.00 Bohr mag/cell
     absolute magnetization    =     8.16 Bohr mag/cell

     iteration #  7     ecut=   100.00 Ry     beta= 0.70
     Davidson diagonalization with overlap
     ethr =  3.04E-08,  avg # of iterations =  4.0

     total cpu time spent up to now is     2159.3 secs

     total energy              =   -1890.94650478 Ry
     Harris-Foulkes estimate   =   -1890.94651294 Ry
     estimated scf accuracy    <       0.00005257 Ry

     total magnetization       =     8.00 Bohr mag/cell
     absolute magnetization    =     8.16 Bohr mag/cell

     iteration #  8     ecut=   100.00 Ry     beta= 0.70
     Davidson diagonalization with overlap
     ethr =  1.17E-08,  avg # of iterations =  1.0

     total cpu time spent up to now is     2218.4 secs

     total energy              =   -1890.94650251 Ry
     Harris-Foulkes estimate   =   -1890.94651251 Ry
     estimated scf accuracy    <       0.00011315 Ry

     total magnetization       =     8.00 Bohr mag/cell
     absolute magnetization    =     8.16 Bohr mag/cell

     iteration #  9     ecut=   100.00 Ry     beta= 0.70
     Davidson diagonalization with overlap
     ethr =  1.17E-08,  avg # of iterations =  1.0

     total cpu time spent up to now is     2277.4 secs

     total energy              =   -1890.94650691 Ry
     Harris-Foulkes estimate   =   -1890.94650935 Ry
     estimated scf accuracy    <       0.00002928 Ry

     total magnetization       =     8.00 Bohr mag/cell
     absolute magnetization    =     8.16 Bohr mag/cell

     iteration # 10     ecut=   100.00 Ry     beta= 0.70
     Davidson diagonalization with overlap
     ethr =  6.54E-09,  avg # of iterations =  2.0

     total cpu time spent up to now is     2337.4 secs

     total energy              =   -1890.94650806 Ry
     Harris-Foulkes estimate   =   -1890.94650816 Ry
     estimated scf accuracy    <       0.00000414 Ry

     total magnetization       =     8.00 Bohr mag/cell
     absolute magnetization    =     8.16 Bohr mag/cell

     iteration # 11     ecut=   100.00 Ry     beta= 0.70
     Davidson diagonalization with overlap
     ethr =  9.25E-10,  avg # of iterations =  4.0

     total cpu time spent up to now is     2403.2 secs

     total energy              =   -1890.94650828 Ry
     Harris-Foulkes estimate   =   -1890.94650829 Ry
     estimated scf accuracy    <       0.00000161 Ry

     total magnetization       =     8.00 Bohr mag/cell
     absolute magnetization    =     8.16 Bohr mag/cell

     iteration # 12     ecut=   100.00 Ry     beta= 0.70
     Davidson diagonalization with overlap
     ethr =  3.60E-10,  avg # of iterations =  3.0

     total cpu time spent up to now is     2466.4 secs

     total energy              =   -1890.94650822 Ry
     Harris-Foulkes estimate   =   -1890.94650848 Ry
     estimated scf accuracy    <       0.00000315 Ry

     total magnetization       =     8.00 Bohr mag/cell
     absolute magnetization    =     8.16 Bohr mag/cell

     iteration # 13     ecut=   100.00 Ry     beta= 0.70
     Davidson diagonalization with overlap
     ethr =  3.60E-10,  avg # of iterations =  1.0

     total cpu time spent up to now is     2525.6 secs

     total energy              =   -1890.94650835 Ry
     Harris-Foulkes estimate   =   -1890.94650842 Ry
     estimated scf accuracy    <       0.00000111 Ry

     total magnetization       =     8.00 Bohr mag/cell
     absolute magnetization    =     8.16 Bohr mag/cell

     iteration # 14     ecut=   100.00 Ry     beta= 0.70
     Davidson diagonalization with overlap
     ethr =  2.47E-10,  avg # of iterations =  2.5
 
     Magnetic moment per site:
     atom:    1    charge:    2.3164    magn:    0.0320    constr:    0.0000
     atom:    2    charge:    2.3167    magn:    0.0326    constr:    0.0000
     atom:    3    charge:    2.3179    magn:    0.0325    constr:    0.0000
     atom:    4    charge:    2.3157    magn:    0.0326    constr:    0.0000
     atom:    5    charge:    2.3156    magn:    0.0328    constr:    0.0000
     atom:    6    charge:    2.2740    magn:    0.0314    constr:    0.0000
     atom:    7    charge:    2.2764    magn:    0.0315    constr:    0.0000
     atom:    8    charge:    2.3156    magn:    0.0311    constr:    0.0000
     atom:    9    charge:    0.8439    magn:    0.0059    constr:    0.0000
     atom:   10    charge:    0.8438    magn:    0.0050    constr:    0.0000
     atom:   11    charge:    0.8529    magn:    0.0032    constr:    0.0000
     atom:   12    charge:    0.8443    magn:    0.0049    constr:    0.0000
     atom:   13    charge:    0.8156    magn:    0.0072    constr:    0.0000
     atom:   14    charge:    0.8183    magn:    0.0043    constr:    0.0000
     atom:   15    charge:    0.8451    magn:    0.0049    constr:    0.0000
     atom:   16    charge:    0.8444    magn:    0.0051    constr:    0.0000
     atom:   17    charge:    0.8402    magn:    0.0048    constr:    0.0000
     atom:   18    charge:    0.8380    magn:    0.0048    constr:    0.0000
     atom:   19    charge:    0.8398    magn:    0.0049    constr:    0.0000
     atom:   20    charge:    0.8397    magn:    0.0048    constr:    0.0000
     atom:   21    charge:    0.8344    magn:    0.0065    constr:    0.0000
     atom:   22    charge:    0.8412    magn:    0.0056    constr:    0.0000
     atom:   23    charge:    0.8412    magn:    0.0056    constr:    0.0000
     atom:   24    charge:    0.8407    magn:    0.0055    constr:    0.0000
     atom:   25    charge:    0.8176    magn:    0.0041    constr:    0.0000
     atom:   26    charge:    0.8171    magn:    0.0042    constr:    0.0000
     atom:   27    charge:    0.8465    magn:    0.0050    constr:    0.0000
     atom:   28    charge:    0.8442    magn:    0.0050    constr:    0.0000
     atom:   29    charge:    0.8254    magn:   -0.0008    constr:    0.0000
     atom:   30    charge:    0.8255    magn:   -0.0006    constr:    0.0000
     atom:   31    charge:    0.8252    magn:   -0.0008    constr:    0.0000
     atom:   32    charge:    0.8260    magn:   -0.0015    constr:    0.0000
     atom:   33    charge:    0.8442    magn:    0.0052    constr:    0.0000
     atom:   34    charge:    0.8326    magn:    0.0059    constr:    0.0000
     atom:   35    charge:    0.8444    magn:    0.0049    constr:    0.0000
     atom:   36    charge:    0.8476    magn:    0.0045    constr:    0.0000
     atom:   37    charge:    0.8173    magn:    0.0043    constr:    0.0000
     atom:   38    charge:    0.8449    magn:    0.0053    constr:    0.0000
     atom:   39    charge:    0.8348    magn:    0.0056    constr:    0.0000
     atom:   40    charge:    0.8444    magn:    0.0057    constr:    0.0000
     atom:   41    charge:    0.8421    magn:    0.0063    constr:    0.0000
     atom:   42    charge:    0.8392    magn:    0.0050    constr:    0.0000
     atom:   43    charge:    0.8383    magn:    0.0048    constr:    0.0000
     atom:   44    charge:    0.8413    magn:    0.0063    constr:    0.0000
     atom:   45    charge:    0.8422    magn:    0.0054    constr:    0.0000
     atom:   46    charge:    0.8423    magn:    0.0045    constr:    0.0000
     atom:   47    charge:    0.8423    magn:    0.0045    constr:    0.0000
     atom:   48    charge:    0.8364    magn:    0.0066    constr:    0.0000
     atom:   49    charge:    0.8442    magn:    0.0051    constr:    0.0000
     atom:   50    charge:    0.8163    magn:    0.0069    constr:    0.0000
     atom:   51    charge:    0.8493    magn:    0.0046    constr:    0.0000
     atom:   52    charge:    0.8521    magn:    0.0035    constr:    0.0000
     atom:   53    charge:    0.8251    magn:   -0.0014    constr:    0.0000
     atom:   54    charge:    0.8245    magn:   -0.0011    constr:    0.0000
     atom:   55    charge:    0.8246    magn:   -0.0012    constr:    0.0000
     atom:   56    charge:    0.8263    magn:   -0.0011    constr:    0.0000
     atom:   57    charge:    0.4813    magn:   -0.0012    constr:    0.0000
     atom:   58    charge:    0.4802    magn:   -0.0011    constr:    0.0000
     atom:   59    charge:    0.4811    magn:   -0.0011    constr:    0.0000
     atom:   60    charge:    0.4885    magn:   -0.0011    constr:    0.0000
     atom:   61    charge:    0.4874    magn:   -0.0006    constr:    0.0000
     atom:   62    charge:    0.4867    magn:   -0.0004    constr:    0.0000
     atom:   63    charge:    0.4914    magn:   -0.0004    constr:    0.0000
     atom:   64    charge:    0.4639    magn:    0.0013    constr:    0.0000
     atom:   65    charge:    0.4890    magn:   -0.0009    constr:    0.0000
     atom:   66    charge:    0.4886    magn:   -0.0010    constr:    0.0000
     atom:   67    charge:    0.4884    magn:   -0.0010    constr:    0.0000
     atom:   68    charge:    0.4801    magn:   -0.0013    constr:    0.0000
     atom:   69    charge:    0.4811    magn:   -0.0012    constr:    0.0000
     atom:   70    charge:    0.4806    magn:   -0.0011    constr:    0.0000
     atom:   71    charge:    0.4801    magn:   -0.0013    constr:    0.0000
     atom:   72    charge:    0.4810    magn:   -0.0012    constr:    0.0000
     atom:   73    charge:    0.4903    magn:   -0.0006    constr:    0.0000
     atom:   74    charge:    0.4882    magn:   -0.0006    constr:    0.0000
     atom:   75    charge:    0.4880    magn:   -0.0004    constr:    0.0000
     atom:   76    charge:    0.4891    magn:   -0.0011    constr:    0.0000
     atom:   77    charge:    0.4887    magn:   -0.0009    constr:    0.0000
     atom:   78    charge:    0.4856    magn:   -0.0008    constr:    0.0000
     atom:   79    charge:    0.4853    magn:   -0.0009    constr:    0.0000
     atom:   80    charge:    0.4616    magn:    0.0012    constr:    0.0000
     atom:   81    charge:    2.4715    magn:    0.0135    constr:    0.0000
     atom:   82    charge:    2.4443    magn:    0.0137    constr:    0.0000
     atom:   83    charge:    2.4476    magn:    0.0134    constr:    0.0000
     atom:   84    charge:    2.4473    magn:    0.0137    constr:    0.0000
     atom:   85    charge:    2.4477    magn:    0.0139    constr:    0.0000
     atom:   86    charge:    2.4471    magn:    0.0148    constr:    0.0000
     atom:   87    charge:    2.4506    magn:    0.0142    constr:    0.0000
     atom:   88    charge:    2.4722    magn:    0.0133    constr:    0.0000
     atom:   89    charge:    7.4411    magn:    1.0995    constr:    0.0000
     atom:   90    charge:    7.4370    magn:    1.1002    constr:    0.0000
     atom:   91    charge:    7.4374    magn:    1.1025    constr:    0.0000
     atom:   92    charge:    7.4397    magn:    1.1003    constr:    0.0000
     atom:   93    charge:    3.2630    magn:    0.0507    constr:    0.0000
     atom:   94    charge:    3.2616    magn:    0.0531    constr:    0.0000
     atom:   95    charge:    3.2607    magn:    0.0521    constr:    0.0000
     atom:   96    charge:    3.2582    magn:    0.0522    constr:    0.0000
     atom:   97    charge:    3.2614    magn:    0.0518    constr:    0.0000
     atom:   98    charge:    3.2570    magn:    0.0546    constr:    0.0000
     atom:   99    charge:    3.2580    magn:    0.0542    constr:    0.0000
     atom:  100    charge:    3.2563    magn:    0.0520    constr:    0.0000
     atom:  101    charge:    3.2591    magn:    0.0532    constr:    0.0000
     atom:  102    charge:    3.2602    magn:    0.0528    constr:    0.0000
     atom:  103    charge:    3.2638    magn:    0.0520    constr:    0.0000
     atom:  104    charge:    3.2540    magn:    0.0550    constr:    0.0000
     atom:  105    charge:    3.2551    magn:    0.0526    constr:    0.0000
     atom:  106    charge:    3.2594    magn:    0.0521    constr:    0.0000
     atom:  107    charge:    3.2616    magn:    0.0505    constr:    0.0000
     atom:  108    charge:    3.2627    magn:    0.0512    constr:    0.0000

     total cpu time spent up to now is     2585.6 secs

     End of self-consistent calculation

 ------ SPIN UP ------------


          k = 0.0000 0.0000 0.0000 ( 91663 PWs)   bands (ev):

   -21.1395 -21.1270 -21.1222 -21.1160 -21.0015 -20.9933 -20.9897 -20.9807
   -18.4140 -18.3878 -18.1543 -18.1442 -18.1395 -18.1174 -18.1032 -18.0940
   -18.0874 -18.0678 -17.9698 -17.9473 -17.8712 -17.8548 -17.8329 -17.8024
   -16.3596 -16.3324 -15.4288 -15.3914 -15.3416 -15.3130 -15.2981 -15.2750
   -14.1837 -14.1638 -13.9811 -13.9523 -13.8682 -13.8586 -13.8211 -13.7900
   -13.1271 -13.0802 -12.6945 -12.6615 -12.5793 -12.5589 -12.4739 -12.4375
   -10.7958 -10.7471 -10.5879 -10.5294 -10.5179 -10.4722 -10.4680 -10.4498
    -9.8665  -9.8324  -9.5807  -9.5652  -9.5190  -9.5052  -9.4601  -9.4115
    -8.5331  -8.4343  -8.0684  -8.0051  -7.8992  -7.8893  -7.8001  -7.7340
    -6.9403  -6.8018  -6.7112  -6.6466  -6.6104  -6.5767  -6.5550  -6.4907
    -6.4767  -6.4407  -6.4024  -6.3401  -6.3250  -6.2557  -6.1789  -6.1252
    -5.8603  -5.7752  -5.6437  -5.6070  -5.5725  -5.5587  -5.5191  -5.4978
    -5.4372  -5.4172  -5.3635  -5.3551  -5.3221  -5.2878  -5.2364  -5.2211
    -5.1925  -5.1541  -5.1274  -5.0838  -5.0310  -5.0000  -4.9974  -4.9458
    -4.9208  -4.9059  -4.8804  -4.8520  -4.8114  -4.7845  -4.7650  -4.7056
    -4.6803  -4.6401  -4.5631  -4.4537  -4.4238  -4.3903  -4.3705  -4.3244
    -4.2122  -4.1931  -4.1682  -4.1128  -4.0446  -3.9578  -3.9113  -3.7000
    -3.5639  -3.4985  -3.4176  -3.2856  -3.2561  -3.2407  -3.2013  -3.1145
    -3.0063  -2.9549  -2.8910  -2.8792  -2.8382  -2.8268  -2.7427  -2.6741
    -2.6541  -2.6368  -2.5383  -2.5175  -2.4692  -2.4252  -2.3485  -2.3218
    -2.3069  -2.2306  -2.2240  -2.1939  -2.1635  -2.0075  -1.9956  -1.9743
    -1.9156  -1.8800  -1.8542  -1.8297  -1.7977  -1.6715  -1.6633  -1.6584
    -1.5594  -1.5426  -1.5270  -1.4783  -1.3789  -1.3700  -1.3092  -1.2851
    -1.2087  -1.1663  -1.1305  -1.0964  -1.0407  -1.0204  -1.0047  -0.9914
    -0.9466  -0.9283  -0.8967  -0.8392  -0.8075  -0.7857  -0.7739  -0.7389
    -0.7362  -0.7206  -0.7006  -0.6878  -0.5604  -0.5323  -0.4223  -0.3616
    -0.3079  -0.2617  -0.1352  -0.0778  -0.0452   0.0270   0.0438   0.1329
     0.3908   0.4929   0.5467   0.5568   1.1910   1.2310   1.2983   1.3458
     1.5045   1.5355   1.5829   1.6132   2.9574   3.0254   3.0715   3.1606
     3.2136   3.2289   3.2962   3.3029   3.8454   3.9619   4.2419   4.4105
     4.4538   4.4850   4.4953   4.5173   4.5654   4.6598   4.8242   4.8996
     4.9488   4.9912   5.1571   5.5515   5.6359   5.6765   5.7600   5.8213
     5.8529   5.9023   5.9253   5.9906   6.0095   6.0461   6.2705   6.3550
     6.5335   6.5465   6.6249   6.8021   6.9070   6.9744   7.2369   7.4042
     7.4258   7.4612

 ------ SPIN DOWN ----------


          k = 0.0000 0.0000 0.0000 ( 91663 PWs)   bands (ev):

   -21.0439 -21.0305 -21.0250 -21.0186 -20.9055 -20.8968 -20.8927 -20.8828
   -18.3767 -18.3512 -18.0358 -18.0253 -18.0201 -17.9950 -17.9866 -17.9715
   -17.9649 -17.9442 -17.9255 -17.9054 -17.8345 -17.8182 -17.7979 -17.7680
   -16.2992 -16.2714 -15.3723 -15.3357 -15.2854 -15.2575 -15.2426 -15.2204
   -14.1448 -14.1254 -13.9387 -13.9106 -13.8254 -13.8162 -13.7762 -13.7456
   -13.0848 -13.0373 -12.6526 -12.6196 -12.5368 -12.5163 -12.4310 -12.3945
   -10.7557 -10.7076 -10.5459 -10.4900 -10.4783 -10.4332 -10.4285 -10.4082
    -9.8313  -9.7979  -9.5488  -9.5336  -9.4884  -9.4750  -9.4304  -9.3819
    -8.4994  -8.4016  -8.0363  -7.9732  -7.8682  -7.8596  -7.7656  -7.7018
    -6.8846  -6.7592  -6.6721  -6.5902  -6.5590  -6.5271  -6.5086  -6.4409
    -6.4264  -6.3986  -6.3435  -6.2961  -6.2557  -6.1896  -6.1136  -6.0521
    -5.8074  -5.7214  -5.5445  -5.5111  -5.5029  -5.4644  -5.4357  -5.4142
    -5.3582  -5.3445  -5.2685  -5.2621  -5.2359  -5.2097  -5.1627  -5.1502
    -5.0881  -5.0783  -5.0544  -5.0047  -4.9483  -4.9188  -4.9076  -4.8773
    -4.8579  -4.8331  -4.7765  -4.7737  -4.7133  -4.6897  -4.6752  -4.6460
    -4.6105  -4.5775  -4.5134  -4.3950  -4.3484  -4.3223  -4.3134  -4.2794
    -4.1605  -4.1418  -4.0972  -4.0590  -3.9770  -3.8775  -3.8508  -3.6213
    -3.4803  -3.4153  -3.3011  -3.1946  -3.1570  -3.0154  -3.0046  -2.9258
    -2.8940  -2.8070  -2.7975  -2.7853  -2.7561  -2.6791  -2.4611  -2.4470
    -2.4353  -2.3727  -2.3619  -2.2866  -2.2775  -2.2205  -2.2124  -2.1555
    -2.0961  -2.0749  -2.0491  -2.0330  -1.9354  -1.8756  -1.7976  -1.7726
    -1.6678  -1.6055  -1.5444  -1.5174  -1.4787  -1.4549  -1.4256  -1.3760
    -1.3346  -1.2394  -1.2078  -1.1567  -1.1027  -1.0710  -1.0605  -1.0438
    -0.9605  -0.9110  -0.8832  -0.8537  -0.8418  -0.8348  -0.7832  -0.6923
    -0.6478  -0.6107  -0.4725  -0.3519  -0.3138  -0.2757  -0.2286  -0.1845
    -0.1198  -0.1024  -0.0234   0.0484   0.0783   0.0989   0.1267   0.2007
     0.2125   0.2407   0.2556   0.2885   0.3227   0.3791   0.4230   0.4505
     0.5672   0.6371   0.6687   0.7202   1.9437   1.9810   2.0191   2.0760
     2.1843   2.2452   2.2616   2.2879   3.0674   3.1549   3.1684   3.2635
     3.3120   3.3299   3.4058   3.4116   3.9261   4.0432   4.3151   4.4866
     4.5288   4.5523   4.5651   4.5802   4.6375   4.7380   4.8738   4.9469
     4.9978   5.0383   5.2023   5.6158   5.6982   5.7392   5.8302   5.8781
     5.9245   5.9670   5.9918   6.0530   6.0850   6.1143   6.3232   6.4073
     6.5824   6.5944   6.6656   6.8460   6.9569   7.0131   7.2801   7.4456
     7.4675   7.5007

     the spin up/dw Fermi energies are     1.7770    1.4411 ev

!    total energy              =   -1890.94650818 Ry
     Harris-Foulkes estimate   =   -1890.94650839 Ry
     estimated scf accuracy    <       0.00000029 Ry

     The total energy is the sum of the following terms:

     one-electron contribution =   -2367.68690040 Ry
     hartree contribution      =    1359.81732751 Ry
     xc contribution           =    -598.63250880 Ry
     ewald contribution        =    -286.64149162 Ry
     Dispersion Correction     =      -0.56145156 Ry
     smearing contrib. (-TS)   =       2.75851668 Ry

     total magnetization       =     8.00 Bohr mag/cell
     absolute magnetization    =     8.16 Bohr mag/cell

     convergence has been achieved in  14 iterations

     Forces acting on atoms (cartesian axes, Ry/au):

     atom    1 type  1   force =    -0.03212559    0.02284949   -0.02489241
     atom    2 type  1   force =    -0.04420436   -0.01903007    0.00544093
     atom    3 type  1   force =     0.04132098   -0.01203478    0.00778262
     atom    4 type  1   force =     0.03949833    0.01607383   -0.00243118
     atom    5 type  1   force =    -0.04366523    0.02504537   -0.00314914
     atom    6 type  1   force =    -0.02817016    0.08144152    0.09437473
     atom    7 type  1   force =     0.02377026    0.06766699    0.09528543
     atom    8 type  1   force =     0.02868342    0.01503697   -0.02779610
     atom    9 type  2   force =     0.01137698    0.00611545   -0.00575182
     atom   10 type  2   force =     0.01276283   -0.02108739   -0.01240549
     atom   11 type  2   force =    -0.00689407    0.00763458   -0.02114440
     atom   12 type  2   force =    -0.00256708    0.01788965    0.01726642
     atom   13 type  2   force =     0.00110852   -0.04432854   -0.00367470
     atom   14 type  2   force =    -0.00559060   -0.00592524   -0.01130286
     atom   15 type  2   force =    -0.01161136   -0.02218996   -0.01172455
     atom   16 type  2   force =    -0.01151641    0.01219402   -0.01304181
     atom   17 type  2   force =     0.00231534    0.00965912    0.01000484
     atom   18 type  2   force =    -0.00569609   -0.01115751    0.00296067
     atom   19 type  2   force =    -0.01869532   -0.00702154   -0.01290689
     atom   20 type  2   force =    -0.00265467    0.00891047    0.00994890
     atom   21 type  2   force =     0.06727283   -0.02780639   -0.01121157
     atom   22 type  2   force =    -0.00702325    0.00388740   -0.00119640
     atom   23 type  2   force =     0.00529278    0.00335623   -0.00120998
     atom   24 type  2   force =     0.00333626   -0.00364820    0.00064292
     atom   25 type  2   force =     0.00559920   -0.00630595   -0.01142295
     atom   26 type  2   force =     0.00594912    0.00606649   -0.01108785
     atom   27 type  2   force =     0.00148748    0.01742672    0.01525981
     atom   28 type  2   force =    -0.00421464   -0.01125049    0.01304679
[...]
    -1.7131  -1.6940  -1.5042  -1.4968  -1.4743  -1.4120  -1.3314  -1.3185
    -1.3107  -1.2832  -1.2390  -1.2193  -1.1872  -1.1092  -1.0630  -1.0336
    -0.9988  -0.9663  -0.9030  -0.8799  -0.8699  -0.8214  -0.8133  -0.7464
    -0.5445  -0.5296  -0.4870  -0.4241  -0.3949  -0.3430  -0.3097  -0.2642
    -0.2049  -0.1703  -0.1443  -0.0780  -0.0197   0.0027   0.0078   0.0373
     0.0783   0.0948   0.1406   0.1580   0.2047   0.2110   0.2558   0.2723
     0.2854   0.2932   0.3505   0.4654   1.7713   1.7895   1.8180   1.8523
     2.0701   2.1253   2.2270   2.2372   3.1531   3.2045   3.2153   3.2391
     3.2614   3.3646   3.3680   3.4138   4.1868   4.2301   4.2895   4.3563
     4.4163   4.4302   4.5382   4.5445   4.8495   5.0180   5.0605   5.1252
     5.4276   5.4578   5.4999   5.6494   5.6738   5.6840   5.7400   5.8238
     5.8288   5.9271   5.9517   5.9729   5.9905   6.1693   6.2054   6.3611
     6.5724   6.6335   6.7021   6.8284   6.8866   7.0910   7.2428   7.4463
     7.5146   7.6583

     the spin up/dw Fermi energies are     1.6654    1.3389 ev

!    total energy              =   -1891.26386331 Ry
     Harris-Foulkes estimate   =   -1891.26386331 Ry
     estimated scf accuracy    <          9.3E-09 Ry

     The total energy is the sum of the following terms:

     one-electron contribution =   -2270.61495345 Ry
     hartree contribution      =    1310.70800451 Ry
     xc contribution           =    -598.17661173 Ry
     ewald contribution        =    -335.50070321 Ry
     Dispersion Correction     =      -0.57305987 Ry
     smearing contrib. (-TS)   =       2.89346043 Ry

     total magnetization       =     8.00 Bohr mag/cell
     absolute magnetization    =     8.20 Bohr mag/cell

     convergence has been achieved in  10 iterations

     Forces acting on atoms (cartesian axes, Ry/au):

     atom    1 type  1   force =     0.00038332   -0.00076044   -0.00015789
     atom    2 type  1   force =     0.00040892    0.00032947   -0.00010288
     atom    3 type  1   force =     0.00038377   -0.00031775   -0.00036012
     atom    4 type  1   force =     0.00008583   -0.00012733   -0.00035294
     atom    5 type  1   force =    -0.00042993   -0.00037445   -0.00010006
     atom    6 type  1   force =     0.00018871    0.00001820   -0.00007315
     atom    7 type  1   force =     0.00049296   -0.00025804   -0.00086518
     atom    8 type  1   force =     0.00002773   -0.00000130   -0.00008578
     atom    9 type  2   force =    -0.00029714    0.00015427   -0.00003356
     atom   10 type  2   force =     0.00023376    0.00055127    0.00018387
     atom   11 type  2   force =    -0.00030277   -0.00039684    0.00027374
     atom   12 type  2   force =    -0.00013499    0.00001561    0.00021944
     atom   13 type  2   force =    -0.00042617   -0.00034892    0.00040111
     atom   14 type  2   force =    -0.00001628   -0.00003119    0.00036208
     atom   15 type  2   force =    -0.00015110    0.00021683    0.00039458
     atom   16 type  2   force =     0.00001730   -0.00050689    0.00044581
     atom   17 type  2   force =    -0.00011798   -0.00032542   -0.00028319
     atom   18 type  2   force =    -0.00016038   -0.00010597    0.00032417
     atom   19 type  2   force =     0.00000590   -0.00068860   -0.00027066
     atom   20 type  2   force =     0.00028801    0.00008056   -0.00042718
     atom   21 type  2   force =    -0.00044968   -0.00059107   -0.00004423
     atom   22 type  2   force =     0.00026896    0.00011189    0.00006783
     atom   23 type  2   force =    -0.00058228   -0.00051366   -0.00012557
     atom   24 type  2   force =    -0.00000770   -0.00006923    0.00009717
     atom   25 type  2   force =    -0.00009255   -0.00040677    0.00006987
     atom   26 type  2   force =     0.00034368   -0.00030024    0.00029584
     atom   27 type  2   force =     0.00012755    0.00004535   -0.00009036
     atom   28 type  2   force =    -0.00002251    0.00016442   -0.00002388
     atom   29 type  2   force =     0.00024935   -0.00027926   -0.00018282
     atom   30 type  2   force =    -0.00010944    0.00000096   -0.00008091
     atom   31 type  2   force =     0.00022979    0.00034908    0.00022986
     atom   32 type  2   force =    -0.00031589    0.00008007    0.00005944
     atom   33 type  2   force =     0.00045048   -0.00007798    0.00096872
     atom   34 type  2   force =     0.00044816   -0.00010711    0.00000477
     atom   35 type  2   force =    -0.00020813    0.00023321   -0.00011647
     atom   36 type  2   force =     0.00052243    0.00008990   -0.00018350
     atom   37 type  2   force =    -0.00026963    0.00002862   -0.00016267
     atom   38 type  2   force =    -0.00037974    0.00013960   -0.00002590
     atom   39 type  2   force =    -0.00018786   -0.00016990   -0.00014917
     atom   40 type  2   force =    -0.00027737    0.00021991    0.00006438
     atom   41 type  2   force =     0.00032487    0.00020325   -0.00020255
     atom   42 type  2   force =     0.00024288   -0.00017391   -0.00061066
     atom   43 type  2   force =    -0.00012667    0.00015244   -0.00028705
     atom   44 type  2   force =    -0.00003478    0.00013638   -0.00024039
     atom   45 type  2   force =     0.00033643    0.00026905    0.00061973
     atom   46 type  2   force =     0.00019658   -0.00010002    0.00009392
     atom   47 type  2   force =     0.00004702   -0.00005716    0.00003099
     atom   48 type  2   force =    -0.00027067   -0.00020349   -0.00020228
     atom   49 type  2   force =     0.00031375    0.00003482    0.00019082
     atom   50 type  2   force =     0.00022024    0.00021485   -0.00005759
     atom   51 type  2   force =    -0.00014189    0.00022590    0.00009265
     atom   52 type  2   force =     0.00051421   -0.00002781   -0.00012063
     atom   53 type  2   force =    -0.00006924    0.00010089   -0.00000180
     atom   54 type  2   force =    -0.00036252   -0.00018693   -0.00044321
     atom   55 type  2   force =    -0.00020602    0.00004113   -0.00012208
     atom   56 type  2   force =     0.00018823   -0.00008750   -0.00055262
     atom   57 type  3   force =     0.00024701    0.00074646   -0.00018574
     atom   58 type  3   force =    -0.00028077   -0.00017251    0.00019082
     atom   59 type  3   force =    -0.00008732    0.00020664   -0.00033348
     atom   60 type  3   force =     0.00008179    0.00014993    0.00001525
     atom   61 type  3   force =    -0.00020083    0.00052189   -0.00029651
     atom   62 type  3   force =     0.00070172    0.00056948   -0.00043306
     atom   63 type  3   force =    -0.00017637    0.00052249    0.00070944
     atom   64 type  3   force =    -0.00049954   -0.00008008   -0.00024161
     atom   65 type  3   force =     0.00007285    0.00003636    0.00020201
     atom   66 type  3   force =    -0.00003661   -0.00009901   -0.00011081
     atom   67 type  3   force =     0.00020095   -0.00001396    0.00044206
     atom   68 type  3   force =     0.00014432   -0.00043199    0.00029301
     atom   69 type  3   force =     0.00000905    0.00010180    0.00013622
     atom   70 type  3   force =    -0.00018584    0.00013294   -0.00011500
     atom   71 type  3   force =    -0.00028352   -0.00014302    0.00017812
     atom   72 type  3   force =    -0.00031249    0.00053072    0.00022265
     atom   73 type  3   force =    -0.00010015    0.00023226    0.00037767
     atom   74 type  3   force =     0.00023715   -0.00002914   -0.00024227
     atom   75 type  3   force =     0.00013138    0.00017574    0.00014218
     atom   76 type  3   force =    -0.00033136   -0.00001205    0.00000431
     atom   77 type  3   force =    -0.00026440    0.00005410   -0.00063819
     atom   78 type  3   force =    -0.00008467    0.00021623    0.00043716
     atom   79 type  3   force =     0.00007721    0.00023335   -0.00048643
     atom   80 type  3   force =    -0.00032615   -0.00003901   -0.00036763
     atom   81 type  4   force =    -0.00006621   -0.00022608    0.00071728
     atom   82 type  4   force =    -0.00004150   -0.00017567    0.00018272
     atom   83 type  4   force =    -0.00079736   -0.00054891   -0.00082773
     atom   84 type  4   force =     0.00020330   -0.00008538    0.00058377
     atom   85 type  4   force =     0.00001262    0.00005667   -0.00010301
     atom   86 type  4   force =     0.00008509   -0.00013218   -0.00009333
     atom   87 type  4   force =     0.00009535    0.00002861    0.00009048
     atom   88 type  4   force =    -0.00044074    0.00020420    0.00014780
     atom   89 type  5   force =     0.00052719   -0.00044317   -0.00006075
     atom   90 type  5   force =    -0.00046342    0.00077632    0.00017811
     atom   91 type  5   force =    -0.00030365    0.00088935   -0.00083699
     atom   92 type  5   force =    -0.00006252   -0.00068453   -0.00073353
     atom   93 type  6   force =     0.00006650   -0.00018818    0.00040662
     atom   94 type  6   force =    -0.00072224    0.00022089   -0.00038309
     atom   95 type  6   force =    -0.00004505   -0.00036353    0.00013658
     atom   96 type  6   force =     0.00004557    0.00012414    0.00068737
     atom   97 type  6   force =     0.00053079    0.00000933    0.00048131
     atom   98 type  6   force =    -0.00034159    0.00007616    0.00023675
     atom   99 type  6   force =     0.00014581    0.00030633    0.00019048
     atom  100 type  6   force =     0.00034421    0.00059817    0.00030550
     atom  101 type  6   force =     0.00021220    0.00021248    0.00047476
     atom  102 type  6   force =     0.00052162   -0.00017390   -0.00002526
     atom  103 type  6   force =     0.00053704   -0.00015991   -0.00022883
     atom  104 type  6   force =    -0.00025439   -0.00041220   -0.00005568
     atom  105 type  6   force =    -0.00003339    0.00008915   -0.00025868
     atom  106 type  6   force =     0.00054524   -0.00043805    0.00045261
     atom  107 type  6   force =    -0.00005768    0.00013705   -0.00011760
     atom  108 type  6   force =    -0.00036571    0.00028047    0.00020036

     Total force =     0.005714     Total SCF correction =     0.000246

     bfgs converged in  98 scf cycles and  96 bfgs steps
     (criteria: energy <  1.0E-04 Ry, force <  1.0E-03 Ry/Bohr)

     End of BFGS Geometry Optimization

     Final energy   =   -1891.2638633088 Ry
Begin final coordinates

ATOMIC_POSITIONS (crystal)
Br            0.5869569534       -0.0148293717        0.6209805161
Br            0.3177554026        0.9367045927        0.2195908558
Br            0.9368978951        0.4337714919        0.7226158613
Br            0.2007647477        0.5869583492        0.2316261011
Br            0.0484341831        0.0849353991        0.7385484866
Br            0.4402268058        0.9961947948        0.9152484700
Br            0.8072925673        0.4937610119        0.4254690758
Br            0.6630825844        0.4897008631        0.1258924970
C             0.2629299651        1.0000206188        0.5421904666
C             0.0297312314        0.0084987415        0.0375231388
C             0.3717615602        0.0257353322        0.5400089739
C             0.1314387208        0.9637029220        0.0550642441
C             0.4415221153        0.9574718757        0.6096817333
C             0.1949615014        0.0050646152        0.1583845828
C             0.2152750617        0.5120601181        0.5362149583
C             0.4260856147        0.4470252982       -0.0030851795
C             0.2451934958        0.6027738774        0.6067280141
C             0.4629448359        0.3657390061        0.0801703160
C             0.2282751274        0.9130703100        0.6163476371
C            -0.0008428690        0.0966865500        0.1105841481
C             0.4024834349        0.8695096679        0.6804354313
C             0.1614199075        0.0958692713        0.2272606564
C             0.0877497308        0.5977800980        0.7248182008
C             0.3415774790        0.4129102463        0.2383280602
C             0.0550312200        0.5046144962        0.6585091356
C             0.3029651709        0.4977286737        0.1606982302
C             0.1162316287        0.4636054494        0.5561473335
C             0.3460225345        0.5164466297        0.0372310844
C             0.4134480880        0.1189055502        0.4693960519
C             0.1702028270        0.8818061430        0.9658422182
C             0.0778189523        0.3783446293        0.4692238305
C             0.3068917797        0.6037324364        0.9529636693
C             0.8220309262        0.9414696082        0.4965067440
C             0.5371260016        0.0384926590        0.0422576353
C             0.9024961111        0.0114167565        0.5389561551
C             0.6414132535        0.9971329648        0.0581810282
C             0.9452451439        0.9949877592        0.6653443241
C             0.7030810232        0.0420157823        0.1597770526
C             0.7110737613        0.5371597047        0.5475949201
C             0.9849947232        0.4948783492        0.0471718410
C             0.7495800732        0.6169288932        0.6326228013
C             1.0194509280        0.4066050896        0.1210506305
C             0.7845330152        0.8620216171        0.5801492729
C             0.4986259752        0.1178979599        0.1259392006
C             0.9056111724        0.9120654438        0.7432758604
C             0.6604989431        0.1212156610        0.2403953077
C             0.5875085849        0.6210682977        0.7385789009
C             0.8461421434        0.3688327628        0.1852033261
C             0.5450603269        0.5412940828        0.6564910347
C             0.8074171045        0.4581526517        0.1149781036
C             0.6069223405        0.4959125686        0.5587247656
C             0.8769209863        0.5241000499        0.0452830585
C             0.9417820726        0.0973330934        0.4545901603
C             0.6847598232        0.9110136857        0.9756861059
C             0.5641613291        0.4090698129        0.4751362689
C             0.8360206594        0.6186041102        0.9745352753
H             0.2031591603        1.0484010604        0.4916197123
H             0.2711659605        0.4792999887        0.4679018069
H             0.0440407671        0.5418762370        0.9964001545
H             0.3212997653        0.6424668468        0.5926230745
H             0.1031854247        0.3837608143        0.1276623953
H             0.1440493063        0.8929043398        0.6225074086
H             0.4177568401        0.1487022771        0.1138858156
H             0.4565354322        0.8171728573        0.7351376213
H             0.2120584978        0.1317691003        0.3029618122
H             0.0395423383        0.6327541874        0.8008103014
H             0.3058904350        0.3930883494        0.3303303681
H             0.4634546070        0.5145725847        0.6706461227
H             0.7865768703        0.9490397440        0.3993564211
H             0.9717129458       -0.0252714088        0.9697729139
H             0.7847587962        1.0155542797        0.1783793947
H             0.4617255457        0.4562616231        0.9019894011
H             0.8305641052        0.6475152700        0.6252337182
H             0.5254060960        0.3110182896        0.0511300006
H             0.7221239349        0.8068064666        0.5487964163
H             0.9210013538        0.1335265115        0.0978784204
H             0.9413606792        0.8936445996        0.8374556798
H             0.7073303847        0.1544825312        0.3208202666
H             0.5410709900        0.6547408438        0.8167114823
H             0.7927063175        0.3180365025        0.2400142777
N             0.2964983740        0.8506835243        0.6867225905
N             0.0654258478        0.1404252218        0.2012821887
N             0.1809569020        0.6454396683        0.6969365857
N             0.4236495645        0.3515593101        0.2006326698
N             0.8232668430        0.8503511339        0.7034862811
N             0.5597247019        0.1586356177        0.2226445551
N             0.6882535269        0.6583528856        0.7253557113
N             0.9515133912        0.3463259785        0.1908915447
Ni            0.2391446492        0.7500364668        0.8191468088
Ni            0.4926742345        0.2625479919        0.3407935372
Ni            0.7561972466        0.7632229737        0.8446116535
Ni            1.0074051230        0.2436357252        0.3234055832
O             0.1345603366        0.3374893247        0.3794373623
O             0.3636452121        0.6473786280        0.8653871243
O             0.3591654928        0.1723362856        0.3846168430
O             0.1126295657        0.8413128391        0.8733836054
O             0.4660961664        0.3792294289        0.4779846148
O             0.2116875712        0.6403481985        0.9629755146
O             0.0371916039        0.1338003323        0.4676487730
O             0.2674510422        0.8477785673        0.9705334915
O             0.6213193278        0.3564647075        0.3942779346
O             0.8897132648        0.6710552975        0.8912125118
O             0.8844045303        0.1406520093        0.3641678694
O             0.6274238757        0.8576313180        0.8927549770
O             0.9815086288        0.3420031332        0.4731878863
O             0.7402127482        0.6536551607        0.9899700415
O             0.5103574587        0.1516743015        0.4865053022
O             0.7833085411        0.8825760218        0.9818118799
End final coordinates



     Writing output data file ./QE_relaxation_results/pbesol_relax/NiPyC2_relax_sc211_meta_functionalized_Br_pbesol_relax.save/
 
     init_run     :     30.15s CPU     40.19s WALL (       1 calls)
     electrons    :  73729.47s CPU  82371.84s WALL (      98 calls)
     update_pot   :    804.76s CPU    876.84s WALL (      97 calls)
     forces       :   1538.34s CPU   1718.18s WALL (      98 calls)

     Called by init_run:
     wfcinit      :     21.06s CPU     30.58s WALL (       1 calls)
     potinit      :      3.68s CPU      4.07s WALL (       1 calls)
     hinit0       :      3.99s CPU      4.09s WALL (       1 calls)

     Called by electrons:
     c_bands      :  69060.95s CPU  76243.88s WALL (    1206 calls)
     sum_band     :   2945.96s CPU   3819.52s WALL (    1206 calls)
     v_of_rho     :    818.71s CPU   1041.36s WALL (    1280 calls)
     mix_rho      :    899.65s CPU   1184.63s WALL (    1206 calls)

     Called by c_bands:
     init_us_2    :     62.71s CPU     66.37s WALL (    2413 calls)
     regterg      :  68880.77s CPU  75499.70s WALL (    1206 calls)

     Called by sum_band:

     Called by *egterg:
     h_psi        :  25253.90s CPU  28792.06s WALL (    4198 calls)
     g_psi        :     13.76s CPU     14.23s WALL (    2991 calls)
     rdiaghg      :   3047.18s CPU   3065.20s WALL (    4076 calls)

     Called by h_psi:
     h_psi:calbec :   6883.26s CPU   7592.62s WALL (    4198 calls)
     vloc_psi     :  11327.38s CPU  14134.37s WALL (    4198 calls)
     add_vuspsi   :   6977.15s CPU   6997.01s WALL (    4198 calls)

     General routines
     calbec       :   7835.33s CPU   8681.70s WALL (    4590 calls)
     fft          :    553.09s CPU    860.96s WALL (   20325 calls)
     ffts         :    616.85s CPU    831.46s WALL (   20840 calls)
     fftw         :  11861.00s CPU  15338.07s WALL (  913770 calls)
 
     Parallel routines
     fft_scatt_xy :   2380.02s CPU   2514.70s WALL (  954935 calls)
     fft_scatt_yz :   3268.94s CPU   6748.30s WALL (  954935 calls)
 
     PWSCF        :     21h 9m CPU     23h38m WALL

 
   This run was terminated on:  22:38:35  22Jun2020            

=------------------------------------------------------------------------------=
   JOB DONE.
=------------------------------------------------------------------------------=
QE finished Mon Jun 22 22:38:35 PDT 2020
