/apps/openmpi/3.1_intel-19/bin/mpiexec
starting QE Sun Jun 21 23:00:21 PDT 2020

     Program PWSCF v.6.5 starts on 21Jun2020 at 23: 0:23 

     This program is part of the open-source Quantum ESPRESSO suite
     for quantum simulation of materials; please cite
         "P. Giannozzi et al., J. Phys.:Condens. Matter 21 395502 (2009);
         "P. Giannozzi et al., J. Phys.:Condens. Matter 29 465901 (2017);
          URL http://www.quantum-espresso.org", 
     in publications or presentations arising from this work. More details at
     http://www.quantum-espresso.org/quote

     Parallel version (MPI), running on    32 processors

     MPI processes distributed on     1 nodes
     K-points division:     npool     =       2
     R & G space division:  proc/nbgrp/npool/nimage =      16
     Reading input from QE_input_scripts/pw.NiPyC2_relax_sc211_meta_functionalized_F_pbesol_relax.in
Warning: card &CELL ignored
Warning: card    CELL_DYNAMICS = 'BFGS' ignored
Warning: card    CELL_DOFREE = 'XYZ' ignored
Warning: card / ignored

     Current dimensions of program PWSCF are:
     Max number of different atomic species (ntypx) = 10
     Max number of k-points (npk) =  40000
     Max angular momentum in pseudopotentials (lmaxx) =  3

     -------------------------------------------------
     Parameters for Dispersion (Grimme-D2) Correction:
     -------------------------------------------------
       atom      VdW radius       C_6     

        C          2.744         60.710
        F          2.432         26.018
        H          1.892          4.857
        N          2.640         42.670
        Ni         2.952        374.666
        O          2.536         24.284

     gamma-point specific algorithms are used

     Subspace diagonalization in iterative solution of the eigenvalue problem:
     a serial algorithm will be used

 
     Parallelization info
     --------------------
     sticks:   dense  smooth     PW     G-vecs:    dense   smooth      PW
     Min        1113    1113    277                91686    91686   11456
     Max        1116    1116    280                91692    91692   11460
     Sum       17829   17829   4453              1467017  1467017  183325
 


     bravais-lattice index     =            0
     lattice parameter (alat)  =      23.6322  a.u.
     unit-cell volume          =   10858.6228 (a.u.)^3
     number of atoms/cell      =          108
     number of atomic types    =            6
     number of electrons       =       448.00 (up: 228.00, down: 220.00)
     number of Kohn-Sham states=          274
     kinetic-energy cutoff     =     100.0000  Ry
     charge density cutoff     =     400.0000  Ry
     convergence threshold     =      1.0E-06
     mixing beta               =       0.7000
     number of iterations used =            8  local-TF  mixing
     Exchange-correlation= PBESOL
                           (   1   4  10   8   0   0   0)
     nstep                     =          200


     celldm(1)=  23.632159  celldm(2)=   0.000000  celldm(3)=   0.000000
     celldm(4)=   0.000000  celldm(5)=   0.000000  celldm(6)=   0.000000

     crystal axes: (cart. coord. in units of alat)
               a(1) = (   1.000000   0.000000   0.000000 )  
               a(2) = (   0.000000   1.001423   0.000000 )  
               a(3) = (  -0.018199   0.000000   0.821574 )  

     reciprocal axes: (cart. coord. in units 2 pi/alat)
               b(1) = (  1.000000  0.000000  0.022152 )  
               b(2) = (  0.000000  0.998579  0.000000 )  
               b(3) = (  0.000000  0.000000  1.217175 )  


     PseudoPot. # 1 for C  read from file:
     ./pseudo/C.pbesol-nc.UPF
     MD5 check sum: ce26087537ded160c8d400e183a8bf42
     Pseudo is Norm-conserving, Zval =  4.0
     Generated using "atomic" code by A. Dal Corso v.6.5
     Using radial grid of 1073 points,  1 beta functions with: 
                l(1) =   1

     PseudoPot. # 2 for F  read from file:
     ./pseudo/F.pbesol-n-nc.UPF
     MD5 check sum: 7bfb8b5cfca7590fa41d3808836ab4b2
     Pseudo is Norm-conserving, Zval =  7.0
     Generated using "atomic" code by A. Dal Corso v.6.5
     Using radial grid of 1105 points,  1 beta functions with: 
                l(1) =   1

     PseudoPot. # 3 for H  read from file:
     ./pseudo/H.pbesol-n-nc.UPF
     MD5 check sum: 7995ef24074557c85b430109caaacc09
     Pseudo is Norm-conserving, Zval =  1.0
     Generated using "atomic" code by A. Dal Corso v.6.5
     Using radial grid of  929 points,  0 beta functions with: 

     PseudoPot. # 4 for N  read from file:
     ./pseudo/N.pbesol-nc.UPF
     MD5 check sum: e18cc5e4b8a5600c1a19b30c2cab1ca0
     Pseudo is Norm-conserving, Zval =  5.0
     Generated using "atomic" code by A. Dal Corso v.6.5
     Using radial grid of 1085 points,  1 beta functions with: 
                l(1) =   1

     PseudoPot. # 5 for Ni read from file:
     ./pseudo/Ni.pbesol-n-nc.UPF
     MD5 check sum: 623411631e0c2eb7c0b2b9815547d2d9
     Pseudo is Norm-conserving + core correction, Zval = 10.0
     Generated using "atomic" code by A. Dal Corso v.6.5
     Using radial grid of 1195 points,  2 beta functions with: 
                l(1) =   1
                l(2) =   2

     PseudoPot. # 6 for O  read from file:
     ./pseudo/O.pbesol-nc.UPF
     MD5 check sum: 73d10e7e91dbfcbe8a7e362101007f84
     Pseudo is Norm-conserving, Zval =  6.0
     Generated using "atomic" code by A. Dal Corso v.6.5
     Using radial grid of 1095 points,  1 beta functions with: 
                l(1) =   1

     atomic species   valence    mass     pseudopotential
        C              4.00    12.01070     C ( 1.00)
        F              7.00    18.99840     F ( 1.00)
        H              1.00     1.00794     H ( 1.00)
        N              5.00    14.00670     N ( 1.00)
        Ni            10.00    58.69340     Ni( 1.00)
        O              6.00    15.99940     O ( 1.00)

     Starting magnetic structure 
     atomic species   magnetization
        C            0.000
        F            0.000
        H            0.000
        N            0.000
        Ni           0.250
        O            0.000

     No symmetry found



   Cartesian axes

     site n.     atom                  positions (alat units)
         1           C   tau(   1) = (   0.2787122   0.9714307   0.4288486  )
         2           C   tau(   2) = (   0.0379730   0.0311503   0.0183277  )
         3           C   tau(   3) = (   0.3806882   0.0117868   0.4489838  )
         4           C   tau(   4) = (   0.1394042   0.9891499   0.0379124  )
         5           C   tau(   5) = (   0.4400787   0.9715829   0.5343281  )
         6           C   tau(   6) = (   0.1997920   0.0283934   0.1231482  )
         7           C   tau(   7) = (   0.1986011   0.5304580   0.4324635  )
         8           C   tau(   8) = (   0.4580372   0.4720800   0.0229252  )
         9           C   tau(   9) = (   0.2341003   0.6142040   0.4982314  )
        10           C   tau(  10) = (   0.4948422   0.3892302   0.0892369  )
        11           C   tau(  11) = (   0.2384981   0.8904717   0.4955761  )
        12           C   tau(  12) = (  -0.0008282   0.1123917   0.0856467  )
        13           C   tau(  13) = (   0.3947360   0.8906489   0.5977380  )
        14           C   tau(  14) = (   0.1557890   0.1097029   0.1871645  )
        15           C   tau(  15) = (   0.0756247   0.6098498   0.5975737  )
        16           C   tau(  16) = (   0.3367152   0.3921904   0.1884642  )
        17           C   tau(  17) = (   0.0350715   0.5258264   0.5351012  )
        18           C   tau(  18) = (   0.2948780   0.4753867   0.1254988  )
        19           C   tau(  19) = (   0.0981522   0.4849593   0.4519611  )
        20           C   tau(  20) = (   0.3569104   0.5163900   0.0416029  )
        21           C   tau(  21) = (   0.4248178   0.0994604   0.3833638  )
        22           C   tau(  22) = (   0.1639424   0.9010006   0.7933713  )
        23           C   tau(  23) = (   0.0588120   0.3950355   0.3866953  )
        24           C   tau(  24) = (   0.2984059   0.6050320   0.7961934  )
        25           C   tau(  25) = (   0.7787122   0.9714307   0.4288486  )
        26           C   tau(  26) = (   0.5379730   0.0311503   0.0183277  )
        27           C   tau(  27) = (   0.8806882   0.0117868   0.4489838  )
        28           C   tau(  28) = (   0.6394042   0.9891499   0.0379124  )
        29           C   tau(  29) = (   0.9400787   0.9715829   0.5343281  )
        30           C   tau(  30) = (   0.6997920   0.0283934   0.1231482  )
        31           C   tau(  31) = (   0.6986021   0.5304580   0.4324635  )
        32           C   tau(  32) = (   0.9580382   0.4720800   0.0229252  )
        33           C   tau(  33) = (   0.7341003   0.6142040   0.4982314  )
        34           C   tau(  34) = (   0.9948422   0.3892302   0.0892369  )
        35           C   tau(  35) = (   0.7384981   0.8904717   0.4955761  )
        36           C   tau(  36) = (   0.4991718   0.1123917   0.0856467  )
        37           C   tau(  37) = (   0.8947360   0.8906489   0.5977380  )
        38           C   tau(  38) = (   0.6557880   0.1097029   0.1871645  )
        39           C   tau(  39) = (   0.5756247   0.6098498   0.5975737  )
        40           C   tau(  40) = (   0.8367152   0.3921904   0.1884642  )
        41           C   tau(  41) = (   0.5350715   0.5258264   0.5351012  )
        42           C   tau(  42) = (   0.7948780   0.4753867   0.1254988  )
        43           C   tau(  43) = (   0.5981522   0.4849593   0.4519611  )
        44           C   tau(  44) = (   0.8569104   0.5163900   0.0416029  )
        45           C   tau(  45) = (   0.9248178   0.0994604   0.3833638  )
        46           C   tau(  46) = (   0.6639424   0.9010006   0.7933713  )
        47           C   tau(  47) = (   0.5588110   0.3950355   0.3866953  )
        48           C   tau(  48) = (   0.7984059   0.6050320   0.7961934  )
        49           F   tau(  49) = (   0.5396625   0.0055499   0.5574463  )
        50           F   tau(  50) = (   0.9579154   0.9984451   0.7577979  )
        51           F   tau(  51) = (   0.2623691   0.4959980   0.3520676  )
        52           F   tau(  52) = (   0.1960894   0.5135219   0.1475539  )
        53           F   tau(  53) = (   0.7176447   0.0055058   0.3467134  )
        54           F   tau(  54) = (   0.4579154   0.9984451   0.7577979  )
        55           F   tau(  55) = (   0.7623700   0.4959970   0.3520684  )
        56           F   tau(  56) = (   0.6960894   0.5135219   0.1475539  )
        57           H   tau(  57) = (   0.2290596   1.0009978   0.3640502  )
        58           H   tau(  58) = (   0.0198054   1.0002267   0.5533467  )
        59           H   tau(  59) = (   0.2791988   1.0000865   0.1418054  )
        60           H   tau(  60) = (  -0.0086584   0.5011092   0.7809458  )
        61           H   tau(  61) = (   0.3118554   0.6514319   0.4868937  )
        62           H   tau(  62) = (   0.0732386   0.3533532   0.0780726  )
        63           H   tau(  63) = (   0.1594426   0.8563401   0.4835457  )
        64           H   tau(  64) = (   0.4206861   0.1479423   0.0738480  )
        65           H   tau(  65) = (   0.4386511   0.8563902   0.6644572  )
        66           H   tau(  66) = (   0.2006191   0.1433067   0.2536997  )
        67           H   tau(  67) = (   0.0290492   0.6438591   0.6626884  )
        68           H   tau(  68) = (   0.2907535   0.3580349   0.2539083  )
        69           H   tau(  69) = (   0.4564147   0.4939330   0.5533319  )
        70           H   tau(  70) = (   0.7791988   1.0000865   0.1418054  )
        71           H   tau(  71) = (   0.4913416   0.5011092   0.7809458  )
        72           H   tau(  72) = (   0.8118554   0.6514319   0.4868937  )
        73           H   tau(  73) = (   0.5732386   0.3533532   0.0780726  )
        74           H   tau(  74) = (   0.6594426   0.8563401   0.4835457  )
        75           H   tau(  75) = (   0.9206861   0.1479423   0.0738480  )
        76           H   tau(  76) = (   0.9386511   0.8563902   0.6644572  )
        77           H   tau(  77) = (   0.7006201   0.1433067   0.2536997  )
        78           H   tau(  78) = (   0.5290492   0.6438591   0.6626884  )
        79           H   tau(  79) = (   0.7907535   0.3580349   0.2539083  )
        80           H   tau(  80) = (   0.9564147   0.4939330   0.5533319  )
        81           N   tau(  81) = (   0.2956096   0.8524646   0.5790685  )
        82           N   tau(  82) = (   0.0569790   0.1490689   0.1692870  )
        83           N   tau(  83) = (   0.1736962   0.6512356   0.5798983  )
        84           N   tau(  84) = (   0.4350238   0.3514275   0.1709211  )
        85           N   tau(  85) = (   0.7956096   0.8524646   0.5790685  )
        86           N   tau(  86) = (   0.5569790   0.1490689   0.1692870  )
        87           N   tau(  87) = (   0.6736972   0.6512356   0.5798983  )
        88           N   tau(  88) = (   0.9350238   0.3514275   0.1709211  )
        89           Ni  tau(  89) = (   0.2317814   0.7525556   0.6871039  )
        90           Ni  tau(  90) = (   0.4937992   0.2483520   0.2786599  )
        91           Ni  tau(  91) = (   0.7317814   0.7525556   0.6871039  )
        92           Ni  tau(  92) = (   0.9937992   0.2483520   0.2786599  )
        93           O   tau(  93) = (   0.1158100   0.3481839   0.3145586  )
        94           O   tau(  94) = (   0.3551690   0.6519036   0.7240468  )
        95           O   tau(  95) = (   0.3707656   0.1477170   0.3098797  )
        96           O   tau(  96) = (   0.1091506   0.8535652   0.7199135  )
        97           O   tau(  97) = (   0.4642788   0.3566669   0.3968154  )
        98           O   tau(  98) = (   0.2033039   0.6423280   0.8050417  )
        99           O   tau(  99) = (   0.0200847   0.1353504   0.3952413  )
       100           O   tau( 100) = (   0.2588616   0.8639860   0.8046490  )
       101           O   tau( 101) = (   0.6158110   0.3481839   0.3145586  )
       102           O   tau( 102) = (   0.8551690   0.6519036   0.7240468  )
       103           O   tau( 103) = (   0.8707656   0.1477170   0.3098797  )
       104           O   tau( 104) = (   0.6091506   0.8535652   0.7199135  )
       105           O   tau( 105) = (   0.9642788   0.3566669   0.3968154  )
       106           O   tau( 106) = (   0.7033039   0.6423280   0.8050417  )
       107           O   tau( 107) = (   0.5200847   0.1353504   0.3952413  )
       108           O   tau( 108) = (   0.7588616   0.8639860   0.8046490  )

     number of k points=     1  Marzari-Vanderbilt smearing, width (Ry)=  0.2000
                       cart. coord. in units 2pi/alat
        k(    1) = (   0.0000000   0.0000000   0.0000000), wk =   1.0000000

     Dense  grid:   733509 G-vectors     FFT dimensions: ( 160, 160, 125)

     Estimated max dynamical RAM per process >     334.55 MB

     Estimated total dynamical RAM >      10.45 GB
     Generating pointlists ...
     new r_m :   0.0358 (alat units)  0.8462 (a.u.) for type    1
     new r_m :   0.0446 (alat units)  1.0544 (a.u.) for type    2
     new r_m :   0.0358 (alat units)  0.8462 (a.u.) for type    3
     new r_m :   0.0445 (alat units)  1.0514 (a.u.) for type    4
     new r_m :   0.0654 (alat units)  1.5454 (a.u.) for type    5
     new r_m :   0.0423 (alat units)  0.9991 (a.u.) for type    6

     Check: negative core charge=   -0.000145

     Initial potential from superposition of free atoms

     starting charge  447.99678, renormalised to  448.00000
     Starting wfcs are  380 randomized atomic wfcs

     total cpu time spent up to now is       42.9 secs

     Self-consistent Calculation

     iteration #  1     ecut=   100.00 Ry     beta= 0.70
     Davidson diagonalization with overlap
     ethr =  1.00E-02,  avg # of iterations =  4.0

     total cpu time spent up to now is      152.0 secs

     total energy              =   -1994.75329253 Ry
     Harris-Foulkes estimate   =   -2002.06844187 Ry
     estimated scf accuracy    <      18.32631050 Ry

     total magnetization       =     8.00 Bohr mag/cell
     absolute magnetization    =     8.67 Bohr mag/cell

     iteration #  2     ecut=   100.00 Ry     beta= 0.70
     Davidson diagonalization with overlap
     ethr =  4.09E-03,  avg # of iterations =  2.0

     total cpu time spent up to now is      222.1 secs

     total energy              =   -1997.77672847 Ry
     Harris-Foulkes estimate   =   -2001.49575390 Ry
     estimated scf accuracy    <      18.74969649 Ry

     total magnetization       =     8.00 Bohr mag/cell
     absolute magnetization    =     8.36 Bohr mag/cell

     iteration #  3     ecut=   100.00 Ry     beta= 0.70
     Davidson diagonalization with overlap
     ethr =  4.09E-03,  avg # of iterations =  1.0

     total cpu time spent up to now is      283.2 secs

     total energy              =   -1997.68256683 Ry
     Harris-Foulkes estimate   =   -1998.56664438 Ry
     estimated scf accuracy    <       2.77932994 Ry

     total magnetization       =     8.00 Bohr mag/cell
     absolute magnetization    =     8.23 Bohr mag/cell

     iteration #  4     ecut=   100.00 Ry     beta= 0.70
     Davidson diagonalization with overlap
     ethr =  6.20E-04,  avg # of iterations =  6.0

     total cpu time spent up to now is      364.3 secs

     total energy              =   -1997.65438968 Ry
     Harris-Foulkes estimate   =   -1998.54476746 Ry
     estimated scf accuracy    <       7.48483863 Ry

     total magnetization       =     8.00 Bohr mag/cell
     absolute magnetization    =     8.30 Bohr mag/cell

     iteration #  5     ecut=   100.00 Ry     beta= 0.70
     Davidson diagonalization with overlap
     ethr =  6.20E-04,  avg # of iterations =  2.0

     total cpu time spent up to now is      426.8 secs

     total energy              =   -1998.02754924 Ry
     Harris-Foulkes estimate   =   -1998.08964146 Ry
     estimated scf accuracy    <       0.31478811 Ry

     total magnetization       =     8.00 Bohr mag/cell
     absolute magnetization    =     8.28 Bohr mag/cell

     iteration #  6     ecut=   100.00 Ry     beta= 0.70
     Davidson diagonalization with overlap
     ethr =  7.03E-05,  avg # of iterations =  4.5

     total cpu time spent up to now is      494.9 secs

     total energy              =   -1998.02939745 Ry
     Harris-Foulkes estimate   =   -1998.09083082 Ry
     estimated scf accuracy    <       1.13316662 Ry

     total magnetization       =     8.00 Bohr mag/cell
     absolute magnetization    =     8.28 Bohr mag/cell

     iteration #  7     ecut=   100.00 Ry     beta= 0.70
     Davidson diagonalization with overlap
     ethr =  7.03E-05,  avg # of iterations =  1.0

     total cpu time spent up to now is      557.0 secs

     total energy              =   -1997.95061679 Ry
     Harris-Foulkes estimate   =   -1998.05652643 Ry
     estimated scf accuracy    <       0.60813249 Ry

     total magnetization       =     8.00 Bohr mag/cell
     absolute magnetization    =     8.28 Bohr mag/cell

     iteration #  8     ecut=   100.00 Ry     beta= 0.70
     Davidson diagonalization with overlap
     ethr =  7.03E-05,  avg # of iterations =  3.0

     total cpu time spent up to now is      619.9 secs

     total energy              =   -1997.99920814 Ry
     Harris-Foulkes estimate   =   -1998.01693501 Ry
     estimated scf accuracy    <       0.18074276 Ry

     total magnetization       =     8.00 Bohr mag/cell
     absolute magnetization    =     8.29 Bohr mag/cell

     iteration #  9     ecut=   100.00 Ry     beta= 0.70
     Davidson diagonalization with overlap
     ethr =  4.03E-05,  avg # of iterations =  4.0

     total cpu time spent up to now is      683.7 secs

     total energy              =   -1998.00552324 Ry
     Harris-Foulkes estimate   =   -1998.01193798 Ry
     estimated scf accuracy    <       0.10947122 Ry

     total magnetization       =     8.00 Bohr mag/cell
     absolute magnetization    =     8.28 Bohr mag/cell

     iteration # 10     ecut=   100.00 Ry     beta= 0.70
     Davidson diagonalization with overlap
     c_bands:  1 eigenvalues not converged
     ethr =  2.44E-05,  avg # of iterations = 10.5

     total cpu time spent up to now is      761.2 secs

     total energy              =   -1998.01098987 Ry
     Harris-Foulkes estimate   =   -1998.01207567 Ry
     estimated scf accuracy    <       0.04891670 Ry

     total magnetization       =     8.00 Bohr mag/cell
     absolute magnetization    =     8.27 Bohr mag/cell

     iteration # 11     ecut=   100.00 Ry     beta= 0.70
     Davidson diagonalization with overlap
     ethr =  1.09E-05,  avg # of iterations = 14.0

     total cpu time spent up to now is      839.7 secs

     total energy              =   -1998.01512991 Ry
     Harris-Foulkes estimate   =   -1998.01367750 Ry
     estimated scf accuracy    <       0.00468709 Ry

     total magnetization       =     8.00 Bohr mag/cell
     absolute magnetization    =     8.26 Bohr mag/cell

     iteration # 12     ecut=   100.00 Ry     beta= 0.70
     Davidson diagonalization with overlap
     ethr =  1.05E-06,  avg # of iterations =  7.0

     total cpu time spent up to now is      917.5 secs

     total energy              =   -1998.01576322 Ry
     Harris-Foulkes estimate   =   -1998.01546334 Ry
     estimated scf accuracy    <       0.00231743 Ry

     total magnetization       =     8.00 Bohr mag/cell
     absolute magnetization    =     8.26 Bohr mag/cell

     iteration # 13     ecut=   100.00 Ry     beta= 0.70
     Davidson diagonalization with overlap
     ethr =  5.17E-07,  avg # of iterations =  2.5

     total cpu time spent up to now is      979.7 secs

     total energy              =   -1998.01615029 Ry
     Harris-Foulkes estimate   =   -1998.01614657 Ry
     estimated scf accuracy    <       0.00578673 Ry

     total magnetization       =     8.00 Bohr mag/cell
     absolute magnetization    =     8.26 Bohr mag/cell

     iteration # 14     ecut=   100.00 Ry     beta= 0.70
     Davidson diagonalization with overlap
     ethr =  5.17E-07,  avg # of iterations =  2.5

     total cpu time spent up to now is     1042.1 secs

     total energy              =   -1998.01667184 Ry
     Harris-Foulkes estimate   =   -1998.01638465 Ry
     estimated scf accuracy    <       0.00045761 Ry

     total magnetization       =     8.00 Bohr mag/cell
     absolute magnetization    =     8.25 Bohr mag/cell

     iteration # 15     ecut=   100.00 Ry     beta= 0.70
     Davidson diagonalization with overlap
     ethr =  1.02E-07,  avg # of iterations =  4.0

     total cpu time spent up to now is     1107.9 secs

     total energy              =   -1998.01674007 Ry
     Harris-Foulkes estimate   =   -1998.01670378 Ry
     estimated scf accuracy    <       0.00015536 Ry

     total magnetization       =     8.00 Bohr mag/cell
     absolute magnetization    =     8.25 Bohr mag/cell

     iteration # 16     ecut=   100.00 Ry     beta= 0.70
     Davidson diagonalization with overlap
     ethr =  3.47E-08,  avg # of iterations =  2.5

     total cpu time spent up to now is     1170.6 secs

     total energy              =   -1998.01675098 Ry
     Harris-Foulkes estimate   =   -1998.01675560 Ry
     estimated scf accuracy    <       0.00012348 Ry

     total magnetization       =     8.00 Bohr mag/cell
     absolute magnetization    =     8.25 Bohr mag/cell

     iteration # 17     ecut=   100.00 Ry     beta= 0.70
     Davidson diagonalization with overlap
     ethr =  2.76E-08,  avg # of iterations =  1.5

     total cpu time spent up to now is     1231.8 secs

     total energy              =   -1998.01676421 Ry
     Harris-Foulkes estimate   =   -1998.01675992 Ry
     estimated scf accuracy    <       0.00006937 Ry

     total magnetization       =     8.00 Bohr mag/cell
     absolute magnetization    =     8.25 Bohr mag/cell

     iteration # 18     ecut=   100.00 Ry     beta= 0.70
     Davidson diagonalization with overlap
     ethr =  1.55E-08,  avg # of iterations =  2.0

     total cpu time spent up to now is     1293.3 secs

     total energy              =   -1998.01676893 Ry
     Harris-Foulkes estimate   =   -1998.01676694 Ry
     estimated scf accuracy    <       0.00002263 Ry

     total magnetization       =     8.00 Bohr mag/cell
     absolute magnetization    =     8.26 Bohr mag/cell

     iteration # 19     ecut=   100.00 Ry     beta= 0.70
     Davidson diagonalization with overlap
     ethr =  5.05E-09,  avg # of iterations =  3.0

     total cpu time spent up to now is     1356.6 secs

     total energy              =   -1998.01676852 Ry
     Harris-Foulkes estimate   =   -1998.01677127 Ry
     estimated scf accuracy    <       0.00003737 Ry

     total magnetization       =     8.00 Bohr mag/cell
     absolute magnetization    =     8.26 Bohr mag/cell

     iteration # 20     ecut=   100.00 Ry     beta= 0.70
     Davidson diagonalization with overlap
     ethr =  5.05E-09,  avg # of iterations =  2.0

     total cpu time spent up to now is     1417.7 secs

     total energy              =   -1998.01677039 Ry
     Harris-Foulkes estimate   =   -1998.01677057 Ry
     estimated scf accuracy    <       0.00000942 Ry

     total magnetization       =     8.00 Bohr mag/cell
     absolute magnetization    =     8.26 Bohr mag/cell

     iteration # 21     ecut=   100.00 Ry     beta= 0.70
     Davidson diagonalization with overlap
     ethr =  2.10E-09,  avg # of iterations =  1.5

     total cpu time spent up to now is     1477.8 secs

     total energy              =   -1998.01677194 Ry
     Harris-Foulkes estimate   =   -1998.01677128 Ry
     estimated scf accuracy    <       0.00000664 Ry

     total magnetization       =     8.00 Bohr mag/cell
     absolute magnetization    =     8.26 Bohr mag/cell

     iteration # 22     ecut=   100.00 Ry     beta= 0.70
     Davidson diagonalization with overlap
     ethr =  1.48E-09,  avg # of iterations =  2.5

     total cpu time spent up to now is     1538.6 secs

     total energy              =   -1998.01677232 Ry
     Harris-Foulkes estimate   =   -1998.01677226 Ry
     estimated scf accuracy    <       0.00000166 Ry

     total magnetization       =     8.00 Bohr mag/cell
     absolute magnetization    =     8.26 Bohr mag/cell

     iteration # 23     ecut=   100.00 Ry     beta= 0.70
     Davidson diagonalization with overlap
     ethr =  3.70E-10,  avg # of iterations =  3.0

     total cpu time spent up to now is     1602.2 secs

     total energy              =   -1998.01677233 Ry
     Harris-Foulkes estimate   =   -1998.01677252 Ry
     estimated scf accuracy    <       0.00000331 Ry

     total magnetization       =     8.00 Bohr mag/cell
     absolute magnetization    =     8.26 Bohr mag/cell

     iteration # 24     ecut=   100.00 Ry     beta= 0.70
     Davidson diagonalization with overlap
     ethr =  3.70E-10,  avg # of iterations =  1.5

     total cpu time spent up to now is     1663.1 secs

     total energy              =   -1998.01677244 Ry
     Harris-Foulkes estimate   =   -1998.01677248 Ry
     estimated scf accuracy    <       0.00000105 Ry

     total magnetization       =     8.00 Bohr mag/cell
     absolute magnetization    =     8.26 Bohr mag/cell

     iteration # 25     ecut=   100.00 Ry     beta= 0.70
     Davidson diagonalization with overlap
     ethr =  2.34E-10,  avg # of iterations =  1.5
 
     Magnetic moment per site:
     atom:    1    charge:    0.8446    magn:    0.0053    constr:    0.0000
     atom:    2    charge:    0.8141    magn:    0.0056    constr:    0.0000
     atom:    3    charge:    0.8506    magn:    0.0059    constr:    0.0000
     atom:    4    charge:    0.8503    magn:    0.0057    constr:    0.0000
     atom:    5    charge:    0.8136    magn:    0.0058    constr:    0.0000
     atom:    6    charge:    0.8463    magn:    0.0053    constr:    0.0000
     atom:    7    charge:    0.8148    magn:    0.0053    constr:    0.0000
     atom:    8    charge:    0.8449    magn:    0.0055    constr:    0.0000
     atom:    9    charge:    0.8425    magn:    0.0075    constr:    0.0000
     atom:   10    charge:    0.8368    magn:    0.0063    constr:    0.0000
     atom:   11    charge:    0.8380    magn:    0.0062    constr:    0.0000
     atom:   12    charge:    0.8421    magn:    0.0074    constr:    0.0000
     atom:   13    charge:    0.8443    magn:    0.0078    constr:    0.0000
     atom:   14    charge:    0.8397    magn:    0.0060    constr:    0.0000
     atom:   15    charge:    0.8398    magn:    0.0060    constr:    0.0000
     atom:   16    charge:    0.8436    magn:    0.0077    constr:    0.0000
     atom:   17    charge:    0.8453    magn:    0.0052    constr:    0.0000
     atom:   18    charge:    0.8135    magn:    0.0058    constr:    0.0000
     atom:   19    charge:    0.8525    magn:    0.0058    constr:    0.0000
     atom:   20    charge:    0.8502    magn:    0.0059    constr:    0.0000
     atom:   21    charge:    0.8219    magn:   -0.0023    constr:    0.0000
     atom:   22    charge:    0.8225    magn:   -0.0023    constr:    0.0000
     atom:   23    charge:    0.8223    magn:   -0.0022    constr:    0.0000
     atom:   24    charge:    0.8230    magn:   -0.0023    constr:    0.0000
     atom:   25    charge:    0.8134    magn:    0.0059    constr:    0.0000
     atom:   26    charge:    0.8136    magn:    0.0056    constr:    0.0000
     atom:   27    charge:    0.8508    magn:    0.0057    constr:    0.0000
     atom:   28    charge:    0.8501    magn:    0.0059    constr:    0.0000
     atom:   29    charge:    0.8447    magn:    0.0061    constr:    0.0000
     atom:   30    charge:    0.8460    magn:    0.0061    constr:    0.0000
     atom:   31    charge:    0.8148    magn:    0.0053    constr:    0.0000
     atom:   32    charge:    0.8450    magn:    0.0055    constr:    0.0000
     atom:   33    charge:    0.8425    magn:    0.0075    constr:    0.0000
     atom:   34    charge:    0.8368    magn:    0.0063    constr:    0.0000
     atom:   35    charge:    0.8416    magn:    0.0077    constr:    0.0000
     atom:   36    charge:    0.8421    magn:    0.0077    constr:    0.0000
     atom:   37    charge:    0.8402    magn:    0.0066    constr:    0.0000
     atom:   38    charge:    0.8395    magn:    0.0066    constr:    0.0000
     atom:   39    charge:    0.8399    magn:    0.0060    constr:    0.0000
     atom:   40    charge:    0.8435    magn:    0.0077    constr:    0.0000
     atom:   41    charge:    0.8453    magn:    0.0052    constr:    0.0000
     atom:   42    charge:    0.8135    magn:    0.0058    constr:    0.0000
     atom:   43    charge:    0.8525    magn:    0.0058    constr:    0.0000
     atom:   44    charge:    0.8502    magn:    0.0060    constr:    0.0000
     atom:   45    charge:    0.8216    magn:   -0.0021    constr:    0.0000
     atom:   46    charge:    0.8225    magn:   -0.0024    constr:    0.0000
     atom:   47    charge:    0.8223    magn:   -0.0023    constr:    0.0000
     atom:   48    charge:    0.8231    magn:   -0.0023    constr:    0.0000
     atom:   49    charge:    4.6935    magn:    0.0121    constr:    0.0000
     atom:   50    charge:    4.6984    magn:    0.0081    constr:    0.0000
     atom:   51    charge:    4.6989    magn:    0.0089    constr:    0.0000
     atom:   52    charge:    4.6950    magn:    0.0120    constr:    0.0000
     atom:   53    charge:    4.6991    magn:    0.0088    constr:    0.0000
     atom:   54    charge:    4.6989    magn:    0.0089    constr:    0.0000
     atom:   55    charge:    4.6989    magn:    0.0090    constr:    0.0000
     atom:   56    charge:    4.6950    magn:    0.0120    constr:    0.0000
     atom:   57    charge:    0.4858    magn:   -0.0013    constr:    0.0000
     atom:   58    charge:    0.4852    magn:   -0.0013    constr:    0.0000
     atom:   59    charge:    0.4852    magn:   -0.0014    constr:    0.0000
     atom:   60    charge:    0.4860    magn:   -0.0014    constr:    0.0000
     atom:   61    charge:    0.4848    magn:   -0.0011    constr:    0.0000
     atom:   62    charge:    0.4917    magn:   -0.0012    constr:    0.0000
     atom:   63    charge:    0.4911    magn:   -0.0012    constr:    0.0000
     atom:   64    charge:    0.4854    magn:   -0.0010    constr:    0.0000
     atom:   65    charge:    0.4820    magn:   -0.0007    constr:    0.0000
     atom:   66    charge:    0.4874    magn:   -0.0009    constr:    0.0000
     atom:   67    charge:    0.4872    magn:   -0.0010    constr:    0.0000
     atom:   68    charge:    0.4812    magn:   -0.0008    constr:    0.0000
     atom:   69    charge:    0.4851    magn:   -0.0014    constr:    0.0000
     atom:   70    charge:    0.4857    magn:   -0.0014    constr:    0.0000
     atom:   71    charge:    0.4860    magn:   -0.0014    constr:    0.0000
     atom:   72    charge:    0.4848    magn:   -0.0011    constr:    0.0000
     atom:   73    charge:    0.4917    magn:   -0.0012    constr:    0.0000
     atom:   74    charge:    0.4851    magn:   -0.0011    constr:    0.0000
     atom:   75    charge:    0.4851    magn:   -0.0010    constr:    0.0000
     atom:   76    charge:    0.4884    magn:   -0.0006    constr:    0.0000
     atom:   77    charge:    0.4878    magn:   -0.0005    constr:    0.0000
     atom:   78    charge:    0.4873    magn:   -0.0010    constr:    0.0000
     atom:   79    charge:    0.4812    magn:   -0.0008    constr:    0.0000
     atom:   80    charge:    0.4851    magn:   -0.0014    constr:    0.0000
     atom:   81    charge:    2.4460    magn:    0.0131    constr:    0.0000
     atom:   82    charge:    2.4456    magn:    0.0136    constr:    0.0000
     atom:   83    charge:    2.4488    magn:    0.0131    constr:    0.0000
     atom:   84    charge:    2.4458    magn:    0.0131    constr:    0.0000
     atom:   85    charge:    2.4460    magn:    0.0133    constr:    0.0000
     atom:   86    charge:    2.4456    magn:    0.0134    constr:    0.0000
     atom:   87    charge:    2.4488    magn:    0.0131    constr:    0.0000
     atom:   88    charge:    2.4458    magn:    0.0130    constr:    0.0000
     atom:   89    charge:    7.4313    magn:    1.1396    constr:    0.0000
     atom:   90    charge:    7.4298    magn:    1.1380    constr:    0.0000
     atom:   91    charge:    7.4313    magn:    1.1394    constr:    0.0000
     atom:   92    charge:    7.4300    magn:    1.1366    constr:    0.0000
     atom:   93    charge:    3.2559    magn:    0.0647    constr:    0.0000
     atom:   94    charge:    3.2571    magn:    0.0629    constr:    0.0000
     atom:   95    charge:    3.2589    magn:    0.0620    constr:    0.0000
     atom:   96    charge:    3.2544    magn:    0.0639    constr:    0.0000
     atom:   97    charge:    3.2544    magn:    0.0644    constr:    0.0000
     atom:   98    charge:    3.2544    magn:    0.0662    constr:    0.0000
     atom:   99    charge:    3.2576    magn:    0.0637    constr:    0.0000
     atom:  100    charge:    3.2541    magn:    0.0651    constr:    0.0000
     atom:  101    charge:    3.2555    magn:    0.0651    constr:    0.0000
     atom:  102    charge:    3.2569    magn:    0.0631    constr:    0.0000
     atom:  103    charge:    3.2575    magn:    0.0632    constr:    0.0000
     atom:  104    charge:    3.2532    magn:    0.0663    constr:    0.0000
     atom:  105    charge:    3.2545    magn:    0.0641    constr:    0.0000
     atom:  106    charge:    3.2543    magn:    0.0664    constr:    0.0000
     atom:  107    charge:    3.2541    magn:    0.0683    constr:    0.0000
     atom:  108    charge:    3.2535    magn:    0.0662    constr:    0.0000

     total cpu time spent up to now is     1722.8 secs

     End of self-consistent calculation

 ------ SPIN UP ------------


          k = 0.0000 0.0000 0.0000 ( 91663 PWs)   bands (ev):

   -25.1073 -25.0818 -25.0771 -25.0746 -25.0696 -24.9037 -24.8969 -24.8938
   -22.2616 -22.2583 -22.2573 -22.2499 -22.1331 -22.1328 -22.1291 -22.1235
   -19.2273 -19.2232 -19.2207 -19.2170 -19.2146 -19.2084 -19.2053 -19.1925
   -19.0930 -19.0868 -19.0619 -19.0323 -18.9773 -18.9597 -18.9514 -18.9331
   -15.3860 -15.3578 -15.3355 -15.3279 -15.3057 -15.2993 -15.2930 -15.2778
   -14.0490 -14.0285 -14.0117 -13.9897 -13.9200 -13.9173 -13.8780 -13.8426
   -11.7630 -11.6721 -11.6481 -11.6126 -11.5838 -11.5584 -11.5490 -11.5256
   -10.8975 -10.8811 -10.8713 -10.8285 -10.7913 -10.7779 -10.7562 -10.7499
    -9.4998  -9.2942  -9.2756  -9.2220  -9.0737  -8.9820  -8.9357  -8.8546
    -8.2496  -8.1749  -8.1358  -8.1137  -8.0772  -8.0563  -7.9700  -7.9259
    -7.7956  -7.7298  -7.7151  -7.6761  -7.6274  -7.6003  -7.5819  -7.5589
    -7.5316  -7.3515  -7.2900  -7.2179  -7.0505  -7.0096  -6.9202  -6.8457
    -6.6259  -6.6059  -6.5748  -6.5570  -6.5503  -6.5323  -6.5016  -6.4882
    -6.4554  -6.4292  -6.3883  -6.3290  -6.2453  -6.2272  -6.2145  -6.1693
    -6.1571  -6.1349  -6.1312  -6.0998  -6.0831  -6.0346  -6.0260  -5.9776
    -5.9599  -5.8579  -5.7623  -5.7352  -5.6864  -5.6565  -5.6275  -5.5630
    -5.5564  -5.5320  -5.5194  -5.4896  -5.4759  -5.4377  -5.4018  -5.3749
    -4.9020  -4.8677  -4.8191  -4.7916  -4.7305  -4.7206  -4.6238  -4.6171
    -4.5776  -4.5571  -4.5551  -4.5213  -4.4590  -4.4087  -4.4062  -4.3929
    -4.3335  -4.3120  -4.2676  -4.2223  -4.0956  -4.0241  -3.9428  -3.9045
    -3.8700  -3.8347  -3.7820  -3.6612  -3.6374  -3.5397  -3.4547  -3.4431
    -3.2161  -3.1800  -3.1697  -3.0987  -3.0428  -2.9970  -2.9388  -2.9318
    -2.9115  -2.8681  -2.8641  -2.8439  -2.8062  -2.7768  -2.7204  -2.7011
    -2.5822  -2.5763  -2.5147  -2.3836  -2.3135  -2.2711  -2.2282  -2.2067
    -2.1972  -2.1224  -2.0778  -2.0547  -2.0312  -2.0162  -1.9971  -1.9915
    -1.9549  -1.8915  -1.8719  -1.8440  -1.8280  -1.8213  -1.8008  -1.7539
    -1.7003  -1.6562  -1.6419  -1.5959  -1.4505  -1.4231  -1.4113  -1.3788
    -1.3429  -1.3116  -1.2579  -1.1796  -0.0455   0.0235   0.0372   0.0995
     0.2785   0.2886   0.3108   0.3791   2.0802   2.1295   2.1614   2.1770
     2.1839   2.2024   2.2605   2.3112   3.3560   3.3711   3.4082   3.4527
     3.5565   3.6561   3.6843   3.7236   3.9038   4.5393   4.5978   4.6694
     4.7049   4.7275   4.7558   4.8273   4.8508   4.8936   4.9119   4.9915
     5.3283   5.3763   5.5111   5.5559   5.6761   5.7603   5.9018   5.9256
     5.9975   6.0570   6.1286   6.3607   6.5422   6.5975   6.7340   6.7986
     6.8360   6.8769

 ------ SPIN DOWN ----------


          k = 0.0000 0.0000 0.0000 ( 91663 PWs)   bands (ev):

   -25.0909 -25.0630 -25.0585 -25.0559 -25.0517 -24.8803 -24.8736 -24.8704
   -22.1429 -22.1384 -22.1370 -22.1286 -22.0150 -22.0139 -22.0095 -22.0026
   -19.0784 -19.0736 -19.0682 -19.0676 -19.0620 -19.0576 -19.0538 -19.0464
   -19.0437 -19.0320 -19.0214 -18.9934 -18.9388 -18.9208 -18.9129 -18.8946
   -15.3448 -15.3166 -15.2947 -15.2864 -15.2640 -15.2576 -15.2513 -15.2354
   -14.0055 -13.9840 -13.9677 -13.9447 -13.8743 -13.8717 -13.8322 -13.7959
   -11.7153 -11.6252 -11.6008 -11.5688 -11.5385 -11.5131 -11.5029 -11.4784
   -10.8675 -10.8511 -10.8414 -10.7975 -10.7601 -10.7468 -10.7255 -10.7190
    -9.4676  -9.2630  -9.2426  -9.1907  -9.0389  -8.9482  -8.8989  -8.8185
    -8.2085  -8.1379  -8.1036  -8.0797  -8.0472  -8.0167  -7.9307  -7.8863
    -7.7581  -7.6899  -7.6680  -7.6303  -7.5809  -7.5520  -7.5367  -7.5076
    -7.4827  -7.2761  -7.2370  -7.1660  -6.9797  -6.9389  -6.8457  -6.7713
    -6.5295  -6.4980  -6.4669  -6.4636  -6.4477  -6.4346  -6.4019  -6.3819
    -6.3608  -6.3307  -6.2546  -6.2159  -6.1611  -6.1483  -6.1230  -6.0507
    -6.0418  -6.0172  -6.0001  -5.9875  -5.9689  -5.9391  -5.9033  -5.8737
    -5.8374  -5.7953  -5.7217  -5.6722  -5.5997  -5.5734  -5.5520  -5.5139
    -5.4976  -5.4726  -5.4530  -5.4111  -5.3948  -5.3683  -5.3453  -5.2963
    -4.8258  -4.7861  -4.7464  -4.7327  -4.6734  -4.6622  -4.5644  -4.5581
    -4.5286  -4.5002  -4.4937  -4.4819  -4.3530  -4.3455  -4.3156  -4.2720
    -4.2643  -4.0549  -4.0299  -3.9158  -3.8969  -3.8560  -3.7986  -3.7600
    -3.7375  -3.7081  -3.5696  -3.4685  -3.4172  -3.2982  -3.2402  -3.1711
    -2.9469  -2.9269  -2.8189  -2.7343  -2.7162  -2.6986  -2.5767  -2.5028
    -2.4903  -2.4576  -2.4236  -2.4061  -2.3793  -2.3575  -2.3314  -2.3125
    -2.2850  -2.2299  -2.2060  -2.1017  -2.0476  -2.0194  -1.9900  -1.9354
    -1.8993  -1.8802  -1.8233  -1.7766  -1.7401  -1.6465  -1.5337  -1.5251
    -1.3965  -1.3751  -1.3492  -1.3322  -1.3199  -1.2800  -1.2400  -1.2145
    -1.1114  -1.1046  -1.1020  -0.9937  -0.9904  -0.9879  -0.9749  -0.9630
    -0.9397  -0.8879  -0.8696  -0.8399   0.7515   0.8092   0.8200   0.8636
     1.0010   1.0188   1.0431   1.0909   2.1920   2.2500   2.2791   2.2967
     2.2991   2.3285   2.3797   2.4201   3.4478   3.4636   3.4998   3.5469
     3.6519   3.7532   3.7828   3.8229   3.9382   4.5951   4.6383   4.7155
     4.7789   4.8059   4.8355   4.9040   4.9363   4.9734   5.0003   5.0593
     5.3637   5.4114   5.5486   5.5973   5.7098   5.7930   5.9412   5.9568
     6.0338   6.0920   6.1631   6.4047   6.5820   6.6365   6.7662   6.8362
     6.8744   6.9091

     the spin up/dw Fermi energies are     0.5233    0.1679 ev

!    total energy              =   -1998.01677228 Ry
     Harris-Foulkes estimate   =   -1998.01677248 Ry
     estimated scf accuracy    <       0.00000043 Ry

     The total energy is the sum of the following terms:

     one-electron contribution =   -2789.87197635 Ry
     hartree contribution      =    1561.66626518 Ry
     xc contribution           =    -560.26322459 Ry
     ewald contribution        =    -212.03028051 Ry
     Dispersion Correction     =      -0.44876570 Ry
     smearing contrib. (-TS)   =       2.93120969 Ry

     total magnetization       =     8.00 Bohr mag/cell
     absolute magnetization    =     8.26 Bohr mag/cell

     convergence has been achieved in  25 iterations

     Forces acting on atoms (cartesian axes, Ry/au):

     atom    1 type  1   force =     0.00900497   -0.00742472    0.01581385
     atom    2 type  1   force =    -0.03349514   -0.01370159   -0.04007444
     atom    3 type  1   force =    -0.00078613    0.02632896   -0.02874552
     atom    4 type  1   force =     0.02552162   -0.02646827   -0.01083143
     atom    5 type  1   force =     0.06351614    0.01938767    0.01250873
     atom    6 type  1   force =    -0.02150871    0.01137571   -0.00504949
     atom    7 type  1   force =     0.03729424   -0.01530878   -0.04392714
     atom    8 type  1   force =    -0.01060359   -0.00602100    0.01430044
     atom    9 type  1   force =     0.00915441    0.01538479    0.01397127
     atom   10 type  1   force =     0.00713141    0.00026517   -0.00335366
     atom   11 type  1   force =    -0.00569895    0.00464818   -0.00452328
     atom   12 type  1   force =    -0.01036080    0.01419433    0.01374127
     atom   13 type  1   force =    -0.00713667   -0.03474596    0.01707545
     atom   14 type  1   force =     0.01051756   -0.00190168    0.00366632
     atom   15 type  1   force =    -0.01125365   -0.00290582    0.00295953
     atom   16 type  1   force =     0.00463394   -0.03316338    0.01799784
     atom   17 type  1   force =     0.02135158    0.01059522   -0.00520548
     atom   18 type  1   force =    -0.06296095    0.02327154    0.01129029
     atom   19 type  1   force =    -0.02547038   -0.02757947   -0.01114512
     atom   20 type  1   force =     0.00317678    0.02562108   -0.02906594
     atom   21 type  1   force =     0.00798724    0.00220125    0.00472217
     atom   22 type  1   force =    -0.00462433   -0.00241010   -0.00359884
     atom   23 type  1   force =     0.00714765   -0.00080381   -0.00622937
     atom   24 type  1   force =    -0.00600892    0.00141741    0.00431580
     atom   25 type  1   force =    -0.03550492    0.01696667   -0.04296610
     atom   26 type  1   force =    -0.03611244   -0.01595952   -0.04545564
     atom   27 type  1   force =     0.02516544    0.02490603   -0.00977895
     atom   28 type  1   force =     0.02652485   -0.02538127   -0.00933553
     atom   29 type  1   force =    -0.01804993   -0.00697998   -0.01219256
     atom   30 type  1   force =    -0.01974139    0.00724729   -0.01260467
     atom   31 type  1   force =     0.03731524   -0.01544486   -0.04403685
     atom   32 type  1   force =    -0.01057937   -0.00609315    0.01433124
     atom   33 type  1   force =     0.00925618    0.01527877    0.01380812
     atom   34 type  1   force =     0.00687409    0.00037594   -0.00338263
     atom   35 type  1   force =    -0.01463363   -0.01903558    0.01501006
     atom   36 type  1   force =    -0.01218835    0.01510264    0.01479248
     atom   37 type  1   force =     0.00659800   -0.01619456    0.00359502
     atom   38 type  1   force =     0.00689618    0.01765760    0.00211421
     atom   39 type  1   force =    -0.01137532   -0.00309015    0.00274785
     atom   40 type  1   force =     0.00462285   -0.03328367    0.01821753
     atom   41 type  1   force =     0.02133671    0.01065089   -0.00517176
     atom   42 type  1   force =    -0.06315501    0.02335984    0.01128504
     atom   43 type  1   force =    -0.02547850   -0.02755167   -0.01107390
     atom   44 type  1   force =     0.00319241    0.02562094   -0.02904104
     atom   45 type  1   force =    -0.00676209    0.00308765   -0.00420290
     atom   46 type  1   force =    -0.00652639   -0.00160437   -0.00517152
     atom   47 type  1   force =     0.00760348   -0.00103464   -0.00635383
     atom   48 type  1   force =    -0.00583657    0.00139555    0.00418576
     atom   49 type  2   force =    -0.08312694   -0.03182899   -0.01971456
     atom   50 type  2   force =     0.04509462    0.04378611    0.07647040
     atom   51 type  2   force =    -0.04597941    0.04217987    0.08004366
     atom   52 type  2   force =     0.08104867   -0.03520761   -0.01906809
     atom   53 type  2   force =     0.04695710   -0.04794300    0.08064618
     atom   54 type  2   force =     0.04432715    0.04395452    0.08298828
     atom   55 type  2   force =    -0.04607876    0.04225493    0.08015981
     atom   56 type  2   force =     0.08126467   -0.03527810   -0.01913094
     atom   57 type  3   force =     0.00208802    0.00285172   -0.00131293
     atom   58 type  3   force =    -0.00283664    0.00207385   -0.00269222
     atom   59 type  3   force =    -0.00018107   -0.00321244   -0.00400648
     atom   60 type  3   force =    -0.00183663    0.00306475   -0.00067116
     atom   61 type  3   force =     0.00272419   -0.00267069   -0.00387199
     atom   62 type  3   force =    -0.00319081    0.00151289    0.00187873
     atom   63 type  3   force =     0.00065674    0.00047796    0.00069140
     atom   64 type  3   force =    -0.00313294   -0.00339031   -0.00491327
     atom   65 type  3   force =     0.00158918    0.00215848   -0.00712182
     atom   66 type  3   force =    -0.00277297   -0.00056308   -0.00143877
     atom   67 type  3   force =     0.00281052   -0.00000608   -0.00093314
     atom   68 type  3   force =    -0.00204061    0.00330995   -0.00669544
     atom   69 type  3   force =    -0.00016485   -0.00310830   -0.00463799
     atom   70 type  3   force =    -0.00272322   -0.00227160   -0.00331878
     atom   71 type  3   force =    -0.00184775    0.00301306   -0.00063851
     atom   72 type  3   force =     0.00275141   -0.00266329   -0.00379488
     atom   73 type  3   force =    -0.00328920    0.00149470    0.00186854
     atom   74 type  3   force =    -0.00075559    0.00472615   -0.00459078
     atom   75 type  3   force =    -0.00306455   -0.00333399   -0.00451889
     atom   76 type  3   force =    -0.00550772   -0.00034435   -0.00921744
     atom   77 type  3   force =    -0.00667137    0.00058986   -0.01112693
     atom   78 type  3   force =     0.00283482   -0.00008143   -0.00082228
     atom   79 type  3   force =    -0.00205815    0.00317323   -0.00676254
     atom   80 type  3   force =    -0.00019977   -0.00309419   -0.00464181
     atom   81 type  4   force =     0.01426226    0.00632156   -0.00213673
     atom   82 type  4   force =    -0.00593481   -0.00306871   -0.01063120
     atom   83 type  4   force =     0.00434837   -0.00344503   -0.01185546
     atom   84 type  4   force =    -0.01396665    0.00758568   -0.00493900
     atom   85 type  4   force =    -0.00220551    0.00770026   -0.01454336
     atom   86 type  4   force =    -0.00284981   -0.00657307   -0.01321982
     atom   87 type  4   force =     0.00432591   -0.00314875   -0.01183194
     atom   88 type  4   force =    -0.01390612    0.00747285   -0.00479039
     atom   89 type  5   force =     0.01113596   -0.00007097    0.00607461
     atom   90 type  5   force =     0.00158703   -0.00022458    0.00355248
     atom   91 type  5   force =     0.01076855    0.00132088    0.00539025
     atom   92 type  5   force =     0.00032155    0.00070123    0.00358464
     atom   93 type  6   force =    -0.00808990   -0.00619468    0.00404172
     atom   94 type  6   force =     0.00367264   -0.00102201    0.00001018
     atom   95 type  6   force =    -0.00357733   -0.00105987   -0.00101100
     atom   96 type  6   force =     0.00610447   -0.00310978    0.00024544
     atom   97 type  6   force =    -0.00094981   -0.00036933    0.00099290
     atom   98 type  6   force =     0.00133325    0.00310678   -0.00703632
     atom   99 type  6   force =     0.00217846   -0.00184534    0.00042480
     atom  100 type  6   force =    -0.00137925    0.00056164    0.00160034
     atom  101 type  6   force =    -0.00884972   -0.00581566    0.00423223
     atom  102 type  6   force =     0.00328277   -0.00132410    0.00018060
     atom  103 type  6   force =     0.00659888    0.00367729    0.00093305
     atom  104 type  6   force =     0.00766372   -0.00663563    0.00454191
     atom  105 type  6   force =    -0.00089870   -0.00035415    0.00110823
     atom  106 type  6   force =     0.00134458    0.00310236   -0.00707927
     atom  107 type  6   force =    -0.00743932    0.00476394   -0.00766685
     atom  108 type  6   force =    -0.00154049    0.00006946    0.00078992

     Total force =     0.369859     Total SCF correction =     0.001708

     BFGS Geometry Optimization

     number of scf cycles    =   1
     number of bfgs steps    =   0

     energy   new            =   -1998.0167722783 Ry

     new trust radius        =       0.1049157117 bohr
     new conv_thr            =       0.0000010000 Ry


ATOMIC_POSITIONS (crystal)
C             0.2886078704        0.9697362678        0.5227984931
C             0.0369240816        0.0305270383        0.0202439642
C             0.3905737901        0.0128825322        0.5450114606
C             0.1413138002        0.9866255814        0.0455881266
C             0.4546144244        0.9710212272        0.6510152627
C             0.2016051212        0.0288336817        0.1496329258
C             0.2097179383        0.5290571263        0.5241215305
C             0.4581097114        0.4711545820        0.0286405448
C             0.2455374672        0.6139810854        0.6071545908
C             0.4971176237        0.3886882049        0.1084442698
C             0.2492306078        0.8894024091        0.6029700281
C             0.0006434610        0.1128317825        0.1049547448
C             0.4076910159        0.8879148070        0.7284314717
C             0.1603834897        0.1094666445        0.2280008338
C             0.0883885735        0.6088602144        0.7275044307
C             0.3411029566        0.3902316790        0.2303209798
C             0.0478236174        0.5255267019        0.6510438913
C             0.2950043768        0.4756943407        0.1533355069
C             0.1070757684        0.4831046274        0.5495419701
C             0.3579391810        0.5167386205        0.0491409576
C             0.4336524081        0.0994120140        0.4668642154
C             0.1813179469        0.8996181610        0.9654866418
C             0.0676746154        0.3944400349        0.4703551562
C             0.3157927769        0.6042318926        0.9693292857
C             0.7866693268        0.9707669280        0.5197710289
C             0.5368082858        0.0304316294        0.0199668051
C             0.8916897146        0.0128224062        0.5459883346
C             0.6413576540        0.9866715124        0.0456651733
C             0.9511397846        0.9699070606        0.6497430216
C             0.7016728238        0.0286592349        0.1492437957
C             0.7097197241        0.5290513763        0.5241158799
C             0.9581117651        0.4711515334        0.0286421310
C             0.7455416203        0.6139766056        0.6071461878
C             0.9971067079        0.3886928854        0.1084427775
C             0.7488708445        0.8884016501        0.6039760937
C             0.5005671133        0.1128701632        0.1050088873
C             0.9082595656        0.8886986978        0.7277371615
C             0.6602277950        0.1102931231        0.2279208924
C             0.5883832266        0.6088524255        0.7274935284
C             0.8411026933        0.3902265961        0.2303322946
C             0.5478230197        0.5255290542        0.6510456281
C             0.7949961602        0.4756980719        0.1533352365
C             0.6070754914        0.4831058019        0.5495456383
C             0.8579398658        0.5167386148        0.0491422397
C             0.9330199209        0.0994494691        0.4664045292
C             0.6812359870        0.8996522073        0.9654056405
C             0.5676927871        0.3944302814        0.4703487457
C             0.8157999479        0.6042309689        0.9693225879
F             0.5484749855        0.0041970634        0.6774946008
F             0.9766818688        0.9988761855        0.9263116115
F             0.2682974010        0.4970753136        0.4326506522
F             0.2027697188        0.5113043000        0.1786168969
F             0.7273875944        0.0034721649        0.4261646851
F             0.4766555029        0.9988833014        0.9266473154
F             0.7682943057        0.4970774851        0.4326576348
F             0.7027787997        0.5113013211        0.1786136600
H             0.2372111244        0.9996954997        0.4430453774
H             0.0319404432        0.9988926306        0.6733813370
H             0.2823285825        0.9985292582        0.1723956463
H             0.0085626537        0.5005265014        0.9505134321
H             0.3227526451        0.6503931497        0.5924355732
H             0.0748347411        0.3529149273        0.0951247642
H             0.1701824383        0.8551431963        0.5885956105
H             0.4221848234        0.1475887423        0.0896329418
H             0.4534305707        0.8552642067        0.8083941903
H             0.2061203127        0.1430792070        0.3087228963
H             0.0438470529        0.6429437432        0.8065599385
H             0.2962853749        0.3576658623        0.3087061511
H             0.4686606768        0.4930996586        0.6732631203
H             0.7822216555        0.9985690133        0.1724310662
H             0.5085622136        0.5005243173        0.9505151136
H             0.8227538696        0.6503934623        0.5924395447
H             0.5748305682        0.3529141588        0.0951242393
H             0.6701177240        0.8553227040        0.5883235517
H             0.9221880871        0.1475911221        0.0896532541
H             0.9531282997        0.8551584495        0.8082862554
H             0.7059472697        0.1431279244        0.3082239070
H             0.5438481851        0.6429405590        0.8065656482
H             0.7962845700        0.3576600850        0.3087026952
H             0.9686591958        0.4931002549        0.6732629234
N             0.3090385078        0.8515201180        0.7047179474
N             0.0604679021        0.1487273315        0.2055044395
N             0.1867148896        0.6501644298        0.7052273842
N             0.4382143685        0.3512485336        0.2077866164
N             0.8083300409        0.8515783751        0.7040789436
N             0.5605960179        0.1485792545        0.2053711124
N             0.6867149611        0.6501769491        0.7052285954
N             0.9382170690        0.3512437659        0.2077942705
Ni            0.2474789148        0.7514830012        0.8366388732
Ni            0.5000424855        0.2479895106        0.3393609708
Ni            0.7474627262        0.7515418140        0.8366036249
Ni            0.9999889665        0.2480286305        0.3393626271
O             0.1224394626        0.3474272433        0.3830811688
O             0.3713634183        0.6509338147        0.8812925241
O             0.3774776768        0.1474622150        0.3771259286
O             0.1253565422        0.8522205958        0.8762736416
O             0.4730297393        0.3561443941        0.4830451396
O             0.2211868214        0.6415462772        0.9795145941
O             0.0289325800        0.1350800249        0.4810998796
O             0.2766291370        0.8627817320        0.9794814258
O             0.6224084891        0.3474432588        0.3830909810
O             0.8713470806        0.6509210499        0.8813013018
O             0.8779101078        0.1476623843        0.3772260566
O             0.6254265496        0.8520716111        0.8764949315
O             0.9730320102        0.3561450354        0.4830510794
O             0.7211872606        0.6415460906        0.9795123819
O             0.5285180170        0.1353593006        0.4806831188
O             0.7766215543        0.8627609351        0.9794396849



     Writing output data file ./QE_relaxation_results/pbesol_relax/NiPyC2_relax_sc211_meta_functionalized_F_pbesol_relax.save/
     NEW-OLD atomic charge density approx. for the potential

     Check: negative core charge=   -0.000145

     total cpu time spent up to now is     1749.8 secs

     Self-consistent Calculation

     iteration #  1     ecut=   100.00 Ry     beta= 0.70
     Davidson diagonalization with overlap
     ethr =  1.00E-06,  avg # of iterations = 15.5

     total cpu time spent up to now is     2022.6 secs

     total energy              =   -1998.01766230 Ry
     Harris-Foulkes estimate   =   -1998.05162615 Ry
     estimated scf accuracy    <       0.13374563 Ry

     total magnetization       =     8.00 Bohr mag/cell
     absolute magnetization    =     8.24 Bohr mag/cell

     iteration #  2     ecut=   100.00 Ry     beta= 0.70
     Davidson diagonalization with overlap
     ethr =  2.99E-05,  avg # of iterations =  1.5

     total cpu time spent up to now is     2083.5 secs

     total energy              =   -1998.00708619 Ry
     Harris-Foulkes estimate   =   -1998.03824639 Ry
     estimated scf accuracy    <       0.16966782 Ry

     total magnetization       =     8.00 Bohr mag/cell
     absolute magnetization    =     8.25 Bohr mag/cell

     iteration #  3     ecut=   100.00 Ry     beta= 0.70
     Davidson diagonalization with overlap
     ethr =  2.99E-05,  avg # of iterations =  1.5

     total cpu time spent up to now is     2145.1 secs

     total energy              =   -1998.01679371 Ry
     Harris-Foulkes estimate   =   -1998.03226482 Ry
     estimated scf accuracy    <       0.11599932 Ry

     total magnetization       =     8.00 Bohr mag/cell
     absolute magnetization    =     8.24 Bohr mag/cell

     iteration #  4     ecut=   100.00 Ry     beta= 0.70
     Davidson diagonalization with overlap
     ethr =  2.59E-05,  avg # of iterations =  1.0

     total cpu time spent up to now is     2205.4 secs

     total energy              =   -1998.01916594 Ry
     Harris-Foulkes estimate   =   -1998.02256203 Ry
     estimated scf accuracy    <       0.01565318 Ry

     total magnetization       =     8.00 Bohr mag/cell
     absolute magnetization    =     8.25 Bohr mag/cell

     iteration #  5     ecut=   100.00 Ry     beta= 0.70
     Davidson diagonalization with overlap
     ethr =  3.49E-06,  avg # of iterations =  6.5

     total cpu time spent up to now is     2275.9 secs

     total energy              =   -1998.01818704 Ry
     Harris-Foulkes estimate   =   -1998.02207563 Ry
     estimated scf accuracy    <       0.04689826 Ry

     total magnetization       =     8.00 Bohr mag/cell
     absolute magnetization    =     8.25 Bohr mag/cell

     iteration #  6     ecut=   100.00 Ry     beta= 0.70
     Davidson diagonalization with overlap
     ethr =  3.49E-06,  avg # of iterations =  1.5

     total cpu time spent up to now is     2337.1 secs

     total energy              =   -1998.01877871 Ry
     Harris-Foulkes estimate   =   -1998.01980320 Ry
     estimated scf accuracy    <       0.00317227 Ry

     total magnetization       =     8.00 Bohr mag/cell
     absolute magnetization    =     8.25 Bohr mag/cell

     iteration #  7     ecut=   100.00 Ry     beta= 0.70
     Davidson diagonalization with overlap
     ethr =  7.08E-07,  avg # of iterations =  7.5

     total cpu time spent up to now is     2418.4 secs

     total energy              =   -1998.01895347 Ry
     Harris-Foulkes estimate   =   -1998.01914130 Ry
     estimated scf accuracy    <       0.00187038 Ry

     total magnetization       =     8.00 Bohr mag/cell
     absolute magnetization    =     8.25 Bohr mag/cell

     iteration #  8     ecut=   100.00 Ry     beta= 0.70
     Davidson diagonalization with overlap
     ethr =  4.17E-07,  avg # of iterations =  1.5

     total cpu time spent up to now is     2479.4 secs

     total energy              =   -1998.01904547 Ry
     Harris-Foulkes estimate   =   -1998.01914716 Ry
     estimated scf accuracy    <       0.00194044 Ry

     total magnetization       =     8.00 Bohr mag/cell
     absolute magnetization    =     8.25 Bohr mag/cell

     iteration #  9     ecut=   100.00 Ry     beta= 0.70
     Davidson diagonalization with overlap
     ethr =  4.17E-07,  avg # of iterations =  1.0

     total cpu time spent up to now is     2539.8 secs

     total energy              =   -1998.01912797 Ry
     Harris-Foulkes estimate   =   -1998.01911873 Ry
     estimated scf accuracy    <       0.00024740 Ry

     total magnetization       =     8.00 Bohr mag/cell
     absolute magnetization    =     8.25 Bohr mag/cell

     iteration # 10     ecut=   100.00 Ry     beta= 0.70
     Davidson diagonalization with overlap
     ethr =  5.52E-08,  avg # of iterations =  3.5

     total cpu time spent up to now is     2604.2 secs

     total energy              =   -1998.01913915 Ry
     Harris-Foulkes estimate   =   -1998.01914105 Ry
     estimated scf accuracy    <       0.00014083 Ry

     total magnetization       =     8.00 Bohr mag/cell
     absolute magnetization    =     8.25 Bohr mag/cell

     iteration # 11     ecut=   100.00 Ry     beta= 0.70
     Davidson diagonalization with overlap
     ethr =  3.14E-08,  avg # of iterations =  2.0

     total cpu time spent up to now is     2664.8 secs

     total energy              =   -1998.01913850 Ry
     Harris-Foulkes estimate   =   -1998.01914789 Ry
     estimated scf accuracy    <       0.00013418 Ry

     total magnetization       =     8.00 Bohr mag/cell
     absolute magnetization    =     8.25 Bohr mag/cell

     iteration # 12     ecut=   100.00 Ry     beta= 0.70
     Davidson diagonalization with overlap
     ethr =  3.00E-08,  avg # of iterations =  1.0

     total cpu time spent up to now is     2725.7 secs

     total energy              =   -1998.01914245 Ry
     Harris-Foulkes estimate   =   -1998.01914971 Ry
     estimated scf accuracy    <       0.00013259 Ry

     total magnetization       =     8.00 Bohr mag/cell
     absolute magnetization    =     8.25 Bohr mag/cell

     iteration # 13     ecut=   100.00 Ry     beta= 0.70
     Davidson diagonalization with overlap
     ethr =  2.96E-08,  avg # of iterations =  2.0

     total cpu time spent up to now is     2787.0 secs

     total energy              =   -1998.01914801 Ry
     Harris-Foulkes estimate   =   -1998.01914769 Ry
     estimated scf accuracy    <       0.00002787 Ry

     total magnetization       =     8.00 Bohr mag/cell
     absolute magnetization    =     8.25 Bohr mag/cell

     iteration # 14     ecut=   100.00 Ry     beta= 0.70
     Davidson diagonalization with overlap
     ethr =  6.22E-09,  avg # of iterations =  3.0

     total cpu time spent up to now is     2849.8 secs

     total energy              =   -1998.01914804 Ry
     Harris-Foulkes estimate   =   -1998.01914894 Ry
     estimated scf accuracy    <       0.00001642 Ry

     total magnetization       =     8.00 Bohr mag/cell
     absolute magnetization    =     8.25 Bohr mag/cell

     iteration # 15     ecut=   100.00 Ry     beta= 0.70
     Davidson diagonalization with overlap
     ethr =  3.67E-09,  avg # of iterations =  2.0

     total cpu time spent up to now is     2911.9 secs

     total energy              =   -1998.01914772 Ry
     Harris-Foulkes estimate   =   -1998.01915062 Ry
     estimated scf accuracy    <       0.00003651 Ry

     total magnetization       =     8.00 Bohr mag/cell
     absolute magnetization    =     8.25 Bohr mag/cell

     iteration # 16     ecut=   100.00 Ry     beta= 0.70
     Davidson diagonalization with overlap
     ethr =  3.67E-09,  avg # of iterations =  1.5

     total cpu time spent up to now is     2972.9 secs

     total energy              =   -1998.01914929 Ry
     Harris-Foulkes estimate   =   -1998.01915012 Ry
     estimated scf accuracy    <       0.00001558 Ry

     total magnetization       =     8.00 Bohr mag/cell
     absolute magnetization    =     8.25 Bohr mag/cell

     iteration # 17     ecut=   100.00 Ry     beta= 0.70
     Davidson diagonalization with overlap
     ethr =  3.48E-09,  avg # of iterations =  1.5

     total cpu time spent up to now is     3034.7 secs

     total energy              =   -1998.01914953 Ry
     Harris-Foulkes estimate   =   -1998.01914977 Ry
     estimated scf accuracy    <       0.00000371 Ry

     total magnetization       =     8.00 Bohr mag/cell
     absolute magnetization    =     8.25 Bohr mag/cell

     iteration # 18     ecut=   100.00 Ry     beta= 0.70
     Davidson diagonalization with overlap
     ethr =  8.28E-10,  avg # of iterations =  3.0

     total cpu time spent up to now is     3098.7 secs

     total energy              =   -1998.01914951 Ry
     Harris-Foulkes estimate   =   -1998.01914968 Ry
     estimated scf accuracy    <       0.00000266 Ry

     total magnetization       =     8.00 Bohr mag/cell
     absolute magnetization    =     8.25 Bohr mag/cell

     iteration # 19     ecut=   100.00 Ry     beta= 0.70
     Davidson diagonalization with overlap
     ethr =  5.94E-10,  avg # of iterations =  1.5

     total cpu time spent up to now is     3160.9 secs

     total energy              =   -1998.01914945 Ry
     Harris-Foulkes estimate   =   -1998.01914972 Ry
     estimated scf accuracy    <       0.00000335 Ry

     total magnetization       =     8.00 Bohr mag/cell
     absolute magnetization    =     8.25 Bohr mag/cell

     iteration # 20     ecut=   100.00 Ry     beta= 0.70
     Davidson diagonalization with overlap
     ethr =  5.94E-10,  avg # of iterations =  1.5
 
     Magnetic moment per site:
     atom:    1    charge:    0.8444    magn:    0.0046    constr:    0.0000
     atom:    2    charge:    0.8226    magn:    0.0068    constr:    0.0000
     atom:    3    charge:    0.8475    magn:    0.0057    constr:    0.0000
     atom:    4    charge:    0.8479    magn:    0.0056    constr:    0.0000
     atom:    5    charge:    0.8204    magn:    0.0073    constr:    0.0000
     atom:    6    charge:    0.8461    magn:    0.0048    constr:    0.0000
     atom:    7    charge:    0.8241    magn:    0.0067    constr:    0.0000
     atom:    8    charge:    0.8445    magn:    0.0047    constr:    0.0000
     atom:    9    charge:    0.8421    magn:    0.0070    constr:    0.0000
     atom:   10    charge:    0.8378    magn:    0.0066    constr:    0.0000
     atom:   11    charge:    0.8383    magn:    0.0066    constr:    0.0000
     atom:   12    charge:    0.8421    magn:    0.0070    constr:    0.0000
     atom:   13    charge:    0.8435    magn:    0.0073    constr:    0.0000
     atom:   14    charge:    0.8399    magn:    0.0064    constr:    0.0000
     atom:   15    charge:    0.8400    magn:    0.0063    constr:    0.0000
     atom:   16    charge:    0.8425    magn:    0.0074    constr:    0.0000
     atom:   17    charge:    0.8452    magn:    0.0047    constr:    0.0000
     atom:   18    charge:    0.8202    magn:    0.0072    constr:    0.0000
     atom:   19    charge:    0.8499    magn:    0.0056    constr:    0.0000
     atom:   20    charge:    0.8474    magn:    0.0057    constr:    0.0000
     atom:   21    charge:    0.8259    magn:   -0.0020    constr:    0.0000
     atom:   22    charge:    0.8264    magn:   -0.0020    constr:    0.0000
     atom:   23    charge:    0.8263    magn:   -0.0019    constr:    0.0000
     atom:   24    charge:    0.8263    magn:   -0.0020    constr:    0.0000
     atom:   25    charge:    0.8224    magn:    0.0070    constr:    0.0000
     atom:   26    charge:    0.8231    magn:    0.0069    constr:    0.0000
     atom:   27    charge:    0.8489    magn:    0.0054    constr:    0.0000
     atom:   28    charge:    0.8484    magn:    0.0054    constr:    0.0000
     atom:   29    charge:    0.8434    magn:    0.0054    constr:    0.0000
     atom:   30    charge:    0.8448    magn:    0.0053    constr:    0.0000
     atom:   31    charge:    0.8242    magn:    0.0067    constr:    0.0000
     atom:   32    charge:    0.8446    magn:    0.0047    constr:    0.0000
     atom:   33    charge:    0.8422    magn:    0.0070    constr:    0.0000
     atom:   34    charge:    0.8378    magn:    0.0066    constr:    0.0000
     atom:   35    charge:    0.8422    magn:    0.0074    constr:    0.0000
     atom:   36    charge:    0.8418    magn:    0.0074    constr:    0.0000
     atom:   37    charge:    0.8409    magn:    0.0068    constr:    0.0000
     atom:   38    charge:    0.8406    magn:    0.0067    constr:    0.0000
     atom:   39    charge:    0.8401    magn:    0.0063    constr:    0.0000
     atom:   40    charge:    0.8424    magn:    0.0074    constr:    0.0000
     atom:   41    charge:    0.8452    magn:    0.0046    constr:    0.0000
     atom:   42    charge:    0.8202    magn:    0.0072    constr:    0.0000
     atom:   43    charge:    0.8499    magn:    0.0056    constr:    0.0000
     atom:   44    charge:    0.8474    magn:    0.0057    constr:    0.0000
     atom:   45    charge:    0.8251    magn:   -0.0019    constr:    0.0000
     atom:   46    charge:    0.8267    magn:   -0.0020    constr:    0.0000
     atom:   47    charge:    0.8264    magn:   -0.0019    constr:    0.0000
     atom:   48    charge:    0.8264    magn:   -0.0020    constr:    0.0000
     atom:   49    charge:    4.6871    magn:    0.0073    constr:    0.0000
     atom:   50    charge:    4.6844    magn:    0.0063    constr:    0.0000
     atom:   51    charge:    4.6858    magn:    0.0061    constr:    0.0000
     atom:   52    charge:    4.6889    magn:    0.0073    constr:    0.0000
     atom:   53    charge:    4.6835    magn:    0.0064    constr:    0.0000
     atom:   54    charge:    4.6845    magn:    0.0061    constr:    0.0000
     atom:   55    charge:    4.6858    magn:    0.0061    constr:    0.0000
     atom:   56    charge:    4.6888    magn:    0.0073    constr:    0.0000
     atom:   57    charge:    0.4795    magn:   -0.0012    constr:    0.0000
     atom:   58    charge:    0.4784    magn:   -0.0012    constr:    0.0000
     atom:   59    charge:    0.4777    magn:   -0.0012    constr:    0.0000
     atom:   60    charge:    0.4799    magn:   -0.0012    constr:    0.0000
     atom:   61    charge:    0.4894    magn:   -0.0007    constr:    0.0000
     atom:   62    charge:    0.4933    magn:   -0.0014    constr:    0.0000
     atom:   63    charge:    0.4916    magn:   -0.0014    constr:    0.0000
     atom:   64    charge:    0.4905    magn:   -0.0007    constr:    0.0000
     atom:   65    charge:    0.4905    magn:   -0.0005    constr:    0.0000
     atom:   66    charge:    0.4893    magn:   -0.0012    constr:    0.0000
     atom:   67    charge:    0.4890    magn:   -0.0012    constr:    0.0000
     atom:   68    charge:    0.4899    magn:   -0.0005    constr:    0.0000
     atom:   69    charge:    0.4775    magn:   -0.0012    constr:    0.0000
     atom:   70    charge:    0.4784    magn:   -0.0012    constr:    0.0000
     atom:   71    charge:    0.4799    magn:   -0.0012    constr:    0.0000
     atom:   72    charge:    0.4894    magn:   -0.0007    constr:    0.0000
     atom:   73    charge:    0.4934    magn:   -0.0014    constr:    0.0000
     atom:   74    charge:    0.4919    magn:   -0.0008    constr:    0.0000
     atom:   75    charge:    0.4898    magn:   -0.0007    constr:    0.0000
     atom:   76    charge:    0.4924    magn:   -0.0011    constr:    0.0000
     atom:   77    charge:    0.4920    magn:   -0.0011    constr:    0.0000
     atom:   78    charge:    0.4890    magn:   -0.0012    constr:    0.0000
     atom:   79    charge:    0.4900    magn:   -0.0005    constr:    0.0000
     atom:   80    charge:    0.4776    magn:   -0.0012    constr:    0.0000
     atom:   81    charge:    2.4484    magn:    0.0133    constr:    0.0000
     atom:   82    charge:    2.4455    magn:    0.0141    constr:    0.0000
     atom:   83    charge:    2.4484    magn:    0.0138    constr:    0.0000
     atom:   84    charge:    2.4480    magn:    0.0133    constr:    0.0000
     atom:   85    charge:    2.4490    magn:    0.0135    constr:    0.0000
     atom:   86    charge:    2.4486    magn:    0.0136    constr:    0.0000
     atom:   87    charge:    2.4484    magn:    0.0138    constr:    0.0000
     atom:   88    charge:    2.4481    magn:    0.0134    constr:    0.0000
     atom:   89    charge:    7.4328    magn:    1.1482    constr:    0.0000
     atom:   90    charge:    7.4328    magn:    1.1462    constr:    0.0000
     atom:   91    charge:    7.4326    magn:    1.1481    constr:    0.0000
     atom:   92    charge:    7.4324    magn:    1.1442    constr:    0.0000
     atom:   93    charge:    3.2620    magn:    0.0599    constr:    0.0000
     atom:   94    charge:    3.2567    magn:    0.0635    constr:    0.0000
     atom:   95    charge:    3.2581    magn:    0.0632    constr:    0.0000
     atom:   96    charge:    3.2582    magn:    0.0613    constr:    0.0000
     atom:   97    charge:    3.2545    magn:    0.0644    constr:    0.0000
     atom:   98    charge:    3.2590    magn:    0.0627    constr:    0.0000
     atom:   99    charge:    3.2567    magn:    0.0651    constr:    0.0000
     atom:  100    charge:    3.2553    magn:    0.0647    constr:    0.0000
     atom:  101    charge:    3.2622    magn:    0.0598    constr:    0.0000
     atom:  102    charge:    3.2566    magn:    0.0637    constr:    0.0000
     atom:  103    charge:    3.2625    magn:    0.0598    constr:    0.0000
     atom:  104    charge:    3.2593    magn:    0.0615    constr:    0.0000
     atom:  105    charge:    3.2546    magn:    0.0643    constr:    0.0000
     atom:  106    charge:    3.2590    magn:    0.0628    constr:    0.0000
     atom:  107    charge:    3.2612    magn:    0.0628    constr:    0.0000
     atom:  108    charge:    3.2545    magn:    0.0654    constr:    0.0000

     total cpu time spent up to now is     3220.9 secs

     End of self-consistent calculation

 ------ SPIN UP ------------


          k = 0.0000 0.0000 0.0000 ( 91663 PWs)   bands (ev):

   -26.7934 -26.7665 -26.7598 -26.7335 -26.6396 -26.6167 -26.6101 -26.6094
   -22.1457 -22.1347 -22.1264 -22.1212 -22.0173 -22.0068 -21.9988 -21.9950
   -19.0874 -19.0859 -19.0729 -19.0691 -19.0680 -19.0646 -19.0576 -19.0515
   -18.9730 -18.9632 -18.9530 -18.9433 -18.8673 -18.8588 -18.8541 -18.8408
   -15.1958 -15.1659 -15.1502 -15.1338 -15.1262 -15.1205 -15.1139 -15.0988
   -13.9368 -13.9302 -13.8905 -13.8880 -13.8218 -13.8053 -13.7759 -13.7433
   -11.7659 -11.6795 -11.6437 -11.6304 -11.5710 -11.5463 -11.5261 -11.4965
   -10.9860 -10.9689 -10.9506 -10.9221 -10.9005 -10.8769 -10.8496 -10.8414
    -9.5811  -9.3942  -9.3707  -9.3273  -9.1622  -9.0957  -9.0224  -8.9973
    -8.6856  -8.6606  -8.6236  -8.5836  -8.5452  -8.5019  -8.4793  -8.4385
    -7.9470  -7.8869  -7.8335  -7.8078  -7.8013  -7.7724  -7.7451  -7.7168
    -7.6935  -7.3498  -7.3381  -7.3115  -7.2084  -7.1943  -7.1373  -7.1188
    -7.0969  -7.0085  -6.9715  -6.9574  -6.9126  -6.8586  -6.7838  -6.7643
    -6.4686  -6.4290  -6.4261  -6.4160  -6.3558  -6.2990  -6.2880  -6.2218
    -6.2145  -6.1952  -6.1570  -6.1173  -6.0794  -6.0682  -6.0436  -5.9847
    -5.9107  -5.8696  -5.8510  -5.8247  -5.6587  -5.6332  -5.6088  -5.5840
    -5.5799  -5.5739  -5.5168  -5.4995  -5.4728  -5.4219  -5.3597  -5.3521
    -5.0488  -5.0279  -5.0122  -4.9745  -4.9415  -4.9231  -4.9207  -4.8866
    -4.8620  -4.8365  -4.8075  -4.7740  -4.7525  -4.7334  -4.6838  -4.5758
    -4.3891  -4.2745  -4.2452  -4.2025  -4.1610  -4.0591  -3.9585  -3.9429
    -3.9108  -3.8709  -3.7854  -3.7080  -3.6610  -3.5058  -3.3711  -3.3582
    -3.1177  -3.1076  -3.0554  -2.9834  -2.9621  -2.8581  -2.8431  -2.7900
    -2.7788  -2.7397  -2.7280  -2.7020  -2.6944  -2.6499  -2.5886  -2.5672
    -2.4576  -2.4361  -2.4111  -2.2531  -2.1792  -2.1529  -2.0831  -2.0694
    -2.0491  -1.9991  -1.9445  -1.9309  -1.8857  -1.8763  -1.8591  -1.8435
    -1.8122  -1.7447  -1.7157  -1.6909  -1.6860  -1.6730  -1.6715  -1.6313
    -1.5751  -1.5464  -1.5113  -1.4769  -1.2982  -1.2834  -1.2575  -1.2338
    -1.2080  -1.1827  -1.1312  -1.0730   0.1149   0.1752   0.1945   0.2507
     0.4371   0.4423   0.4621   0.5274   2.1750   2.2188   2.2515   2.2608
     2.2729   2.2812   2.3441   2.3947   3.3995   3.4308   3.4637   3.5108
     3.5836   3.6767   3.7370   3.7600   3.9001   4.5647   4.6285   4.6877
     4.8266   4.8386   4.8626   4.9406   4.9707   5.0043   5.0382   5.0746
     5.3715   5.4130   5.5417   5.6309   5.6913   5.7533   5.9727   6.0792
     6.1039   6.1424   6.2205   6.4845   6.7560   6.8276   6.8851   6.9362
     6.9885   7.0310

 ------ SPIN DOWN ----------


          k = 0.0000 0.0000 0.0000 ( 91663 PWs)   bands (ev):

   -26.7798 -26.7530 -26.7463 -26.7196 -26.6242 -26.6015 -26.5959 -26.5948
   -22.0297 -22.0191 -22.0088 -22.0042 -21.9020 -21.8921 -21.8821 -21.8788
   -18.9510 -18.9443 -18.9347 -18.9284 -18.9279 -18.9219 -18.9176 -18.9101
   -18.9092 -18.9078 -18.9035 -18.8902 -18.8289 -18.8169 -18.8144 -18.8009
   -15.1548 -15.1248 -15.1088 -15.0934 -15.0854 -15.0797 -15.0730 -15.0572
   -13.8920 -13.8866 -13.8462 -13.8438 -13.7768 -13.7601 -13.7306 -13.6974
   -11.7201 -11.6347 -11.5985 -11.5886 -11.5263 -11.5020 -11.4810 -11.4505
   -10.9576 -10.9407 -10.9229 -10.8938 -10.8720 -10.8486 -10.8211 -10.8132
    -9.5509  -9.3656  -9.3423  -9.2969  -9.1335  -9.0680  -8.9939  -8.9695
    -8.6503  -8.6309  -8.5925  -8.5538  -8.5140  -8.4684  -8.4476  -8.4069
    -7.9165  -7.8542  -7.7997  -7.7756  -7.7686  -7.7428  -7.7076  -7.6676
    -7.6471  -7.2850  -7.2704  -7.2471  -7.1554  -7.1392  -7.0780  -7.0508
    -7.0392  -6.9404  -6.9044  -6.8888  -6.8454  -6.7911  -6.7207  -6.6983
    -6.3621  -6.3368  -6.3115  -6.2886  -6.2335  -6.2090  -6.2016  -6.0785
    -6.0703  -6.0571  -6.0481  -5.9914  -5.9758  -5.9513  -5.9154  -5.8598
    -5.7688  -5.7574  -5.7344  -5.7107  -5.5819  -5.5541  -5.5337  -5.5214
[...]
    -2.9731  -2.9620  -2.8523  -2.7888  -2.7313  -2.7046  -2.5756  -2.5144
    -2.4900  -2.4805  -2.4223  -2.4150  -2.3964  -2.3756  -2.3468  -2.3048
    -2.2780  -2.2054  -2.1498  -2.0733  -2.0206  -2.0051  -1.9726  -1.9088
    -1.8550  -1.8404  -1.7983  -1.7623  -1.7476  -1.6534  -1.5632  -1.5038
    -1.3046  -1.2876  -1.2791  -1.2604  -1.2440  -1.2109  -1.1943  -1.1428
    -1.0419  -1.0364  -1.0311  -0.9521  -0.9444  -0.9400  -0.9273  -0.9080
    -0.8753  -0.8287  -0.7986  -0.7769   0.8191   0.8664   0.8885   0.9282
     1.0862   1.1150   1.1384   1.1961   2.2313   2.2590   2.2880   2.3097
     2.3302   2.3439   2.4010   2.4294   3.4956   3.5236   3.5666   3.5968
     3.6739   3.7511   3.8026   3.8231   3.9501   4.6024   4.6891   4.7514
     4.8078   4.8286   4.8640   4.9216   4.9431   4.9819   5.0050   5.0579
     5.4032   5.4624   5.5975   5.7437   5.7831   5.8471   6.0416   6.0897
     6.1458   6.1903   6.2665   6.5016   6.7733   6.8201   6.9306   6.9679
     7.0066   7.0333

     the spin up/dw Fermi energies are     0.6005    0.2274 ev

!    total energy              =   -1998.10369836 Ry
     Harris-Foulkes estimate   =   -1998.10369835 Ry
     estimated scf accuracy    <          2.9E-09 Ry

     The total energy is the sum of the following terms:

     one-electron contribution =   -2809.78867866 Ry
     hartree contribution      =    1571.03904432 Ry
     xc contribution           =    -560.73858339 Ry
     ewald contribution        =    -200.96078619 Ry
     Dispersion Correction     =      -0.45530044 Ry
     smearing contrib. (-TS)   =       2.80060600 Ry

     total magnetization       =     8.00 Bohr mag/cell
     absolute magnetization    =     8.27 Bohr mag/cell

     convergence has been achieved in  11 iterations

     Forces acting on atoms (cartesian axes, Ry/au):

     atom    1 type  1   force =    -0.00026575   -0.00014429    0.00016945
     atom    2 type  1   force =    -0.00004914    0.00015239   -0.00026737
     atom    3 type  1   force =     0.00016516    0.00031561    0.00020082
     atom    4 type  1   force =    -0.00046727    0.00021262   -0.00006119
     atom    5 type  1   force =     0.00007770    0.00015333    0.00008904
     atom    6 type  1   force =    -0.00002509    0.00022674   -0.00015444
     atom    7 type  1   force =    -0.00046357    0.00032219    0.00032171
     atom    8 type  1   force =    -0.00015054   -0.00022375   -0.00022547
     atom    9 type  1   force =     0.00026955   -0.00032711   -0.00012180
     atom   10 type  1   force =     0.00024236   -0.00000284    0.00026603
     atom   11 type  1   force =     0.00010858    0.00046772    0.00039256
     atom   12 type  1   force =     0.00000134   -0.00011819   -0.00013350
     atom   13 type  1   force =    -0.00011398   -0.00042841   -0.00019403
     atom   14 type  1   force =     0.00005811    0.00013795   -0.00015505
     atom   15 type  1   force =    -0.00035237    0.00011465   -0.00014170
     atom   16 type  1   force =     0.00029819   -0.00042913   -0.00013534
     atom   17 type  1   force =     0.00012685   -0.00002226   -0.00011022
     atom   18 type  1   force =     0.00004622    0.00010221    0.00011336
     atom   19 type  1   force =     0.00040785    0.00015296   -0.00003007
     atom   20 type  1   force =    -0.00014568   -0.00006806    0.00022478
     atom   21 type  1   force =    -0.00063324   -0.00027761    0.00020024
     atom   22 type  1   force =     0.00011678   -0.00025254    0.00014986
     atom   23 type  1   force =    -0.00030039   -0.00038404    0.00008711
     atom   24 type  1   force =     0.00053277   -0.00025531    0.00008103
     atom   25 type  1   force =    -0.00010675   -0.00028489   -0.00030679
     atom   26 type  1   force =     0.00009342    0.00048950   -0.00000287
     atom   27 type  1   force =    -0.00021871   -0.00014228    0.00032219
     atom   28 type  1   force =    -0.00011661   -0.00009108    0.00017675
     atom   29 type  1   force =    -0.00013652    0.00017224    0.00002205
     atom   30 type  1   force =    -0.00048554    0.00003790    0.00024806
     atom   31 type  1   force =     0.00006956    0.00018527   -0.00000168
     atom   32 type  1   force =    -0.00002005   -0.00013042   -0.00010425
     atom   33 type  1   force =     0.00026751   -0.00039048    0.00004598
     atom   34 type  1   force =     0.00017508    0.00021931    0.00020813
     atom   35 type  1   force =     0.00032148    0.00060523    0.00001882
     atom   36 type  1   force =     0.00022454   -0.00099116    0.00018763
     atom   37 type  1   force =    -0.00000910   -0.00038008   -0.00044782
     atom   38 type  1   force =     0.00033776    0.00021135   -0.00056947
     atom   39 type  1   force =     0.00002145    0.00015697   -0.00016879
     atom   40 type  1   force =     0.00038763   -0.00030012   -0.00012310
     atom   41 type  1   force =    -0.00002219    0.00001306    0.00002220
     atom   42 type  1   force =    -0.00046905    0.00031595    0.00034448
     atom   43 type  1   force =     0.00036149    0.00012180   -0.00009514
     atom   44 type  1   force =     0.00006219   -0.00000487    0.00031205
     atom   45 type  1   force =    -0.00009258    0.00047848   -0.00007395
     atom   46 type  1   force =     0.00005177   -0.00054969   -0.00018051
     atom   47 type  1   force =     0.00035786    0.00009023    0.00007396
     atom   48 type  1   force =     0.00042538   -0.00015595    0.00006840
     atom   49 type  2   force =    -0.00009240   -0.00017843   -0.00017843
     atom   50 type  2   force =    -0.00046737    0.00013709   -0.00017143
     atom   51 type  2   force =     0.00019868   -0.00017004   -0.00014090
     atom   52 type  2   force =    -0.00001996    0.00011130    0.00024941
     atom   53 type  2   force =    -0.00006607   -0.00054967   -0.00046949
     atom   54 type  2   force =    -0.00022489   -0.00001324   -0.00018452
     atom   55 type  2   force =     0.00021096   -0.00016276    0.00005351
     atom   56 type  2   force =     0.00019628    0.00003524   -0.00018212
     atom   57 type  3   force =    -0.00022396    0.00019685    0.00042733
     atom   58 type  3   force =     0.00002123    0.00005603   -0.00015836
     atom   59 type  3   force =    -0.00040794   -0.00019661   -0.00004095
     atom   60 type  3   force =    -0.00000365   -0.00038457   -0.00011265
     atom   61 type  3   force =    -0.00024825    0.00038613   -0.00001994
     atom   62 type  3   force =     0.00004204   -0.00011562    0.00015770
     atom   63 type  3   force =    -0.00011118   -0.00029426    0.00019661
     atom   64 type  3   force =     0.00004815    0.00043156    0.00001953
     atom   65 type  3   force =    -0.00032834    0.00030435   -0.00010335
     atom   66 type  3   force =     0.00033119   -0.00022759   -0.00014054
     atom   67 type  3   force =    -0.00006835    0.00018970    0.00003646
     atom   68 type  3   force =     0.00059759    0.00032099    0.00034755
     atom   69 type  3   force =     0.00020284    0.00028823   -0.00020308
     atom   70 type  3   force =     0.00025419    0.00028491   -0.00022528
     atom   71 type  3   force =    -0.00006861   -0.00025490    0.00002157
     atom   72 type  3   force =    -0.00036393    0.00034097    0.00018413
     atom   73 type  3   force =    -0.00005733   -0.00002855    0.00020553
     atom   74 type  3   force =     0.00005524   -0.00030689    0.00022882
     atom   75 type  3   force =     0.00014629    0.00037909    0.00013005
     atom   76 type  3   force =    -0.00013130    0.00030200    0.00012846
     atom   77 type  3   force =     0.00008026   -0.00030747    0.00027611
     atom   78 type  3   force =    -0.00012076    0.00012244    0.00003211
     atom   79 type  3   force =     0.00032962    0.00046227    0.00023242
     atom   80 type  3   force =     0.00015465    0.00026725   -0.00006720
     atom   81 type  4   force =    -0.00035268   -0.00005692    0.00009773
     atom   82 type  4   force =    -0.00002980   -0.00016856   -0.00028188
     atom   83 type  4   force =    -0.00027317   -0.00022521    0.00017237
     atom   84 type  4   force =     0.00013234    0.00013382    0.00037741
     atom   85 type  4   force =    -0.00026961    0.00023179   -0.00005516
     atom   86 type  4   force =    -0.00036571   -0.00029256    0.00015679
     atom   87 type  4   force =    -0.00038417   -0.00000079    0.00033118
     atom   88 type  4   force =     0.00012433    0.00025087    0.00026214
     atom   89 type  5   force =     0.00006197   -0.00067149    0.00012704
     atom   90 type  5   force =    -0.00030962   -0.00010434   -0.00005716
     atom   91 type  5   force =    -0.00043013    0.00022076    0.00012015
     atom   92 type  5   force =     0.00035145    0.00015128    0.00018752
     atom   93 type  6   force =    -0.00021832   -0.00051491   -0.00014988
     atom   94 type  6   force =     0.00017167    0.00045336   -0.00007109
     atom   95 type  6   force =    -0.00035299    0.00069652   -0.00002505
     atom   96 type  6   force =     0.00053612   -0.00048377   -0.00008210
     atom   97 type  6   force =     0.00045102   -0.00071403   -0.00066444
     atom   98 type  6   force =     0.00011599    0.00032000    0.00016330
     atom   99 type  6   force =    -0.00074463    0.00034567   -0.00035075
     atom  100 type  6   force =    -0.00055800   -0.00050049   -0.00028156
     atom  101 type  6   force =     0.00014603   -0.00006251   -0.00035511
     atom  102 type  6   force =     0.00019607    0.00028212    0.00008419
     atom  103 type  6   force =     0.00016098    0.00018562    0.00012244
     atom  104 type  6   force =     0.00055849   -0.00058154   -0.00000926
     atom  105 type  6   force =     0.00065813   -0.00058806   -0.00045231
     atom  106 type  6   force =     0.00035130    0.00062242    0.00004977
     atom  107 type  6   force =     0.00000810    0.00050542   -0.00015417
     atom  108 type  6   force =    -0.00056460    0.00003865   -0.00033334

     Total force =     0.005049     Total SCF correction =     0.000134

     bfgs converged in  44 scf cycles and  43 bfgs steps
     (criteria: energy <  1.0E-04 Ry, force <  1.0E-03 Ry/Bohr)

     End of BFGS Geometry Optimization

     Final energy   =   -1998.1036983580 Ry
Begin final coordinates

ATOMIC_POSITIONS (crystal)
C             0.2851183527        0.9795785106        0.5306296611
C             0.0389490713        0.0339925644        0.0269996148
C             0.3902055873        0.0160759030        0.5457411269
C             0.1408104474        0.9876948474        0.0465563229
C             0.4533115615        0.9650480362        0.6425808796
C             0.2020117075        0.0290362240        0.1502070648
C             0.2123596138        0.5294609055        0.5337481280
C             0.4591463732        0.4774069981        0.0344908762
C             0.2481841245        0.6137871064        0.6146010651
C             0.4959927587        0.3923756208        0.1123705549
C             0.2467265160        0.8978477081        0.6102973904
C             0.0011787481        0.1139158754        0.1110380526
C             0.4116454002        0.8810742681        0.7183166603
C             0.1614642458        0.1097709269        0.2299944102
C             0.0878501588        0.6115191699        0.7251731680
C             0.3352437664        0.3834920463        0.2216643208
C             0.0486473084        0.5275356879        0.6472789896
C             0.2945565762        0.4695305921        0.1459751904
C             0.1108104571        0.4830369190        0.5497746248
C             0.3564941571        0.5186148351        0.0496956944
C             0.4325423411        0.1035865134        0.4667497578
C             0.1816574887        0.9006755475        0.9652646295
C             0.0705242961        0.3930835810        0.4709289836
C             0.3155432125        0.6079665940        0.9699156346
C             0.7880892807        0.9643230812        0.5223679963
C             0.5324324507        0.0293884245        0.0284854952
C             0.8912675196        0.0080897400        0.5409374316
C             0.6375008111        0.9889549266        0.0403720713
C             0.9536806945        0.9619126695        0.6401738691
C             0.7024595420        0.0381452373        0.1349764791
C             0.7112235297        0.5282628054        0.5337095023
C             0.9598594972        0.4751076743        0.0344552743
C             0.7478930049        0.6112793946        0.6157112935
C             0.9970057656        0.3904234057        0.1126129729
C             0.7502964374        0.8828480165        0.6045784036
C             0.4954805012        0.1099035903        0.1127186169
C             0.9128940933        0.8801875463        0.7185131841
C             0.6627025194        0.1197485155        0.2146296520
C             0.5870547580        0.6099683998        0.7258508627
C             0.8365273187        0.3818424610        0.2227197224
C             0.5471468525        0.5270716699        0.6469586804
C             0.7955640011        0.4674974552        0.1467675610
C             0.6091186465        0.4830153563        0.5490423096
C             0.8572459950        0.5162597802        0.0500469110
C             0.9325125852        0.0979847366        0.4642444280
C             0.6781901475        0.8995078583        0.9622044806
C             0.5682688738        0.3942121625        0.4691907450
C             0.8160479645        0.6055854515        0.9705900507
F             0.5519805221       -0.0055306987        0.6678973638
F             0.9746977548        1.0062094574        0.9306086002
F             0.2782960192        0.4975005548        0.4446782337
F             0.1978746327        0.5025309724        0.1708185914
F             0.7225613195       -0.0037952782        0.4294316105
F             0.4637049298        0.9948409324        0.9403911315
F             0.7769119633        0.4963106855        0.4443497509
F             0.6990153391        0.5006809587        0.1718615191
H             0.2309022040        1.0153430281        0.4590072567
H             0.0340365639        0.9907565298        0.6611233836
H             0.2817333132        0.9981677111        0.1712002583
H             0.0131474699        0.5094848777        0.9637031936
H             0.3277538971        0.6470463648        0.6020796283
H             0.0767100890        0.3578522871        0.1031029451
H             0.1647293773        0.8696750093        0.6022942017
H             0.4128421029        0.1369115487        0.1041929242
H             0.4620900499        0.8437862090        0.7929511391
H             0.2082990267        0.1424995803        0.3106905809
H             0.0409135109        0.6454541794        0.8025501163
H             0.2857900852        0.3482145973        0.2960763427
H             0.4675441177        0.4960845466        0.6641644082
H             0.7843773479        1.0117976188        0.1509539112
H             0.5127367940        0.5117997422        0.9640924006
H             0.8278665124        0.6437993763        0.6040601735
H             0.5756240840        0.3596948402        0.1028054717
H             0.6695465386        0.8522724617        0.5904009364
H             0.9212059075        0.1466134501        0.0956742174
H             0.9603400077        0.8456214023        0.7971762978
H             0.7124110156        0.1562623486        0.2898808076
H             0.5405181015        0.6440136232        0.8035255502
H             0.7875282206        0.3468383740        0.2977250128
H             0.9693482625        0.4960524795        0.6651254432
N             0.3095994591        0.8508920016        0.7032064897
N             0.0618358710        0.1500248733        0.2104884402
N             0.1868240767        0.6528338436        0.7083841538
N             0.4350525061        0.3482249972        0.2055963530
N             0.8114869190        0.8442358777        0.7020827962
N             0.5598016178        0.1526115100        0.2046441281
N             0.6865291846        0.6501932222        0.7095791759
N             0.9363033255        0.3465484934        0.2062875505
Ni            0.2496518948        0.7546782641        0.8366106083
Ni            0.4997354936        0.2493718090        0.3391910909
Ni            0.7492106818        0.7515418591        0.8369655308
Ni            1.0002845777        0.2482759394        0.3398251899
O             0.1257934209        0.3425180779        0.3865142518
O             0.3728626531        0.6546703292        0.8838576798
O             0.3755309276        0.1515143748        0.3782605261
O             0.1264987614        0.8536682305        0.8747774339
O             0.4725124179        0.3589667849        0.4803426136
O             0.2205753394        0.6453655126        0.9780054399
O             0.0285139330        0.1325845299        0.4802710651
O             0.2771076526        0.8644226545        0.9802326346
O             0.6232646581        0.3448172426        0.3834526801
O             0.8731543153        0.6527072980        0.8846690810
O             0.8771454479        0.1490609656        0.3773290376
O             0.6222183676        0.8466969105        0.8777179070
O             0.9745589344        0.3580645980        0.4816084279
O             0.7209569584        0.6426600642        0.9789574738
O             0.5282948123        0.1391624241        0.4785765671
O             0.7752326514        0.8665732018        0.9746424761
End final coordinates



     Writing output data file ./QE_relaxation_results/pbesol_relax/NiPyC2_relax_sc211_meta_functionalized_F_pbesol_relax.save/
 
     init_run     :     32.83s CPU     40.16s WALL (       1 calls)
     electrons    :  35246.47s CPU  44844.36s WALL (      44 calls)
     update_pot   :    322.80s CPU    359.66s WALL (      43 calls)
     forces       :    659.04s CPU    784.19s WALL (      44 calls)

     Called by init_run:
     wfcinit      :     24.45s CPU     31.34s WALL (       1 calls)
     potinit      :      3.79s CPU      4.08s WALL (       1 calls)
     hinit0       :      3.16s CPU      3.28s WALL (       1 calls)

     Called by electrons:
     c_bands      :  32854.96s CPU  41324.51s WALL (     633 calls)
     sum_band     :   1452.12s CPU   2158.71s WALL (     633 calls)
     v_of_rho     :    425.96s CPU    569.88s WALL (     662 calls)
     mix_rho      :    506.87s CPU    747.17s WALL (     633 calls)

     Called by c_bands:
     init_us_2    :     29.87s CPU     31.86s WALL (    1267 calls)
     regterg      :  32681.54s CPU  40442.78s WALL (     633 calls)

     Called by sum_band:

     Called by *egterg:
     h_psi        :  11978.47s CPU  15316.81s WALL (    2240 calls)
     g_psi        :      7.27s CPU      7.58s WALL (    1606 calls)
     rdiaghg      :   1582.55s CPU   1592.19s WALL (    2181 calls)

     Called by h_psi:
     h_psi:calbec :   3343.74s CPU   4198.26s WALL (    2240 calls)
     vloc_psi     :   5362.25s CPU   7834.88s WALL (    2240 calls)
     add_vuspsi   :   3240.28s CPU   3249.97s WALL (    2240 calls)

     General routines
     calbec       :   3772.67s CPU   4734.54s WALL (    2416 calls)
     fft          :    289.93s CPU    486.25s WALL (   10443 calls)
     ffts         :    343.87s CPU    520.46s WALL (   12122 calls)
     fftw         :   5734.28s CPU   8792.25s WALL (  468067 calls)
 
     Parallel routines
     fft_scatt_xy :   1062.50s CPU   1138.44s WALL (  490632 calls)
     fft_scatt_yz :   1921.52s CPU   5038.50s WALL (  490632 calls)
 
     PWSCF        :     10h 4m CPU     12h47m WALL

 
   This run was terminated on:  11:48: 8  22Jun2020            

=------------------------------------------------------------------------------=
   JOB DONE.
=------------------------------------------------------------------------------=
QE finished Mon Jun 22 11:48:08 PDT 2020
