/apps/openmpi/3.1_intel-19/bin/mpiexec
starting QE Tue Jun 23 08:21:46 PDT 2020

     Program PWSCF v.6.5 starts on 23Jun2020 at  8:21:48 

     This program is part of the open-source Quantum ESPRESSO suite
     for quantum simulation of materials; please cite
         "P. Giannozzi et al., J. Phys.:Condens. Matter 21 395502 (2009);
         "P. Giannozzi et al., J. Phys.:Condens. Matter 29 465901 (2017);
          URL http://www.quantum-espresso.org", 
     in publications or presentations arising from this work. More details at
     http://www.quantum-espresso.org/quote

     Parallel version (MPI), running on    32 processors

     MPI processes distributed on     1 nodes
     K-points division:     npool     =       2
     R & G space division:  proc/nbgrp/npool/nimage =      16
     Reading input from QE_input_scripts/pw.NiPyC2_relax_sc211_meta_functionalized_CH3_pbesol_relax.in
Warning: card &CELL ignored
Warning: card    CELL_DYNAMICS = 'BFGS' ignored
Warning: card    CELL_DOFREE = 'XYZ' ignored
Warning: card / ignored

     Current dimensions of program PWSCF are:
     Max number of different atomic species (ntypx) = 10
     Max number of k-points (npk) =  40000
     Max angular momentum in pseudopotentials (lmaxx) =  3

     -------------------------------------------------
     Parameters for Dispersion (Grimme-D2) Correction:
     -------------------------------------------------
       atom      VdW radius       C_6     

        C          2.744         60.710
        H          1.892          4.857
        N          2.640         42.670
        Ni         2.952        374.666
        O          2.536         24.284

     gamma-point specific algorithms are used

     Subspace diagonalization in iterative solution of the eigenvalue problem:
     a serial algorithm will be used

 
     Parallelization info
     --------------------
     sticks:   dense  smooth     PW     G-vecs:    dense   smooth      PW
     Min        1113    1113    277                91686    91686   11456
     Max        1116    1116    280                91692    91692   11460
     Sum       17829   17829   4453              1467017  1467017  183325
 


     bravais-lattice index     =            0
     lattice parameter (alat)  =      23.6322  a.u.
     unit-cell volume          =   10858.6228 (a.u.)^3
     number of atoms/cell      =          132
     number of atomic types    =            5
     number of electrons       =       448.00 (up: 228.00, down: 220.00)
     number of Kohn-Sham states=          274
     kinetic-energy cutoff     =     100.0000  Ry
     charge density cutoff     =     400.0000  Ry
     convergence threshold     =      1.0E-06
     mixing beta               =       0.7000
     number of iterations used =            8  local-TF  mixing
     Exchange-correlation= PBESOL
                           (   1   4  10   8   0   0   0)
     nstep                     =          200


     celldm(1)=  23.632159  celldm(2)=   0.000000  celldm(3)=   0.000000
     celldm(4)=   0.000000  celldm(5)=   0.000000  celldm(6)=   0.000000

     crystal axes: (cart. coord. in units of alat)
               a(1) = (   1.000000   0.000000   0.000000 )  
               a(2) = (   0.000000   1.001423   0.000000 )  
               a(3) = (  -0.018199   0.000000   0.821574 )  

     reciprocal axes: (cart. coord. in units 2 pi/alat)
               b(1) = (  1.000000  0.000000  0.022152 )  
               b(2) = (  0.000000  0.998579  0.000000 )  
               b(3) = (  0.000000  0.000000  1.217175 )  


     PseudoPot. # 1 for C  read from file:
     ./pseudo/C.pbesol-nc.UPF
     MD5 check sum: ce26087537ded160c8d400e183a8bf42
     Pseudo is Norm-conserving, Zval =  4.0
     Generated using "atomic" code by A. Dal Corso v.6.5
     Using radial grid of 1073 points,  1 beta functions with: 
                l(1) =   1

     PseudoPot. # 2 for H  read from file:
     ./pseudo/H.pbesol-n-nc.UPF
     MD5 check sum: 7995ef24074557c85b430109caaacc09
     Pseudo is Norm-conserving, Zval =  1.0
     Generated using "atomic" code by A. Dal Corso v.6.5
     Using radial grid of  929 points,  0 beta functions with: 

     PseudoPot. # 3 for N  read from file:
     ./pseudo/N.pbesol-nc.UPF
     MD5 check sum: e18cc5e4b8a5600c1a19b30c2cab1ca0
     Pseudo is Norm-conserving, Zval =  5.0
     Generated using "atomic" code by A. Dal Corso v.6.5
     Using radial grid of 1085 points,  1 beta functions with: 
                l(1) =   1

     PseudoPot. # 4 for Ni read from file:
     ./pseudo/Ni.pbesol-n-nc.UPF
     MD5 check sum: 623411631e0c2eb7c0b2b9815547d2d9
     Pseudo is Norm-conserving + core correction, Zval = 10.0
     Generated using "atomic" code by A. Dal Corso v.6.5
     Using radial grid of 1195 points,  2 beta functions with: 
                l(1) =   1
                l(2) =   2

     PseudoPot. # 5 for O  read from file:
     ./pseudo/O.pbesol-nc.UPF
     MD5 check sum: 73d10e7e91dbfcbe8a7e362101007f84
     Pseudo is Norm-conserving, Zval =  6.0
     Generated using "atomic" code by A. Dal Corso v.6.5
     Using radial grid of 1095 points,  1 beta functions with: 
                l(1) =   1

     atomic species   valence    mass     pseudopotential
        C              4.00    12.01070     C ( 1.00)
        H              1.00     1.00794     H ( 1.00)
        N              5.00    14.00670     N ( 1.00)
        Ni            10.00    58.69340     Ni( 1.00)
        O              6.00    15.99940     O ( 1.00)

     Starting magnetic structure 
     atomic species   magnetization
        C            0.000
        H            0.000
        N            0.000
        Ni           0.250
        O            0.000

     No symmetry found



   Cartesian axes

     site n.     atom                  positions (alat units)
         1           C   tau(   1) = (   0.2787122   0.9714307   0.4288486  )
         2           C   tau(   2) = (   0.0379730   0.0311503   0.0183277  )
         3           C   tau(   3) = (   0.3806882   0.0117868   0.4489838  )
         4           C   tau(   4) = (   0.1394042   0.9891499   0.0379124  )
         5           C   tau(   5) = (   0.4400787   0.9715829   0.5343281  )
         6           C   tau(   6) = (   0.1997920   0.0283934   0.1231482  )
         7           C   tau(   7) = (   0.1986011   0.5304580   0.4324635  )
         8           C   tau(   8) = (   0.4580372   0.4720800   0.0229252  )
         9           C   tau(   9) = (   0.2341003   0.6142040   0.4982314  )
        10           C   tau(  10) = (   0.4948422   0.3892302   0.0892369  )
        11           C   tau(  11) = (   0.2384981   0.8904717   0.4955761  )
        12           C   tau(  12) = (  -0.0008282   0.1123917   0.0856467  )
        13           C   tau(  13) = (   0.3947360   0.8906489   0.5977380  )
        14           C   tau(  14) = (   0.1557890   0.1097029   0.1871645  )
        15           C   tau(  15) = (   0.0756247   0.6098498   0.5975737  )
        16           C   tau(  16) = (   0.3367152   0.3921904   0.1884642  )
        17           C   tau(  17) = (   0.0350715   0.5258264   0.5351012  )
        18           C   tau(  18) = (   0.2948780   0.4753867   0.1254988  )
        19           C   tau(  19) = (   0.0981522   0.4849593   0.4519611  )
        20           C   tau(  20) = (   0.3569104   0.5163900   0.0416029  )
        21           C   tau(  21) = (   0.4248178   0.0994604   0.3833638  )
        22           C   tau(  22) = (   0.1639424   0.9010006   0.7933713  )
        23           C   tau(  23) = (   0.0588120   0.3950355   0.3866953  )
        24           C   tau(  24) = (   0.2984059   0.6050320   0.7961934  )
        25           C   tau(  25) = (   0.7787122   0.9714307   0.4288486  )
        26           C   tau(  26) = (   0.5379730   0.0311503   0.0183277  )
        27           C   tau(  27) = (   0.8806882   0.0117868   0.4489838  )
        28           C   tau(  28) = (   0.6394042   0.9891499   0.0379124  )
        29           C   tau(  29) = (   0.9400787   0.9715829   0.5343281  )
        30           C   tau(  30) = (   0.6997920   0.0283934   0.1231482  )
        31           C   tau(  31) = (   0.6986021   0.5304580   0.4324635  )
        32           C   tau(  32) = (   0.9580382   0.4720800   0.0229252  )
        33           C   tau(  33) = (   0.7341003   0.6142040   0.4982314  )
        34           C   tau(  34) = (   0.9948422   0.3892302   0.0892369  )
        35           C   tau(  35) = (   0.7384981   0.8904717   0.4955761  )
        36           C   tau(  36) = (   0.4991718   0.1123917   0.0856467  )
        37           C   tau(  37) = (   0.8947360   0.8906489   0.5977380  )
        38           C   tau(  38) = (   0.6557880   0.1097029   0.1871645  )
        39           C   tau(  39) = (   0.5756247   0.6098498   0.5975737  )
        40           C   tau(  40) = (   0.8367152   0.3921904   0.1884642  )
        41           C   tau(  41) = (   0.5350715   0.5258264   0.5351012  )
        42           C   tau(  42) = (   0.7948780   0.4753867   0.1254988  )
        43           C   tau(  43) = (   0.5981522   0.4849593   0.4519611  )
        44           C   tau(  44) = (   0.8569104   0.5163900   0.0416029  )
        45           C   tau(  45) = (   0.9248178   0.0994604   0.3833638  )
        46           C   tau(  46) = (   0.6639424   0.9010006   0.7933713  )
        47           C   tau(  47) = (   0.5588110   0.3950355   0.3866953  )
        48           C   tau(  48) = (   0.7984059   0.6050320   0.7961934  )
        49           C   tau(  49) = (   0.2079863   0.0076869   0.3376999  )
        50           C   tau(  50) = (   0.3111887   0.9908033   0.1507449  )
        51           C   tau(  51) = (   0.9244632   0.4841762   0.5617949  )
        52           C   tau(  52) = (   0.5133377   0.5090175   0.7551639  )
        53           C   tau(  53) = (   0.0517863   0.0077260   0.5626946  )
        54           C   tau(  54) = (   0.4481956   0.9964563   0.7488050  )
        55           C   tau(  55) = (   0.7722564   0.4940502   0.3432513  )
        56           C   tau(  56) = (   0.6839556   0.5159984   0.1526452  )
        57           H   tau(  57) = (   0.2505234   0.5016080   0.3691185  )
        58           H   tau(  58) = (  -0.0086584   0.5011092   0.7809458  )
        59           H   tau(  59) = (   0.3118554   0.6514319   0.4868937  )
        60           H   tau(  60) = (   0.0732386   0.3533532   0.0780726  )
        61           H   tau(  61) = (   0.1594426   0.8563401   0.4835457  )
        62           H   tau(  62) = (   0.4206861   0.1479423   0.0738480  )
        63           H   tau(  63) = (   0.4386511   0.8563902   0.6644572  )
        64           H   tau(  64) = (   0.2006191   0.1433067   0.2536997  )
        65           H   tau(  65) = (   0.0290492   0.6438591   0.6626884  )
        66           H   tau(  66) = (   0.2907535   0.3580349   0.2539083  )
        67           H   tau(  67) = (   0.4564147   0.4939330   0.5533319  )
        68           H   tau(  68) = (   0.2157623   0.5059201   0.1439924  )
        69           H   tau(  69) = (   0.7290596   1.0009978   0.3640502  )
        70           H   tau(  70) = (   0.9693669   0.0026958   0.7751545  )
        71           H   tau(  71) = (   0.5198044   1.0002267   0.5533467  )
        72           H   tau(  72) = (   0.7791988   1.0000865   0.1418054  )
        73           H   tau(  73) = (   0.8118554   0.6514319   0.4868937  )
        74           H   tau(  74) = (   0.5732386   0.3533532   0.0780726  )
        75           H   tau(  75) = (   0.6594426   0.8563401   0.4835457  )
        76           H   tau(  76) = (   0.9206861   0.1479423   0.0738480  )
        77           H   tau(  77) = (   0.9386511   0.8563902   0.6644572  )
        78           H   tau(  78) = (   0.7006201   0.1433067   0.2536997  )
        79           H   tau(  79) = (   0.5290492   0.6438591   0.6626884  )
        80           H   tau(  80) = (   0.7907535   0.3580349   0.2539083  )
        81           H   tau(  81) = (   0.1304529   0.9656675   0.3359138  )
        82           H   tau(  82) = (   0.1893806   0.0939796   0.3468949  )
        83           H   tau(  83) = (   0.2479073   0.9945336   0.2597842  )
        84           H   tau(  84) = (   0.3447200   0.0321867   0.2210667  )
        85           H   tau(  85) = (   0.3093152   0.9044535   0.1711717  )
        86           H   tau(  86) = (   0.3664301   0.0035611   0.0827424  )
        87           H   tau(  87) = (   0.8884823   0.5276900   0.6304523  )
        88           H   tau(  88) = (   0.9285319   0.3984533   0.5844268  )
        89           H   tau(  89) = (   0.8700019   0.4950076   0.4925584  )
        90           H   tau(  90) = (   0.5896957   0.4635118   0.7542627  )
        91           H   tau(  91) = (   0.5340767   0.5946472   0.7658633  )
        92           H   tau(  92) = (   0.4745483   0.4965327   0.6763191  )
        93           H   tau(  93) = (   0.0843998   0.9656946   0.6330517  )
        94           H   tau(  94) = (   0.0508402   0.0940206   0.5834171  )
        95           H   tau(  95) = (   0.1072369   0.9945386   0.4949541  )
        96           H   tau(  96) = (   0.3713194   0.0396453   0.7475044  )
        97           H   tau(  97) = (   0.4283246   0.9104060   0.7576073  )
        98           H   tau(  98) = (   0.4880788   0.0094234   0.6708351  )
        99           H   tau(  99) = (   0.8479322   0.5406665   0.3418119  )
       100           H   tau( 100) = (   0.7942864   0.4088071   0.3544460  )
       101           H   tau( 101) = (   0.7330470   0.5054424   0.2644483  )
       102           H   tau( 102) = (   0.6489094   0.4726047   0.2218596  )
       103           H   tau( 103) = (   0.6872190   0.6019275   0.1746125  )
       104           H   tau( 104) = (   0.6291685   0.5040454   0.0838515  )
       105           N   tau( 105) = (   0.2956096   0.8524646   0.5790685  )
       106           N   tau( 106) = (   0.0569790   0.1490689   0.1692870  )
       107           N   tau( 107) = (   0.1736962   0.6512356   0.5798983  )
       108           N   tau( 108) = (   0.4350238   0.3514275   0.1709211  )
       109           N   tau( 109) = (   0.7956096   0.8524646   0.5790685  )
       110           N   tau( 110) = (   0.5569790   0.1490689   0.1692870  )
       111           N   tau( 111) = (   0.6736972   0.6512356   0.5798983  )
       112           N   tau( 112) = (   0.9350238   0.3514275   0.1709211  )
       113           Ni  tau( 113) = (   0.2317814   0.7525556   0.6871039  )
       114           Ni  tau( 114) = (   0.4937992   0.2483520   0.2786599  )
       115           Ni  tau( 115) = (   0.7317814   0.7525556   0.6871039  )
       116           Ni  tau( 116) = (   0.9937992   0.2483520   0.2786599  )
       117           O   tau( 117) = (   0.1158100   0.3481839   0.3145586  )
       118           O   tau( 118) = (   0.3551690   0.6519036   0.7240468  )
       119           O   tau( 119) = (   0.3707656   0.1477170   0.3098797  )
       120           O   tau( 120) = (   0.1091506   0.8535652   0.7199135  )
       121           O   tau( 121) = (   0.4642788   0.3566669   0.3968154  )
       122           O   tau( 122) = (   0.2033039   0.6423280   0.8050417  )
       123           O   tau( 123) = (   0.0200847   0.1353504   0.3952413  )
       124           O   tau( 124) = (   0.2588616   0.8639860   0.8046490  )
       125           O   tau( 125) = (   0.6158110   0.3481839   0.3145586  )
       126           O   tau( 126) = (   0.8551690   0.6519036   0.7240468  )
       127           O   tau( 127) = (   0.8707656   0.1477170   0.3098797  )
       128           O   tau( 128) = (   0.6091506   0.8535652   0.7199135  )
       129           O   tau( 129) = (   0.9642788   0.3566669   0.3968154  )
       130           O   tau( 130) = (   0.7033039   0.6423280   0.8050417  )
       131           O   tau( 131) = (   0.5200847   0.1353504   0.3952413  )
       132           O   tau( 132) = (   0.7588616   0.8639860   0.8046490  )

     number of k points=     1  Marzari-Vanderbilt smearing, width (Ry)=  0.2000
                       cart. coord. in units 2pi/alat
        k(    1) = (   0.0000000   0.0000000   0.0000000), wk =   1.0000000

     Dense  grid:   733509 G-vectors     FFT dimensions: ( 160, 160, 125)

     Estimated max dynamical RAM per process >     332.29 MB

     Estimated total dynamical RAM >      10.38 GB
     Generating pointlists ...
     new r_m :   0.0358 (alat units)  0.8461 (a.u.) for type    1
     new r_m :   0.0358 (alat units)  0.8461 (a.u.) for type    2
     new r_m :   0.0445 (alat units)  1.0514 (a.u.) for type    3
     new r_m :   0.0654 (alat units)  1.5454 (a.u.) for type    4
     new r_m :   0.0423 (alat units)  0.9991 (a.u.) for type    5

     Check: negative core charge=   -0.000145

     Initial potential from superposition of free atoms

     starting charge  447.99619, renormalised to  448.00000
     Starting wfcs are  404 randomized atomic wfcs

     total cpu time spent up to now is       42.2 secs

     Self-consistent Calculation

     iteration #  1     ecut=   100.00 Ry     beta= 0.70
     Davidson diagonalization with overlap
     ethr =  1.00E-02,  avg # of iterations =  4.0

     total cpu time spent up to now is      140.9 secs

     total energy              =   -1728.06942229 Ry
     Harris-Foulkes estimate   =   -1737.11901624 Ry
     estimated scf accuracy    <      23.79331915 Ry

     total magnetization       =     8.00 Bohr mag/cell
     absolute magnetization    =     8.79 Bohr mag/cell

     iteration #  2     ecut=   100.00 Ry     beta= 0.70
     Davidson diagonalization with overlap
     ethr =  5.31E-03,  avg # of iterations =  2.0

     total cpu time spent up to now is      198.7 secs

     total energy              =   -1731.50227997 Ry
     Harris-Foulkes estimate   =   -1735.79718947 Ry
     estimated scf accuracy    <      20.10091866 Ry

     total magnetization       =     8.00 Bohr mag/cell
     absolute magnetization    =     8.26 Bohr mag/cell

     iteration #  3     ecut=   100.00 Ry     beta= 0.70
     Davidson diagonalization with overlap
     ethr =  4.49E-03,  avg # of iterations =  1.0

     total cpu time spent up to now is      253.5 secs

     total energy              =   -1731.27204347 Ry
     Harris-Foulkes estimate   =   -1732.39497004 Ry
     estimated scf accuracy    <       3.35239446 Ry

     total magnetization       =     8.00 Bohr mag/cell
     absolute magnetization    =     8.15 Bohr mag/cell

     iteration #  4     ecut=   100.00 Ry     beta= 0.70
     Davidson diagonalization with overlap
     ethr =  7.48E-04,  avg # of iterations =  6.5

     total cpu time spent up to now is      325.5 secs

     total energy              =   -1731.16237561 Ry
     Harris-Foulkes estimate   =   -1732.39385464 Ry
     estimated scf accuracy    <      10.81363275 Ry

     total magnetization       =     8.00 Bohr mag/cell
     absolute magnetization    =     8.25 Bohr mag/cell

     iteration #  5     ecut=   100.00 Ry     beta= 0.70
     Davidson diagonalization with overlap
     ethr =  7.48E-04,  avg # of iterations =  2.0

     total cpu time spent up to now is      381.0 secs

     total energy              =   -1731.67553804 Ry
     Harris-Foulkes estimate   =   -1731.75603206 Ry
     estimated scf accuracy    <       0.40525180 Ry

     total magnetization       =     8.00 Bohr mag/cell
     absolute magnetization    =     8.18 Bohr mag/cell

     iteration #  6     ecut=   100.00 Ry     beta= 0.70
     Davidson diagonalization with overlap
     ethr =  9.05E-05,  avg # of iterations = 12.0

     total cpu time spent up to now is      450.9 secs

     total energy              =   -1731.67681864 Ry
     Harris-Foulkes estimate   =   -1731.75618091 Ry
     estimated scf accuracy    <       1.47332693 Ry

     total magnetization       =     8.00 Bohr mag/cell
     absolute magnetization    =     8.17 Bohr mag/cell

     iteration #  7     ecut=   100.00 Ry     beta= 0.70
     Davidson diagonalization with overlap
     ethr =  9.05E-05,  avg # of iterations =  1.0

     total cpu time spent up to now is      504.8 secs

     total energy              =   -1731.56630231 Ry
     Harris-Foulkes estimate   =   -1731.71093310 Ry
     estimated scf accuracy    <       0.88369952 Ry

     total magnetization       =     8.00 Bohr mag/cell
     absolute magnetization    =     8.18 Bohr mag/cell

     iteration #  8     ecut=   100.00 Ry     beta= 0.70
     Davidson diagonalization with overlap
     ethr =  9.05E-05,  avg # of iterations =  2.5

     total cpu time spent up to now is      561.3 secs

     total energy              =   -1731.63081108 Ry
     Harris-Foulkes estimate   =   -1731.64258171 Ry
     estimated scf accuracy    <       0.18663568 Ry

     total magnetization       =     8.00 Bohr mag/cell
     absolute magnetization    =     8.20 Bohr mag/cell

     iteration #  9     ecut=   100.00 Ry     beta= 0.70
     Davidson diagonalization with overlap
     ethr =  4.17E-05,  avg # of iterations =  2.0

     total cpu time spent up to now is      615.3 secs

     total energy              =   -1731.62176155 Ry
     Harris-Foulkes estimate   =   -1731.63996267 Ry
     estimated scf accuracy    <       0.18965738 Ry

     total magnetization       =     8.00 Bohr mag/cell
     absolute magnetization    =     8.20 Bohr mag/cell

     iteration # 10     ecut=   100.00 Ry     beta= 0.70
     Davidson diagonalization with overlap
     ethr =  4.17E-05,  avg # of iterations =  6.0

     total cpu time spent up to now is      676.2 secs

     total energy              =   -1731.63694346 Ry
     Harris-Foulkes estimate   =   -1731.63487045 Ry
     estimated scf accuracy    <       0.04043988 Ry

     total magnetization       =     8.00 Bohr mag/cell
     absolute magnetization    =     8.18 Bohr mag/cell

     iteration # 11     ecut=   100.00 Ry     beta= 0.70
     Davidson diagonalization with overlap
     ethr =  9.03E-06,  avg # of iterations =  8.5

     total cpu time spent up to now is      744.5 secs

     total energy              =   -1731.63772986 Ry
     Harris-Foulkes estimate   =   -1731.63838343 Ry
     estimated scf accuracy    <       0.03545399 Ry

     total magnetization       =     8.00 Bohr mag/cell
     absolute magnetization    =     8.17 Bohr mag/cell

     iteration # 12     ecut=   100.00 Ry     beta= 0.70
     Davidson diagonalization with overlap
     ethr =  7.91E-06,  avg # of iterations =  2.0

     total cpu time spent up to now is      800.0 secs

     total energy              =   -1731.63931452 Ry
     Harris-Foulkes estimate   =   -1731.64011191 Ry
     estimated scf accuracy    <       0.02197886 Ry

     total magnetization       =     8.00 Bohr mag/cell
     absolute magnetization    =     8.17 Bohr mag/cell

     iteration # 13     ecut=   100.00 Ry     beta= 0.70
     Davidson diagonalization with overlap
     ethr =  4.91E-06,  avg # of iterations =  2.0

     total cpu time spent up to now is      856.1 secs

     total energy              =   -1731.64175935 Ry
     Harris-Foulkes estimate   =   -1731.64048061 Ry
     estimated scf accuracy    <       0.00484890 Ry

     total magnetization       =     8.00 Bohr mag/cell
     absolute magnetization    =     8.17 Bohr mag/cell

     iteration # 14     ecut=   100.00 Ry     beta= 0.70
     Davidson diagonalization with overlap
     ethr =  1.08E-06,  avg # of iterations =  7.0

     total cpu time spent up to now is      921.2 secs

     total energy              =   -1731.64254919 Ry
     Harris-Foulkes estimate   =   -1731.64194367 Ry
     estimated scf accuracy    <       0.00090757 Ry

     total magnetization       =     8.00 Bohr mag/cell
     absolute magnetization    =     8.16 Bohr mag/cell

     iteration # 15     ecut=   100.00 Ry     beta= 0.70
     Davidson diagonalization with overlap
     ethr =  2.03E-07,  avg # of iterations =  3.5

     total cpu time spent up to now is      980.9 secs

     total energy              =   -1731.64270238 Ry
     Harris-Foulkes estimate   =   -1731.64260361 Ry
     estimated scf accuracy    <       0.00036105 Ry

     total magnetization       =     8.00 Bohr mag/cell
     absolute magnetization    =     8.16 Bohr mag/cell

     iteration # 16     ecut=   100.00 Ry     beta= 0.70
     Davidson diagonalization with overlap
     ethr =  8.06E-08,  avg # of iterations =  2.5

     total cpu time spent up to now is     1040.6 secs

     total energy              =   -1731.64271464 Ry
     Harris-Foulkes estimate   =   -1731.64272732 Ry
     estimated scf accuracy    <       0.00026902 Ry

     total magnetization       =     8.00 Bohr mag/cell
     absolute magnetization    =     8.16 Bohr mag/cell

     iteration # 17     ecut=   100.00 Ry     beta= 0.70
     Davidson diagonalization with overlap
     ethr =  6.00E-08,  avg # of iterations =  1.5

     total cpu time spent up to now is     1100.9 secs

     total energy              =   -1731.64274113 Ry
     Harris-Foulkes estimate   =   -1731.64274245 Ry
     estimated scf accuracy    <       0.00029769 Ry

     total magnetization       =     8.00 Bohr mag/cell
     absolute magnetization    =     8.16 Bohr mag/cell

     iteration # 18     ecut=   100.00 Ry     beta= 0.70
     Davidson diagonalization with overlap
     ethr =  6.00E-08,  avg # of iterations =  2.0

     total cpu time spent up to now is     1155.6 secs

     total energy              =   -1731.64275569 Ry
     Harris-Foulkes estimate   =   -1731.64275767 Ry
     estimated scf accuracy    <       0.00005099 Ry

     total magnetization       =     8.00 Bohr mag/cell
     absolute magnetization    =     8.16 Bohr mag/cell

     iteration # 19     ecut=   100.00 Ry     beta= 0.70
     Davidson diagonalization with overlap
     ethr =  1.14E-08,  avg # of iterations =  2.5

     total cpu time spent up to now is     1209.8 secs

     total energy              =   -1731.64275630 Ry
     Harris-Foulkes estimate   =   -1731.64276299 Ry
     estimated scf accuracy    <       0.00012620 Ry

     total magnetization       =     8.00 Bohr mag/cell
     absolute magnetization    =     8.16 Bohr mag/cell

     iteration # 20     ecut=   100.00 Ry     beta= 0.70
     Davidson diagonalization with overlap
     ethr =  1.14E-08,  avg # of iterations =  1.5

     total cpu time spent up to now is     1263.9 secs

     total energy              =   -1731.64276265 Ry
     Harris-Foulkes estimate   =   -1731.64276176 Ry
     estimated scf accuracy    <       0.00000988 Ry

     total magnetization       =     8.00 Bohr mag/cell
     absolute magnetization    =     8.17 Bohr mag/cell

     iteration # 21     ecut=   100.00 Ry     beta= 0.70
     Davidson diagonalization with overlap
     ethr =  2.21E-09,  avg # of iterations =  3.0

     total cpu time spent up to now is     1322.1 secs

     total energy              =   -1731.64276420 Ry
     Harris-Foulkes estimate   =   -1731.64276373 Ry
     estimated scf accuracy    <       0.00000897 Ry

     total magnetization       =     8.00 Bohr mag/cell
     absolute magnetization    =     8.17 Bohr mag/cell

     iteration # 22     ecut=   100.00 Ry     beta= 0.70
     Davidson diagonalization with overlap
     ethr =  2.00E-09,  avg # of iterations =  1.5

     total cpu time spent up to now is     1376.4 secs

     total energy              =   -1731.64276492 Ry
     Harris-Foulkes estimate   =   -1731.64276502 Ry
     estimated scf accuracy    <       0.00000616 Ry

     total magnetization       =     8.00 Bohr mag/cell
     absolute magnetization    =     8.17 Bohr mag/cell

     iteration # 23     ecut=   100.00 Ry     beta= 0.70
     Davidson diagonalization with overlap
     ethr =  1.37E-09,  avg # of iterations =  1.5

     total cpu time spent up to now is     1430.3 secs

     total energy              =   -1731.64276524 Ry
     Harris-Foulkes estimate   =   -1731.64276533 Ry
     estimated scf accuracy    <       0.00000367 Ry

     total magnetization       =     8.00 Bohr mag/cell
     absolute magnetization    =     8.17 Bohr mag/cell

     iteration # 24     ecut=   100.00 Ry     beta= 0.70
     Davidson diagonalization with overlap
     ethr =  8.19E-10,  avg # of iterations =  1.5

     total cpu time spent up to now is     1486.4 secs

     total energy              =   -1731.64276545 Ry
     Harris-Foulkes estimate   =   -1731.64276542 Ry
     estimated scf accuracy    <       0.00000114 Ry

     total magnetization       =     8.00 Bohr mag/cell
     absolute magnetization    =     8.17 Bohr mag/cell

     iteration # 25     ecut=   100.00 Ry     beta= 0.70
     Davidson diagonalization with overlap
     ethr =  2.54E-10,  avg # of iterations =  3.5
 
     Magnetic moment per site:
     atom:    1    charge:    0.8357    magn:    0.0064    constr:    0.0000
     atom:    2    charge:    0.8456    magn:    0.0060    constr:    0.0000
     atom:    3    charge:    0.8487    magn:    0.0052    constr:    0.0000
     atom:    4    charge:    0.8480    magn:    0.0048    constr:    0.0000
     atom:    5    charge:    0.8474    magn:    0.0071    constr:    0.0000
     atom:    6    charge:    0.8393    magn:    0.0069    constr:    0.0000
     atom:    7    charge:    0.8466    magn:    0.0058    constr:    0.0000
     atom:    8    charge:    0.8361    magn:    0.0067    constr:    0.0000
     atom:    9    charge:    0.8379    magn:    0.0059    constr:    0.0000
     atom:   10    charge:    0.8391    magn:    0.0072    constr:    0.0000
     atom:   11    charge:    0.8390    magn:    0.0075    constr:    0.0000
     atom:   12    charge:    0.8371    magn:    0.0060    constr:    0.0000
     atom:   13    charge:    0.8433    magn:    0.0074    constr:    0.0000
     atom:   14    charge:    0.8448    magn:    0.0082    constr:    0.0000
     atom:   15    charge:    0.8410    magn:    0.0074    constr:    0.0000
     atom:   16    charge:    0.8393    magn:    0.0058    constr:    0.0000
     atom:   17    charge:    0.8353    magn:    0.0057    constr:    0.0000
     atom:   18    charge:    0.8455    magn:    0.0061    constr:    0.0000
     atom:   19    charge:    0.8505    magn:    0.0061    constr:    0.0000
     atom:   20    charge:    0.8481    magn:    0.0056    constr:    0.0000
     atom:   21    charge:    0.8226    magn:   -0.0013    constr:    0.0000
     atom:   22    charge:    0.8236    magn:   -0.0011    constr:    0.0000
     atom:   23    charge:    0.8227    magn:   -0.0016    constr:    0.0000
     atom:   24    charge:    0.8235    magn:   -0.0019    constr:    0.0000
     atom:   25    charge:    0.8450    magn:    0.0059    constr:    0.0000
     atom:   26    charge:    0.8362    magn:    0.0068    constr:    0.0000
     atom:   27    charge:    0.8486    magn:    0.0060    constr:    0.0000
     atom:   28    charge:    0.8482    magn:    0.0055    constr:    0.0000
     atom:   29    charge:    0.8350    magn:    0.0058    constr:    0.0000
     atom:   30    charge:    0.8468    magn:    0.0061    constr:    0.0000
     atom:   31    charge:    0.8375    magn:    0.0060    constr:    0.0000
     atom:   32    charge:    0.8456    magn:    0.0060    constr:    0.0000
     atom:   33    charge:    0.8389    magn:    0.0076    constr:    0.0000
     atom:   34    charge:    0.8368    magn:    0.0060    constr:    0.0000
     atom:   35    charge:    0.8378    magn:    0.0059    constr:    0.0000
     atom:   36    charge:    0.8395    magn:    0.0073    constr:    0.0000
     atom:   37    charge:    0.8416    magn:    0.0073    constr:    0.0000
     atom:   38    charge:    0.8393    magn:    0.0059    constr:    0.0000
     atom:   39    charge:    0.8426    magn:    0.0072    constr:    0.0000
     atom:   40    charge:    0.8443    magn:    0.0077    constr:    0.0000
     atom:   41    charge:    0.8473    magn:    0.0070    constr:    0.0000
     atom:   42    charge:    0.8378    magn:    0.0065    constr:    0.0000
     atom:   43    charge:    0.8505    magn:    0.0054    constr:    0.0000
     atom:   44    charge:    0.8478    magn:    0.0050    constr:    0.0000
     atom:   45    charge:    0.8222    magn:   -0.0017    constr:    0.0000
     atom:   46    charge:    0.8230    magn:   -0.0018    constr:    0.0000
     atom:   47    charge:    0.8230    magn:   -0.0013    constr:    0.0000
     atom:   48    charge:    0.8238    magn:   -0.0015    constr:    0.0000
     atom:   49    charge:    0.8496    magn:    0.0077    constr:    0.0000
     atom:   50    charge:    0.8498    magn:    0.0048    constr:    0.0000
     atom:   51    charge:    0.8417    magn:    0.0056    constr:    0.0000
     atom:   52    charge:    0.8444    magn:    0.0041    constr:    0.0000
     atom:   53    charge:    0.8429    magn:    0.0064    constr:    0.0000
     atom:   54    charge:    0.8459    magn:    0.0046    constr:    0.0000
     atom:   55    charge:    0.8509    magn:    0.0085    constr:    0.0000
     atom:   56    charge:    0.8491    magn:    0.0043    constr:    0.0000
     atom:   57    charge:    0.4873    magn:   -0.0010    constr:    0.0000
     atom:   58    charge:    0.4881    magn:   -0.0011    constr:    0.0000
     atom:   59    charge:    0.4908    magn:   -0.0009    constr:    0.0000
     atom:   60    charge:    0.4905    magn:   -0.0009    constr:    0.0000
     atom:   61    charge:    0.4910    magn:   -0.0007    constr:    0.0000
     atom:   62    charge:    0.4921    magn:   -0.0009    constr:    0.0000
     atom:   63    charge:    0.4927    magn:    0.0012    constr:    0.0000
     atom:   64    charge:    0.4929    magn:    0.0014    constr:    0.0000
     atom:   65    charge:    0.4869    magn:   -0.0008    constr:    0.0000
     atom:   66    charge:    0.4869    magn:   -0.0007    constr:    0.0000
     atom:   67    charge:    0.4887    magn:   -0.0004    constr:    0.0000
     atom:   68    charge:    0.4875    magn:   -0.0010    constr:    0.0000
     atom:   69    charge:    0.4879    magn:   -0.0010    constr:    0.0000
     atom:   70    charge:    0.4876    magn:   -0.0011    constr:    0.0000
     atom:   71    charge:    0.4885    magn:   -0.0003    constr:    0.0000
     atom:   72    charge:    0.4873    magn:   -0.0010    constr:    0.0000
     atom:   73    charge:    0.4907    magn:   -0.0009    constr:    0.0000
     atom:   74    charge:    0.4916    magn:   -0.0010    constr:    0.0000
     atom:   75    charge:    0.4907    magn:   -0.0009    constr:    0.0000
     atom:   76    charge:    0.4908    magn:   -0.0009    constr:    0.0000
     atom:   77    charge:    0.4875    magn:   -0.0008    constr:    0.0000
     atom:   78    charge:    0.4868    magn:   -0.0006    constr:    0.0000
     atom:   79    charge:    0.4910    magn:    0.0008    constr:    0.0000
     atom:   80    charge:    0.4914    magn:    0.0009    constr:    0.0000
     atom:   81    charge:    0.4800    magn:    0.0016    constr:    0.0000
     atom:   82    charge:    0.4762    magn:    0.0045    constr:    0.0000
     atom:   83    charge:    0.4821    magn:    0.0056    constr:    0.0000
     atom:   84    charge:    0.4757    magn:    0.0038    constr:    0.0000
     atom:   85    charge:    0.4742    magn:    0.0012    constr:    0.0000
     atom:   86    charge:    0.4674    magn:    0.0047    constr:    0.0000
     atom:   87    charge:    0.4772    magn:    0.0042    constr:    0.0000
     atom:   88    charge:    0.4711    magn:    0.0033    constr:    0.0000
     atom:   89    charge:    0.4721    magn:    0.0040    constr:    0.0000
     atom:   90    charge:    0.4833    magn:    0.0013    constr:    0.0000
     atom:   91    charge:    0.4758    magn:    0.0040    constr:    0.0000
     atom:   92    charge:    0.4803    magn:    0.0034    constr:    0.0000
     atom:   93    charge:    0.4746    magn:    0.0044    constr:    0.0000
     atom:   94    charge:    0.4705    magn:    0.0032    constr:    0.0000
     atom:   95    charge:    0.4737    magn:    0.0037    constr:    0.0000
     atom:   96    charge:    0.4827    magn:    0.0010    constr:    0.0000
     atom:   97    charge:    0.4763    magn:    0.0042    constr:    0.0000
     atom:   98    charge:    0.4802    magn:    0.0034    constr:    0.0000
     atom:   99    charge:    0.4792    magn:    0.0016    constr:    0.0000
     atom:  100    charge:    0.4751    magn:    0.0041    constr:    0.0000
     atom:  101    charge:    0.4848    magn:    0.0062    constr:    0.0000
     atom:  102    charge:    0.4773    magn:    0.0040    constr:    0.0000
     atom:  103    charge:    0.4747    magn:    0.0008    constr:    0.0000
     atom:  104    charge:    0.4654    magn:    0.0050    constr:    0.0000
     atom:  105    charge:    2.4493    magn:    0.0141    constr:    0.0000
     atom:  106    charge:    2.4481    magn:    0.0150    constr:    0.0000
     atom:  107    charge:    2.4501    magn:    0.0144    constr:    0.0000
     atom:  108    charge:    2.4478    magn:    0.0148    constr:    0.0000
     atom:  109    charge:    2.4470    magn:    0.0148    constr:    0.0000
     atom:  110    charge:    2.4477    magn:    0.0149    constr:    0.0000
     atom:  111    charge:    2.4515    magn:    0.0138    constr:    0.0000
     atom:  112    charge:    2.4478    magn:    0.0150    constr:    0.0000
     atom:  113    charge:    7.4361    magn:    1.1202    constr:    0.0000
     atom:  114    charge:    7.4340    magn:    1.1218    constr:    0.0000
     atom:  115    charge:    7.4347    magn:    1.1199    constr:    0.0000
     atom:  116    charge:    7.4353    magn:    1.1129    constr:    0.0000
     atom:  117    charge:    3.2589    magn:    0.0577    constr:    0.0000
     atom:  118    charge:    3.2587    magn:    0.0587    constr:    0.0000
     atom:  119    charge:    3.2664    magn:    0.0545    constr:    0.0000
     atom:  120    charge:    3.2604    magn:    0.0565    constr:    0.0000
     atom:  121    charge:    3.2565    magn:    0.0574    constr:    0.0000
     atom:  122    charge:    3.2569    magn:    0.0613    constr:    0.0000
     atom:  123    charge:    3.2604    magn:    0.0609    constr:    0.0000
     atom:  124    charge:    3.2591    magn:    0.0565    constr:    0.0000
     atom:  125    charge:    3.2644    magn:    0.0542    constr:    0.0000
     atom:  126    charge:    3.2591    magn:    0.0586    constr:    0.0000
     atom:  127    charge:    3.2593    magn:    0.0584    constr:    0.0000
     atom:  128    charge:    3.2578    magn:    0.0573    constr:    0.0000
     atom:  129    charge:    3.2580    magn:    0.0594    constr:    0.0000
     atom:  130    charge:    3.2608    magn:    0.0584    constr:    0.0000
     atom:  131    charge:    3.2585    magn:    0.0578    constr:    0.0000
     atom:  132    charge:    3.2556    magn:    0.0608    constr:    0.0000

     total cpu time spent up to now is     1543.3 secs

     End of self-consistent calculation

 ------ SPIN UP ------------


          k = 0.0000 0.0000 0.0000 ( 91663 PWs)   bands (ev):

   -21.9432 -21.9303 -21.8893 -21.8809 -21.8041 -21.7559 -21.7499 -21.7473
   -18.9676 -18.9243 -18.8983 -18.8953 -18.8562 -18.8409 -18.8138 -18.8073
   -18.6355 -18.6022 -18.5968 -18.5545 -18.4991 -18.4712 -18.4553 -18.4524
   -15.2832 -15.2429 -15.0396 -14.9987 -14.9689 -14.9496 -14.8963 -14.8823
   -14.2841 -14.2257 -14.0443 -13.9846 -13.7339 -13.7146 -13.6507 -13.6197
   -12.3586 -12.2841 -11.9645 -11.8963 -11.5955 -11.5569 -11.4993 -11.4443
   -11.1837 -11.0698 -10.9908 -10.9466 -10.8721 -10.8628 -10.8300 -10.8090
   -10.1027 -10.0761  -9.8259  -9.7313  -9.6499  -9.6176  -9.5509  -9.4965
    -8.8683  -8.6900  -8.4973  -8.4147  -8.3920  -8.2668  -8.1287  -8.0271
    -7.5179  -7.3951  -7.3118  -7.2318  -7.2210  -7.1775  -7.1648  -7.0941
    -7.0870  -7.0430  -6.9667  -6.9566  -6.9104  -6.8705  -6.7321  -6.7189
    -6.4277  -6.3479  -6.3092  -6.2899  -6.2638  -6.2379  -6.1920  -6.1687
    -6.1179  -6.0662  -6.0356  -6.0176  -5.9558  -5.9493  -5.8866  -5.8505
    -5.7966  -5.7706  -5.7357  -5.7118  -5.6795  -5.6560  -5.6367  -5.5606
    -5.5384  -5.5214  -5.4945  -5.4649  -5.4461  -5.3870  -5.3662  -5.3530
    -5.2717  -5.2151  -5.1771  -5.0744  -4.9671  -4.9629  -4.9067  -4.8779
    -4.6991  -4.6660  -4.6026  -4.5179  -4.4832  -4.4501  -4.4345  -4.3777
    -4.3102  -4.1797  -4.1602  -4.0799  -4.0130  -3.9717  -3.9328  -3.9028
    -3.8497  -3.7982  -3.7712  -3.6938  -3.6838  -3.6169  -3.4868  -3.3987
    -3.3867  -3.3515  -3.3020  -3.2390  -3.2145  -3.1909  -3.1543  -3.0496
    -3.0076  -2.9944  -2.9529  -2.9102  -2.8747  -2.8389  -2.7827  -2.7295
    -2.7108  -2.6563  -2.5978  -2.5432  -2.4990  -2.4887  -2.4279  -2.4031
    -2.3564  -2.3413  -2.3364  -2.3103  -2.2840  -2.2584  -2.1762  -2.1533
    -2.1186  -1.9758  -1.9487  -1.8548  -1.8403  -1.8274  -1.7242  -1.7087
    -1.6670  -1.6493  -1.6279  -1.6083  -1.5976  -1.5519  -1.5387  -1.5273
    -1.4998  -1.4316  -1.4183  -1.4026  -1.3753  -1.3499  -1.3223  -1.2987
    -1.2489  -1.1910  -1.0810  -1.0368  -0.9580  -0.9206  -0.8704  -0.8246
    -0.7499  -0.6747  -0.5409  -0.4852   0.4113   0.4228   0.4800   0.5081
     0.7429   0.7656   0.8208   0.8272   2.4765   2.5330   2.6159   2.6235
     2.6663   2.6866   2.7167   2.7569   3.5689   3.7622   3.8325   3.8885
     3.9686   4.0476   4.0834   4.1936   4.2487   4.8243   4.9291   4.9320
     5.0697   5.0911   5.1784   5.2525   5.2665   5.3092   5.3430   5.3717
     5.6973   5.8002   5.8886   5.8984   5.9225   5.9469   6.2682   6.3704
     6.5083   6.5504   6.5763   6.7705   6.9038   6.9763   7.0677   7.0789
     7.2560   7.3748

 ------ SPIN DOWN ----------


          k = 0.0000 0.0000 0.0000 ( 91663 PWs)   bands (ev):

   -21.8373 -21.8258 -21.7803 -21.7710 -21.7006 -21.6459 -21.6406 -21.6383
   -18.8340 -18.7909 -18.7652 -18.7571 -18.7160 -18.7000 -18.6749 -18.6649
   -18.5934 -18.5618 -18.5559 -18.5149 -18.4583 -18.4316 -18.4158 -18.4129
   -15.2408 -15.2008 -14.9975 -14.9568 -14.9262 -14.9068 -14.8528 -14.8388
   -14.2396 -14.1819 -14.0004 -13.9410 -13.6898 -13.6709 -13.6063 -13.5751
   -12.3170 -12.2427 -11.9281 -11.8604 -11.5563 -11.5184 -11.4604 -11.4063
   -11.1374 -11.0260 -10.9442 -10.9002 -10.8285 -10.8184 -10.7865 -10.7647
   -10.0606 -10.0351  -9.7895  -9.6943  -9.6126  -9.5808  -9.5112  -9.4585
    -8.8321  -8.6545  -8.4569  -8.3754  -8.3521  -8.2262  -8.0787  -7.9851
    -7.4620  -7.3424  -7.2544  -7.1838  -7.1579  -7.1280  -7.1048  -7.0394
    -7.0245  -6.9893  -6.9054  -6.8979  -6.8334  -6.8086  -6.6549  -6.6366
    -6.3640  -6.2701  -6.2068  -6.1975  -6.1772  -6.1441  -6.0876  -6.0709
    -6.0522  -5.9526  -5.9285  -5.9083  -5.8698  -5.8311  -5.7735  -5.7528
    -5.6970  -5.6771  -5.6296  -5.6144  -5.5939  -5.5614  -5.5336  -5.4728
    -5.4481  -5.4158  -5.4091  -5.3972  -5.3762  -5.3187  -5.2999  -5.2721
    -5.2079  -5.1651  -5.1259  -5.0033  -4.9070  -4.8870  -4.8386  -4.8153
    -4.6271  -4.5953  -4.5148  -4.4419  -4.4199  -4.4019  -4.3733  -4.3233
    -4.2615  -4.1316  -4.0674  -3.9732  -3.9399  -3.8174  -3.7854  -3.7720
    -3.7097  -3.6529  -3.6088  -3.5526  -3.5162  -3.3494  -3.2682  -3.2250
    -3.2054  -3.1846  -3.1544  -3.0649  -3.0411  -2.9893  -2.9526  -2.9253
    -2.9143  -2.8723  -2.8521  -2.7651  -2.7274  -2.5990  -2.5722  -2.5035
    -2.4470  -2.3659  -2.2457  -2.2121  -2.1835  -2.1535  -2.1152  -2.0593
    -2.0286  -2.0024  -1.9930  -1.9536  -1.8986  -1.8823  -1.8430  -1.8161
    -1.7076  -1.6923  -1.6726  -1.6268  -1.6017  -1.5661  -1.5052  -1.4754
    -1.4249  -1.3789  -1.3492  -1.3288  -1.2674  -1.1973  -1.1838  -1.0304
    -0.9214  -0.8914  -0.8677  -0.8253  -0.8174  -0.7319  -0.6861  -0.6778
    -0.6306  -0.6078  -0.5883  -0.5739  -0.5498  -0.5340  -0.5166  -0.4531
    -0.4176  -0.3956  -0.3835  -0.3153   1.1822   1.1891   1.2343   1.2649
     1.4465   1.4783   1.5151   1.5179   2.5923   2.6636   2.7181   2.7301
     2.7761   2.8010   2.8259   2.8695   3.6597   3.8559   3.9249   3.9806
     4.0628   4.1278   4.1768   4.2901   4.3035   4.8756   4.9697   4.9722
     5.1431   5.1626   5.2533   5.3356   5.3471   5.3937   5.4258   5.4383
     5.7337   5.8411   5.9226   5.9363   5.9610   5.9885   6.3018   6.3994
     6.5455   6.5907   6.6111   6.8200   6.9428   7.0111   7.1048   7.1139
     7.2969   7.4135

     the spin up/dw Fermi energies are     0.9561    0.6090 ev

!    total energy              =   -1731.64276530 Ry
     Harris-Foulkes estimate   =   -1731.64276550 Ry
     estimated scf accuracy    <       0.00000050 Ry

     The total energy is the sum of the following terms:

     one-electron contribution =   -2471.32161227 Ry
     hartree contribution      =    1402.04017615 Ry
     xc contribution           =    -533.08643861 Ry
     ewald contribution        =    -131.84287726 Ry
     Dispersion Correction     =      -0.61571380 Ry
     smearing contrib. (-TS)   =       3.18370050 Ry

     total magnetization       =     8.00 Bohr mag/cell
     absolute magnetization    =     8.17 Bohr mag/cell

     convergence has been achieved in  25 iterations

     Forces acting on atoms (cartesian axes, Ry/au):

     atom    1 type  1   force =    -0.04415599    0.02364585   -0.06743241
     atom    2 type  1   force =     0.00047370    0.00023210    0.00372921
     atom    3 type  1   force =     0.01450562    0.01045659    0.00305335
     atom    4 type  1   force =    -0.00605377   -0.00482951   -0.01309210
     atom    5 type  1   force =    -0.00974507   -0.00948307   -0.03432576
     atom    6 type  1   force =     0.06535032   -0.01151611   -0.01118343
     atom    7 type  1   force =    -0.00209812    0.00026394    0.00464122
     atom    8 type  1   force =     0.04654992    0.02050995   -0.06138635
     atom    9 type  1   force =    -0.00242400   -0.00414054   -0.00004386
     atom   10 type  1   force =    -0.01713425   -0.02219260    0.02237935
     atom   11 type  1   force =     0.01291456   -0.02272074    0.01914048
     atom   12 type  1   force =     0.00108375   -0.00641292   -0.00065165
     atom   13 type  1   force =    -0.02344591   -0.04742510   -0.05005761
     atom   14 type  1   force =    -0.04433537    0.05547506   -0.05524876
     atom   15 type  1   force =     0.02099561    0.01758314    0.00425877
     atom   16 type  1   force =    -0.00390556    0.00178749   -0.00004450
     atom   17 type  1   force =    -0.09099460   -0.02830073    0.02152913
     atom   18 type  1   force =     0.00603104   -0.00308747   -0.00396937
     atom   19 type  1   force =     0.01382034   -0.00565303   -0.01492920
     atom   20 type  1   force =    -0.01470439    0.00525796    0.00502356
     atom   21 type  1   force =     0.01533524   -0.00031316    0.01727153
     atom   22 type  1   force =     0.01023754    0.00561151    0.01997244
     atom   23 type  1   force =     0.00538642    0.00463537    0.00150552
     atom   24 type  1   force =    -0.00039606   -0.00134806    0.00272496
     atom   25 type  1   force =     0.00197535   -0.00025688    0.00347492
     atom   26 type  1   force =    -0.04194658   -0.02014388   -0.06085668
     atom   27 type  1   force =    -0.01352300    0.00650818   -0.01538827
     atom   28 type  1   force =     0.01499677   -0.00532393    0.00636627
     atom   29 type  1   force =     0.09154943    0.02247238    0.02518154
     atom   30 type  1   force =    -0.00692080    0.00370305   -0.00380090
     atom   31 type  1   force =     0.04734194   -0.02164833   -0.06734817
     atom   32 type  1   force =    -0.00004052   -0.00000508    0.00341128
     atom   33 type  1   force =    -0.01171399    0.02016996    0.02103433
     atom   34 type  1   force =    -0.00084306    0.00521448   -0.00008999
     atom   35 type  1   force =     0.00212739    0.00369656    0.00041034
     atom   36 type  1   force =     0.01627418    0.02236496    0.02170688
     atom   37 type  1   force =    -0.02224059   -0.01742268    0.00471489
     atom   38 type  1   force =     0.00298938   -0.00142594    0.00040798
     atom   39 type  1   force =     0.01897620    0.03709957   -0.04238334
     atom   40 type  1   force =     0.03885331   -0.04533534   -0.04260496
     atom   41 type  1   force =     0.01418783    0.00809827   -0.03013852
     atom   42 type  1   force =    -0.06179221    0.01389373   -0.00462684
     atom   43 type  1   force =    -0.01593249   -0.00948878    0.00384873
     atom   44 type  1   force =     0.00608852    0.00358552   -0.01245632
     atom   45 type  1   force =    -0.00633962   -0.00244852    0.00126961
     atom   46 type  1   force =    -0.00040042    0.00096983    0.00216289
     atom   47 type  1   force =    -0.00981596    0.00099046    0.01092856
     atom   48 type  1   force =    -0.00338185   -0.00366904    0.00998680
     atom   49 type  1   force =    -0.01732581   -0.06293874    0.13555038
     atom   50 type  1   force =    -0.01895266   -0.01606769   -0.03667822
     atom   51 type  1   force =     0.04606856    0.01543540    0.01016875
     atom   52 type  1   force =    -0.01921918   -0.05757964    0.07382668
     atom   53 type  1   force =    -0.05501582   -0.00059188   -0.00025627
     atom   54 type  1   force =     0.01253906    0.06787144    0.08528040
     atom   55 type  1   force =     0.02181793    0.04800288    0.14783472
     atom   56 type  1   force =     0.02072128    0.01771204   -0.04667626
     atom   57 type  2   force =    -0.00010298   -0.00122661   -0.00155522
     atom   58 type  2   force =    -0.00053271    0.00086789   -0.00044374
     atom   59 type  2   force =    -0.00009826    0.00035029    0.00145523
     atom   60 type  2   force =    -0.00002426   -0.00087799    0.00124078
     atom   61 type  2   force =     0.00872509   -0.00743872   -0.00546343
     atom   62 type  2   force =     0.00644521    0.00462466   -0.00446543
     atom   63 type  2   force =     0.00048158   -0.02906174   -0.04799356
     atom   64 type  2   force =     0.00290306    0.03245113   -0.05506165
     atom   65 type  2   force =     0.00022954   -0.00175242   -0.00100567
     atom   66 type  2   force =     0.00060158    0.00034546   -0.00005645
     atom   67 type  2   force =    -0.00529404    0.00085544   -0.02100732
     atom   68 type  2   force =    -0.00150171    0.00210327   -0.00225516
     atom   69 type  2   force =    -0.00028921    0.00117169   -0.00141457
     atom   70 type  2   force =     0.00085106   -0.00092037   -0.00012809
     atom   71 type  2   force =     0.00746518   -0.00421382   -0.02323078
     atom   72 type  2   force =     0.00070839   -0.00142763   -0.00138993
     atom   73 type  2   force =    -0.00408970    0.00091574   -0.00223870
     atom   74 type  2   force =    -0.00500353   -0.00351615   -0.00328551
     atom   75 type  2   force =    -0.00048839   -0.00026609    0.00046651
     atom   76 type  2   force =    -0.00014002    0.00001762    0.00093973
     atom   77 type  2   force =    -0.00012745    0.00140503   -0.00057829
     atom   78 type  2   force =    -0.00158751   -0.00045886   -0.00047132
     atom   79 type  2   force =     0.00451389    0.02061028   -0.04030604
     atom   80 type  2   force =     0.00105919   -0.02305675   -0.04330190
     atom   81 type  2   force =     0.01781901    0.00788932    0.00060147
     atom   82 type  2   force =     0.01314231   -0.04252111    0.04316163
     atom   83 type  2   force =    -0.01392213   -0.00601516    0.06745936
     atom   84 type  2   force =     0.01280265    0.00894516   -0.03530406
     atom   85 type  2   force =     0.00860207    0.01247567   -0.02092353
     atom   86 type  2   force =    -0.01643658   -0.01873876    0.00919068
     atom   87 type  2   force =     0.01386297   -0.00279358   -0.01639739
     atom   88 type  2   force =    -0.00436972    0.01127285   -0.01518916
     atom   89 type  2   force =     0.02127205   -0.01903421    0.01538254
     atom   90 type  2   force =    -0.01990264    0.00990303    0.00048179
     atom   91 type  2   force =    -0.01515758   -0.03489484    0.02597985
     atom   92 type  2   force =    -0.00591383   -0.00081588    0.05099634
     atom   93 type  2   force =    -0.01465391    0.00299799   -0.01826290
     atom   94 type  2   force =     0.00449543   -0.01115457   -0.01382039
     atom   95 type  2   force =    -0.02315422    0.02461415    0.01544673
     atom   96 type  2   force =     0.01991131   -0.01052163    0.00147843
     atom   97 type  2   force =     0.01292102    0.04204948    0.03575928
     atom   98 type  2   force =     0.00388256    0.00321069    0.05201598
     atom   99 type  2   force =    -0.01788748   -0.00629945   -0.00274810
     atom  100 type  2   force =    -0.01736513    0.03545512    0.02896177
     atom  101 type  2   force =     0.01938723    0.00412003    0.06632231
     atom  102 type  2   force =    -0.02800655   -0.01564601   -0.04232280
     atom  103 type  2   force =    -0.00863441   -0.01263214   -0.02124439
     atom  104 type  2   force =     0.01409779    0.01609479    0.00975981
     atom  105 type  3   force =     0.00544889   -0.00029815    0.00445889
     atom  106 type  3   force =     0.00639560    0.00076764    0.00697401
     atom  107 type  3   force =    -0.00200777    0.00351260    0.00080800
     atom  108 type  3   force =     0.00264528   -0.00401860   -0.00076788
     atom  109 type  3   force =     0.00058936   -0.00310985    0.00272750
     atom  110 type  3   force =    -0.00323632    0.00380002    0.00001079
     atom  111 type  3   force =    -0.00501687   -0.00014984   -0.00102598
     atom  112 type  3   force =    -0.00668473   -0.00044542    0.00453238
     atom  113 type  4   force =     0.01034757   -0.00705303   -0.00145899
     atom  114 type  4   force =     0.00256540    0.00187593    0.00198107
     atom  115 type  4   force =     0.01093752    0.00203010   -0.00039053
     atom  116 type  4   force =     0.00006425   -0.00047128    0.00087224
     atom  117 type  5   force =     0.00106305   -0.00123498    0.00045585
     atom  118 type  5   force =    -0.00199554    0.00730541   -0.00201501
     atom  119 type  5   force =    -0.00285706    0.01576818    0.00030184
     atom  120 type  5   force =    -0.00588080   -0.01420103    0.00365431
     atom  121 type  5   force =     0.00018186    0.00180496    0.00068259
     atom  122 type  5   force =    -0.00312601    0.00024973    0.00044673
     atom  123 type  5   force =    -0.00467614    0.01153897   -0.00561912
     atom  124 type  5   force =    -0.01102643   -0.00878723   -0.00605550
     atom  125 type  5   force =     0.00074459   -0.00940010   -0.00233525
     atom  126 type  5   force =     0.00376334    0.00735097    0.00235615
     atom  127 type  5   force =    -0.00075547    0.00090217    0.00062216
     atom  128 type  5   force =     0.00029003   -0.00474598   -0.00282076
     atom  129 type  5   force =     0.00181528   -0.01111987   -0.00721089
     atom  130 type  5   force =     0.00718605    0.00969913   -0.00436290
     atom  131 type  5   force =    -0.00454158   -0.00310218    0.00059773
     atom  132 type  5   force =     0.00187689    0.00059113    0.00022009

     Total force =     0.472393     Total SCF correction =     0.001630

     BFGS Geometry Optimization

     number of scf cycles    =   1
     number of bfgs steps    =   0

     energy   new            =   -1731.6427653010 Ry

     new trust radius        =       0.1569566883 bohr
     new conv_thr            =       0.0000010000 Ry


ATOMIC_POSITIONS (crystal)
C             0.2862803210        0.9710491574        0.5185108905
C             0.0384025403        0.0311158076        0.0225000731
C             0.3912506706        0.0122118439        0.5466492630
C             0.1399755614        0.9875399288        0.0454716907
C             0.4514704597        0.9698012922        0.6486030502
C             0.2052748304        0.0278663857        0.1493169968
C             0.2080965682        0.5297151527        0.5266230463
C             0.4604572291        0.4722756495        0.0247422935
C             0.2450343866        0.6131560410        0.6064327408
C             0.4961149378        0.3877392498        0.1097696496
C             0.2500404241        0.8882459332        0.6041888312
C             0.0011142482        0.1119610215        0.1042134368
C             0.4069379593        0.8873790487        0.7249737807
C             0.1580071510        0.1118911029        0.2249664102
C             0.0897544257        0.6097259770        0.7275713479
C             0.3407246938        0.3917085304        0.2293917079
C             0.0430947242        0.5238831507        0.6524208589
C             0.2979094842        0.4745805386        0.1525495575
C             0.1087348168        0.4840311306        0.5493470707
C             0.3572144894        0.5158781755        0.0508967388
C             0.4339751039        0.0993057675        0.4675105707
C             0.1819689253        0.8999571146        0.9667006813
C             0.0676073387        0.3946698681        0.4707535420
C             0.3160287950        0.6041150375        0.9692473490
C             0.7882988446        0.9700391455        0.5221629760
C             0.5365469769        0.0302548189        0.0191735740
C             0.8900473471        0.0120450034        0.5456994266
C             0.6408845593        0.9875190370        0.0464738948
C             0.9558125382        0.9711515722        0.6516679765
C             0.7022235819        0.0285094728        0.1496972343
C             0.7101221553        0.5287892483        0.5229152293
C             0.9585474832        0.4714087852        0.0280796983
C             0.7446610368        0.6141832831        0.6075183741
C             0.9967832414        0.3888973382        0.1086123651
C             0.7495664056        0.8893621984        0.6032241344
C             0.5017779927        0.1131770330        0.1053650140
C             0.9070403042        0.8886468035        0.7277948405
C             0.6600608785        0.1094867467        0.2278330130
C             0.5896252536        0.6105506451        0.7251690441
C             0.8424941502        0.3897173516        0.2271996298
C             0.5474971104        0.5254211932        0.6497597139
C             0.7950389122        0.4752980807        0.1525156945
C             0.6074934207        0.4838690510        0.5503142288
C             0.8580779612        0.5158075063        0.0499964365
C             0.9330429279        0.0992155377        0.4666863915
C             0.6815020836        0.8997609803        0.9657833998
C             0.5669718796        0.3945158521        0.4712388762
C             0.8159092573        0.6040169646        0.9696213706
C             0.2148609140        0.0050165190        0.4180215286
C             0.3136916335        0.9887160584        0.1815938868
C             0.9388669330        0.4841402241        0.6843267421
C             0.5293219385        0.5058609682        0.9229694467
C             0.0619227533        0.0076899900        0.6848848006
C             0.4653935316        0.9979079129        0.9158193709
C             0.7809218046        0.4953763655        0.4254112338
C             0.6881700729        0.5160134237        0.1833919369
H             0.2586941848        0.5008431695        0.4492018984
H             0.0086180422        0.5004336729        0.9505251452
H             0.3226382064        0.6505208017        0.5927099516
H             0.0749681364        0.3528139004        0.0950919062
H             0.1705180828        0.8548086763        0.5882786057
H             0.4225905447        0.1479274152        0.0896560076
H             0.4533453908        0.8539449942        0.8062890896
H             0.2063102313        0.1444742250        0.3059610472
H             0.0437377705        0.6428699514        0.8065562029
H             0.2964034030        0.3575405976        0.3090480925
H             0.4684282900        0.4932671468        0.6724200172
H             0.2188863410        0.5052898737        0.1751478476
H             0.7371104361        0.9996245097        0.4430401423
H             0.9865738927        0.0026531099        0.9434924028
H             0.5323561153        0.9986269449        0.6723234978
H             0.7823686727        0.9986046755        0.1725304115
H             0.8224658449        0.6505446947        0.5925196959
H             0.5747531947        0.3527024246        0.0948587799
H             0.6701337708        0.8551117564        0.5885840277
H             0.9223169560        0.1477327446        0.0899344010
H             0.9533640647        0.8552323696        0.8087312151
H             0.7061723823        0.1430836110        0.3087727247
H             0.5438822251        0.6438148891        0.8045320354
H             0.7963822303        0.3565517352        0.3068207336
H             0.1386485791        0.9646283639        0.4088969788
H             0.1976615776        0.0920492674        0.4244550416
H             0.2531361155        0.9928658289        0.3196774972
H             0.3501256544        0.0325189784        0.2672586627
H             0.3134513856        0.9036951602        0.2072683324
H             0.3675760977        0.0027641925        0.1011853664
H             0.9030192442        0.5268219569        0.7665264518
H             0.9412788565        0.3983633352        0.7105676814
H             0.8818275503        0.4934997079        0.6003222786
H             0.6055622669        0.4632714534        0.9180948146
H             0.5504249560        0.5923275160        0.9335280933
H             0.4893275567        0.4957925248        0.8258255690
H             0.0977857976        0.9644486804        0.7695943686
H             0.0639412703        0.0934156628        0.7094091801
H             0.1172357034        0.9941650728        0.6032415847
H             0.3887219373        0.0391444077        0.9099201465
H             0.4456872752        0.9108888039        0.9239827831
H             0.5031520489        0.0095456679        0.8192030855
H             0.8547445115        0.5396318164        0.4159034591
H             0.8014303384        0.4097241589        0.4329146772
H             0.7397875429        0.5048980922        0.3252959338
H             0.6525992251        0.4712718768        0.2678621622
H             0.6907017194        0.6005382279        0.2114398069
H             0.6316316995        0.5040090866        0.1025646793
N             0.3086717505        0.8512404017        0.7050576551
N             0.0610061686        0.1488894365        0.2064111967
N             0.1864577983        0.6504584250        0.7058796163
N             0.4389212157        0.3507581938        0.2080014505
N             0.8084644954        0.8511215932        0.7049684803
N             0.5605920645        0.1490175702        0.2060525556
N             0.6863297483        0.6503036684        0.7057851571
N             0.9385313828        0.3509091787        0.2082744402
Ni            0.2474384921        0.7511879737        0.8362508545
Ni            0.5000824123        0.2480782674        0.3392800351
Ni            0.7474644573        0.7515717819        0.8363058858
Ni            0.9999755365        0.2479790861        0.3392229247
O             0.1228234103        0.3476368156        0.3828964788
O             0.3711216694        0.6512856908        0.8811882171
O             0.3775093858        0.1481732855        0.3771935463
O             0.1248525782        0.8517519344        0.8764492155
O             0.4730773351        0.3562362687        0.4830291569
O             0.2210051409        0.6414255524        0.9799000090
O             0.0286368609        0.1356455799        0.4807885872
O             0.2762137381        0.8623866947        0.9790871111
O             0.6228083184        0.3472917980        0.3827527227
O             0.8713694551        0.6512876159        0.8814133539
O             0.8775986155        0.1475451212        0.3772100446
O             0.6251076285        0.8521514584        0.8761157164
O             0.9731390546        0.3556901290        0.4826226027
O             0.7214369895        0.6418248373        0.9796522885
O             0.5286483823        0.1350269171        0.4811087861
O             0.7767656273        0.8627829781        0.9794103359



     Writing output data file ./QE_relaxation_results/pbesol_relax/NiPyC2_relax_sc211_meta_functionalized_CH3_pbesol_relax.save/
     NEW-OLD atomic charge density approx. for the potential

     Check: negative core charge=   -0.000145

     total cpu time spent up to now is     1567.7 secs

     Self-consistent Calculation

     iteration #  1     ecut=   100.00 Ry     beta= 0.70
     Davidson diagonalization with overlap
     ethr =  1.00E-06,  avg # of iterations = 17.5

     total cpu time spent up to now is     1839.6 secs

     total energy              =   -1731.75117672 Ry
     Harris-Foulkes estimate   =   -1731.77751011 Ry
     estimated scf accuracy    <       0.07330101 Ry

     total magnetization       =     8.00 Bohr mag/cell
     absolute magnetization    =     8.18 Bohr mag/cell

     iteration #  2     ecut=   100.00 Ry     beta= 0.70
     Davidson diagonalization with overlap
     ethr =  1.64E-05,  avg # of iterations =  2.0

     total cpu time spent up to now is     1896.6 secs

     total energy              =   -1731.74831068 Ry
     Harris-Foulkes estimate   =   -1731.76144744 Ry
     estimated scf accuracy    <       0.05714132 Ry

     total magnetization       =     8.00 Bohr mag/cell
     absolute magnetization    =     8.19 Bohr mag/cell

     iteration #  3     ecut=   100.00 Ry     beta= 0.70
     Davidson diagonalization with overlap
     ethr =  1.28E-05,  avg # of iterations =  2.0

     total cpu time spent up to now is     1953.1 secs

     total energy              =   -1731.75194460 Ry
     Harris-Foulkes estimate   =   -1731.76180619 Ry
     estimated scf accuracy    <       0.08318604 Ry

     total magnetization       =     8.00 Bohr mag/cell
     absolute magnetization    =     8.18 Bohr mag/cell

     iteration #  4     ecut=   100.00 Ry     beta= 0.70
     Davidson diagonalization with overlap
     ethr =  1.28E-05,  avg # of iterations =  1.0

     total cpu time spent up to now is     2007.9 secs

     total energy              =   -1731.75599337 Ry
     Harris-Foulkes estimate   =   -1731.75663755 Ry
     estimated scf accuracy    <       0.00553763 Ry

     total magnetization       =     8.00 Bohr mag/cell
     absolute magnetization    =     8.19 Bohr mag/cell

     iteration #  5     ecut=   100.00 Ry     beta= 0.70
     Davidson diagonalization with overlap
     ethr =  1.24E-06,  avg # of iterations =  2.5

     total cpu time spent up to now is     2064.1 secs

     total energy              =   -1731.75626046 Ry
     Harris-Foulkes estimate   =   -1731.75660243 Ry
     estimated scf accuracy    <       0.00394377 Ry

     total magnetization       =     8.00 Bohr mag/cell
     absolute magnetization    =     8.19 Bohr mag/cell

     iteration #  6     ecut=   100.00 Ry     beta= 0.70
     Davidson diagonalization with overlap
     ethr =  8.80E-07,  avg # of iterations =  1.0

     total cpu time spent up to now is     2118.7 secs

     total energy              =   -1731.75639251 Ry
     Harris-Foulkes estimate   =   -1731.75643530 Ry
     estimated scf accuracy    <       0.00028097 Ry

     total magnetization       =     8.00 Bohr mag/cell
     absolute magnetization    =     8.19 Bohr mag/cell

     iteration #  7     ecut=   100.00 Ry     beta= 0.70
     Davidson diagonalization with overlap
     ethr =  6.27E-08,  avg # of iterations =  4.0

     total cpu time spent up to now is     2181.6 secs

     total energy              =   -1731.75639591 Ry
     Harris-Foulkes estimate   =   -1731.75641266 Ry
     estimated scf accuracy    <       0.00011068 Ry

     total magnetization       =     8.00 Bohr mag/cell
     absolute magnetization    =     8.19 Bohr mag/cell

     iteration #  8     ecut=   100.00 Ry     beta= 0.70
     Davidson diagonalization with overlap
     ethr =  2.47E-08,  avg # of iterations =  1.5

     total cpu time spent up to now is     2236.8 secs

     total energy              =   -1731.75638525 Ry
     Harris-Foulkes estimate   =   -1731.75641398 Ry
     estimated scf accuracy    <       0.00033523 Ry

     total magnetization       =     8.00 Bohr mag/cell
     absolute magnetization    =     8.19 Bohr mag/cell

     iteration #  9     ecut=   100.00 Ry     beta= 0.70
     Davidson diagonalization with overlap
     ethr =  2.47E-08,  avg # of iterations =  1.5

     total cpu time spent up to now is     2291.6 secs

     total energy              =   -1731.75639623 Ry
     Harris-Foulkes estimate   =   -1731.75640164 Ry
     estimated scf accuracy    <       0.00004299 Ry

     total magnetization       =     8.00 Bohr mag/cell
     absolute magnetization    =     8.19 Bohr mag/cell

     iteration # 10     ecut=   100.00 Ry     beta= 0.70
     Davidson diagonalization with overlap
     ethr =  9.60E-09,  avg # of iterations =  4.0

     total cpu time spent up to now is     2351.8 secs

     total energy              =   -1731.75639928 Ry
     Harris-Foulkes estimate   =   -1731.75639928 Ry
     estimated scf accuracy    <       0.00000677 Ry

     total magnetization       =     8.00 Bohr mag/cell
     absolute magnetization    =     8.19 Bohr mag/cell

     iteration # 11     ecut=   100.00 Ry     beta= 0.70
     Davidson diagonalization with overlap
     ethr =  1.51E-09,  avg # of iterations =  2.0

     total cpu time spent up to now is     2415.5 secs

     total energy              =   -1731.75640041 Ry
     Harris-Foulkes estimate   =   -1731.75639997 Ry
     estimated scf accuracy    <       0.00000260 Ry

     total magnetization       =     8.00 Bohr mag/cell
     absolute magnetization    =     8.19 Bohr mag/cell

     iteration # 12     ecut=   100.00 Ry     beta= 0.70
     Davidson diagonalization with overlap
     ethr =  5.80E-10,  avg # of iterations =  3.0

     total cpu time spent up to now is     2472.0 secs

     total energy              =   -1731.75640046 Ry
     Harris-Foulkes estimate   =   -1731.75640060 Ry
     estimated scf accuracy    <       0.00000267 Ry

     total magnetization       =     8.00 Bohr mag/cell
     absolute magnetization    =     8.19 Bohr mag/cell

     iteration # 13     ecut=   100.00 Ry     beta= 0.70
     Davidson diagonalization with overlap
     ethr =  5.80E-10,  avg # of iterations =  1.5

     total cpu time spent up to now is     2527.1 secs

     total energy              =   -1731.75640064 Ry
     Harris-Foulkes estimate   =   -1731.75640074 Ry
     estimated scf accuracy    <       0.00000324 Ry

     total magnetization       =     8.00 Bohr mag/cell
     absolute magnetization    =     8.19 Bohr mag/cell

     iteration # 14     ecut=   100.00 Ry     beta= 0.70
     Davidson diagonalization with overlap
     ethr =  5.80E-10,  avg # of iterations =  2.0
 
     Magnetic moment per site:
     atom:    1    charge:    0.8347    magn:    0.0055    constr:    0.0000
     atom:    2    charge:    0.8469    magn:    0.0054    constr:    0.0000
     atom:    3    charge:    0.8475    magn:    0.0052    constr:    0.0000
     atom:    4    charge:    0.8467    magn:    0.0049    constr:    0.0000
     atom:    5    charge:    0.8456    magn:    0.0065    constr:    0.0000
     atom:    6    charge:    0.8328    magn:    0.0076    constr:    0.0000
     atom:    7    charge:    0.8484    magn:    0.0051    constr:    0.0000
     atom:    8    charge:    0.8334    magn:    0.0064    constr:    0.0000
     atom:    9    charge:    0.8377    magn:    0.0065    constr:    0.0000
     atom:   10    charge:    0.8367    magn:    0.0074    constr:    0.0000
     atom:   11    charge:    0.8359    magn:    0.0086    constr:    0.0000
     atom:   12    charge:    0.8365    magn:    0.0069    constr:    0.0000
     atom:   13    charge:    0.8449    magn:    0.0076    constr:    0.0000
     atom:   14    charge:    0.8428    magn:    0.0076    constr:    0.0000
     atom:   15    charge:    0.8374    magn:    0.0077    constr:    0.0000
     atom:   16    charge:    0.8389    magn:    0.0065    constr:    0.0000
     atom:   17    charge:    0.8269    magn:    0.0059    constr:    0.0000
     atom:   18    charge:    0.8469    magn:    0.0053    constr:    0.0000
     atom:   19    charge:    0.8446    magn:    0.0065    constr:    0.0000
     atom:   20    charge:    0.8437    magn:    0.0060    constr:    0.0000
     atom:   21    charge:    0.8229    magn:   -0.0012    constr:    0.0000
     atom:   22    charge:    0.8240    magn:   -0.0011    constr:    0.0000
     atom:   23    charge:    0.8230    magn:   -0.0015    constr:    0.0000
     atom:   24    charge:    0.8232    magn:   -0.0018    constr:    0.0000
     atom:   25    charge:    0.8468    magn:    0.0052    constr:    0.0000
     atom:   26    charge:    0.8347    magn:    0.0065    constr:    0.0000
     atom:   27    charge:    0.8423    magn:    0.0066    constr:    0.0000
     atom:   28    charge:    0.8441    magn:    0.0059    constr:    0.0000
     atom:   29    charge:    0.8269    magn:    0.0060    constr:    0.0000
     atom:   30    charge:    0.8482    magn:    0.0054    constr:    0.0000
     atom:   31    charge:    0.8363    magn:    0.0053    constr:    0.0000
     atom:   32    charge:    0.8468    magn:    0.0054    constr:    0.0000
     atom:   33    charge:    0.8361    magn:    0.0085    constr:    0.0000
     atom:   34    charge:    0.8363    magn:    0.0067    constr:    0.0000
     atom:   35    charge:    0.8373    magn:    0.0065    constr:    0.0000
     atom:   36    charge:    0.8371    magn:    0.0076    constr:    0.0000
     atom:   37    charge:    0.8381    magn:    0.0076    constr:    0.0000
     atom:   38    charge:    0.8390    magn:    0.0066    constr:    0.0000
     atom:   39    charge:    0.8449    magn:    0.0074    constr:    0.0000
     atom:   40    charge:    0.8431    magn:    0.0071    constr:    0.0000
     atom:   41    charge:    0.8465    magn:    0.0063    constr:    0.0000
     atom:   42    charge:    0.8325    magn:    0.0073    constr:    0.0000
     atom:   43    charge:    0.8489    magn:    0.0054    constr:    0.0000
     atom:   44    charge:    0.8458    magn:    0.0051    constr:    0.0000
     atom:   45    charge:    0.8231    magn:   -0.0017    constr:    0.0000
     atom:   46    charge:    0.8227    magn:   -0.0018    constr:    0.0000
     atom:   47    charge:    0.8231    magn:   -0.0012    constr:    0.0000
     atom:   48    charge:    0.8244    magn:   -0.0014    constr:    0.0000
     atom:   49    charge:    0.8606    magn:    0.0063    constr:    0.0000
     atom:   50    charge:    0.8588    magn:    0.0038    constr:    0.0000
     atom:   51    charge:    0.8563    magn:    0.0038    constr:    0.0000
     atom:   52    charge:    0.8580    magn:    0.0028    constr:    0.0000
     atom:   53    charge:    0.8577    magn:    0.0047    constr:    0.0000
     atom:   54    charge:    0.8584    magn:    0.0033    constr:    0.0000
     atom:   55    charge:    0.8610    magn:    0.0069    constr:    0.0000
     atom:   56    charge:    0.8565    magn:    0.0033    constr:    0.0000
     atom:   57    charge:    0.4852    magn:   -0.0011    constr:    0.0000
     atom:   58    charge:    0.4869    magn:   -0.0011    constr:    0.0000
     atom:   59    charge:    0.4900    magn:   -0.0011    constr:    0.0000
     atom:   60    charge:    0.4900    magn:   -0.0011    constr:    0.0000
     atom:   61    charge:    0.4898    magn:   -0.0009    constr:    0.0000
     atom:   62    charge:    0.4899    magn:   -0.0008    constr:    0.0000
     atom:   63    charge:    0.4814    magn:    0.0007    constr:    0.0000
     atom:   64    charge:    0.4772    magn:    0.0012    constr:    0.0000
     atom:   65    charge:    0.4864    magn:   -0.0006    constr:    0.0000
     atom:   66    charge:    0.4876    magn:   -0.0009    constr:    0.0000
     atom:   67    charge:    0.4802    magn:   -0.0006    constr:    0.0000
     atom:   68    charge:    0.4847    magn:   -0.0011    constr:    0.0000
     atom:   69    charge:    0.4861    magn:   -0.0010    constr:    0.0000
     atom:   70    charge:    0.4861    magn:   -0.0012    constr:    0.0000
     atom:   71    charge:    0.4806    magn:   -0.0006    constr:    0.0000
     atom:   72    charge:    0.4843    magn:   -0.0011    constr:    0.0000
     atom:   73    charge:    0.4899    magn:   -0.0010    constr:    0.0000
     atom:   74    charge:    0.4891    magn:   -0.0009    constr:    0.0000
     atom:   75    charge:    0.4899    magn:   -0.0011    constr:    0.0000
     atom:   76    charge:    0.4902    magn:   -0.0011    constr:    0.0000
     atom:   77    charge:    0.4871    magn:   -0.0006    constr:    0.0000
     atom:   78    charge:    0.4876    magn:   -0.0008    constr:    0.0000
     atom:   79    charge:    0.4819    magn:    0.0003    constr:    0.0000
     atom:   80    charge:    0.4797    magn:    0.0008    constr:    0.0000
     atom:   81    charge:    0.4908    magn:    0.0009    constr:    0.0000
     atom:   82    charge:    0.4567    magn:    0.0039    constr:    0.0000
     atom:   83    charge:    0.4429    magn:    0.0054    constr:    0.0000
     atom:   84    charge:    0.4609    magn:    0.0035    constr:    0.0000
     atom:   85    charge:    0.4749    magn:    0.0011    constr:    0.0000
     atom:   86    charge:    0.4723    magn:    0.0041    constr:    0.0000
     atom:   87    charge:    0.4756    magn:    0.0034    constr:    0.0000
     atom:   88    charge:    0.4648    magn:    0.0029    constr:    0.0000
     atom:   89    charge:    0.4589    magn:    0.0038    constr:    0.0000
     atom:   90    charge:    0.4853    magn:    0.0007    constr:    0.0000
     atom:   91    charge:    0.4556    magn:    0.0039    constr:    0.0000
     atom:   92    charge:    0.4610    magn:    0.0033    constr:    0.0000
     atom:   93    charge:    0.4672    magn:    0.0038    constr:    0.0000
     atom:   94    charge:    0.4674    magn:    0.0027    constr:    0.0000
     atom:   95    charge:    0.4602    magn:    0.0035    constr:    0.0000
     atom:   96    charge:    0.4875    magn:    0.0005    constr:    0.0000
     atom:   97    charge:    0.4532    magn:    0.0040    constr:    0.0000
     atom:   98    charge:    0.4579    magn:    0.0034    constr:    0.0000
     atom:   99    charge:    0.4892    magn:    0.0009    constr:    0.0000
     atom:  100    charge:    0.4628    magn:    0.0033    constr:    0.0000
     atom:  101    charge:    0.4401    magn:    0.0058    constr:    0.0000
     atom:  102    charge:    0.4595    magn:    0.0036    constr:    0.0000
     atom:  103    charge:    0.4748    magn:    0.0007    constr:    0.0000
     atom:  104    charge:    0.4729    magn:    0.0042    constr:    0.0000
     atom:  105    charge:    2.4700    magn:    0.0122    constr:    0.0000
     atom:  106    charge:    2.4670    magn:    0.0133    constr:    0.0000
     atom:  107    charge:    2.4565    magn:    0.0135    constr:    0.0000
     atom:  108    charge:    2.4555    magn:    0.0139    constr:    0.0000
     atom:  109    charge:    2.4538    magn:    0.0137    constr:    0.0000
     atom:  110    charge:    2.4554    magn:    0.0140    constr:    0.0000
     atom:  111    charge:    2.4698    magn:    0.0121    constr:    0.0000
     atom:  112    charge:    2.4639    magn:    0.0136    constr:    0.0000
[...]

     The total energy is the sum of the following terms:

     one-electron contribution =   -2358.94507177 Ry
     hartree contribution      =    1344.96583965 Ry
     xc contribution           =    -532.86141403 Ry
     ewald contribution        =    -188.05474490 Ry
     Dispersion Correction     =      -0.61648901 Ry
     smearing contrib. (-TS)   =       3.35412158 Ry

     total magnetization       =     8.00 Bohr mag/cell
     absolute magnetization    =     8.21 Bohr mag/cell

     convergence has been achieved in  11 iterations

     Forces acting on atoms (cartesian axes, Ry/au):

     atom    1 type  1   force =    -0.00023348   -0.00026607    0.00042431
     atom    2 type  1   force =    -0.00002090    0.00045892    0.00062181
     atom    3 type  1   force =    -0.00008536    0.00020299    0.00004624
     atom    4 type  1   force =    -0.00050465    0.00001991    0.00004382
     atom    5 type  1   force =    -0.00014591    0.00003179   -0.00009667
     atom    6 type  1   force =    -0.00023671   -0.00016545   -0.00006050
     atom    7 type  1   force =    -0.00015925   -0.00019356    0.00001880
     atom    8 type  1   force =    -0.00009527    0.00036811   -0.00015717
     atom    9 type  1   force =    -0.00011203    0.00030442    0.00044799
     atom   10 type  1   force =     0.00018930   -0.00021646   -0.00009426
     atom   11 type  1   force =     0.00017414   -0.00016012    0.00005702
     atom   12 type  1   force =     0.00051647   -0.00001253   -0.00003799
     atom   13 type  1   force =     0.00018415    0.00056423   -0.00002249
     atom   14 type  1   force =     0.00001918   -0.00004534   -0.00004898
     atom   15 type  1   force =    -0.00010506    0.00008043    0.00034618
     atom   16 type  1   force =    -0.00015442   -0.00026442    0.00055400
     atom   17 type  1   force =    -0.00024868   -0.00052468   -0.00007758
     atom   18 type  1   force =     0.00013360    0.00028152   -0.00025057
     atom   19 type  1   force =    -0.00029831    0.00012308   -0.00016509
     atom   20 type  1   force =    -0.00031757   -0.00010922    0.00013216
     atom   21 type  1   force =    -0.00045741   -0.00016401   -0.00019393
     atom   22 type  1   force =     0.00034314    0.00028441    0.00021695
     atom   23 type  1   force =    -0.00060193    0.00005641   -0.00020916
     atom   24 type  1   force =    -0.00001862    0.00012072   -0.00029282
     atom   25 type  1   force =     0.00002744   -0.00007704    0.00026416
     atom   26 type  1   force =    -0.00021917   -0.00019552    0.00016088
     atom   27 type  1   force =    -0.00012629   -0.00045604   -0.00008019
     atom   28 type  1   force =     0.00010411    0.00018488    0.00003888
     atom   29 type  1   force =     0.00029866    0.00012214    0.00021314
     atom   30 type  1   force =     0.00000006   -0.00025473    0.00021059
     atom   31 type  1   force =     0.00020629   -0.00036586    0.00024685
     atom   32 type  1   force =    -0.00082188    0.00011979    0.00037206
     atom   33 type  1   force =     0.00013043    0.00012613   -0.00038637
     atom   34 type  1   force =     0.00029601    0.00019023   -0.00012545
     atom   35 type  1   force =     0.00026608   -0.00038917    0.00038829
     atom   36 type  1   force =     0.00001165   -0.00010652    0.00016990
     atom   37 type  1   force =    -0.00021945   -0.00004492   -0.00044440
     atom   38 type  1   force =     0.00007768    0.00009009    0.00055339
     atom   39 type  1   force =    -0.00025527   -0.00044008   -0.00018670
     atom   40 type  1   force =    -0.00050650   -0.00020085    0.00063974
     atom   41 type  1   force =     0.00053288    0.00005427   -0.00044361
     atom   42 type  1   force =     0.00051465    0.00024094   -0.00025081
     atom   43 type  1   force =     0.00015076   -0.00034359    0.00001760
     atom   44 type  1   force =     0.00036822    0.00007961   -0.00002885
     atom   45 type  1   force =     0.00027789   -0.00025605   -0.00022354
     atom   46 type  1   force =     0.00029788   -0.00002055   -0.00033478
     atom   47 type  1   force =     0.00012947   -0.00003376   -0.00008085
     atom   48 type  1   force =    -0.00076923    0.00009002    0.00042436
     atom   49 type  1   force =    -0.00003690   -0.00006187   -0.00019394
     atom   50 type  1   force =     0.00008176    0.00006611    0.00005344
     atom   51 type  1   force =    -0.00042058   -0.00019628    0.00021892
     atom   52 type  1   force =    -0.00011545    0.00017972    0.00024820
     atom   53 type  1   force =     0.00067128    0.00036962    0.00039405
     atom   54 type  1   force =     0.00019480   -0.00015105   -0.00003392
     atom   55 type  1   force =    -0.00031707    0.00002515   -0.00002803
     atom   56 type  1   force =     0.00053538    0.00002686   -0.00012298
     atom   57 type  2   force =    -0.00014795   -0.00039665   -0.00005668
     atom   58 type  2   force =     0.00064970   -0.00035898    0.00010464
     atom   59 type  2   force =     0.00003794   -0.00008056   -0.00038282
     atom   60 type  2   force =    -0.00044208   -0.00078469    0.00034179
     atom   61 type  2   force =     0.00022974    0.00020631   -0.00039495
     atom   62 type  2   force =    -0.00000651   -0.00025398   -0.00029943
     atom   63 type  2   force =     0.00001327    0.00007296    0.00000442
     atom   64 type  2   force =     0.00030831   -0.00036158   -0.00026822
     atom   65 type  2   force =    -0.00004819   -0.00018867   -0.00016656
     atom   66 type  2   force =     0.00029601    0.00014357   -0.00018031
     atom   67 type  2   force =     0.00025657    0.00041172    0.00025935
     atom   68 type  2   force =    -0.00007893    0.00021761    0.00037619
     atom   69 type  2   force =     0.00023427    0.00069014   -0.00041411
     atom   70 type  2   force =    -0.00023903   -0.00068046    0.00004255
     atom   71 type  2   force =     0.00005917   -0.00035589    0.00073407
     atom   72 type  2   force =     0.00016630   -0.00023555   -0.00013026
     atom   73 type  2   force =     0.00000939    0.00025737   -0.00044156
     atom   74 type  2   force =    -0.00048447    0.00012242    0.00037813
     atom   75 type  2   force =     0.00035134    0.00036097   -0.00045928
     atom   76 type  2   force =    -0.00025468    0.00009079   -0.00041349
     atom   77 type  2   force =    -0.00003001    0.00010557   -0.00044245
     atom   78 type  2   force =     0.00038218   -0.00071741    0.00020746
     atom   79 type  2   force =    -0.00064412   -0.00005240    0.00047154
     atom   80 type  2   force =    -0.00016900    0.00012003   -0.00030958
     atom   81 type  2   force =     0.00010191   -0.00039277   -0.00028946
     atom   82 type  2   force =    -0.00007913   -0.00062471   -0.00060477
     atom   83 type  2   force =    -0.00027817   -0.00012597    0.00029089
     atom   84 type  2   force =     0.00001706    0.00058475    0.00019472
     atom   85 type  2   force =     0.00000730   -0.00022275   -0.00031314
     atom   86 type  2   force =    -0.00013756   -0.00038579   -0.00019921
     atom   87 type  2   force =     0.00032150    0.00042119   -0.00006260
     atom   88 type  2   force =    -0.00003347    0.00031885    0.00017300
     atom   89 type  2   force =     0.00004831   -0.00031695   -0.00036978
     atom   90 type  2   force =    -0.00036371    0.00022445   -0.00048677
     atom   91 type  2   force =    -0.00018369   -0.00014507   -0.00030238
     atom   92 type  2   force =    -0.00002492    0.00046152    0.00011992
     atom   93 type  2   force =     0.00012403   -0.00038794    0.00035501
     atom   94 type  2   force =    -0.00017528    0.00023320    0.00023454
     atom   95 type  2   force =     0.00051371    0.00019106   -0.00047854
     atom   96 type  2   force =     0.00005541    0.00022372   -0.00002309
     atom   97 type  2   force =     0.00034195    0.00001879   -0.00034331
     atom   98 type  2   force =     0.00046275   -0.00051881    0.00014257
     atom   99 type  2   force =    -0.00054276   -0.00003405   -0.00022673
     atom  100 type  2   force =    -0.00016586    0.00078061   -0.00051844
     atom  101 type  2   force =     0.00036748    0.00013375    0.00058271
     atom  102 type  2   force =     0.00033047    0.00042918   -0.00061222
     atom  103 type  2   force =     0.00017384   -0.00031142   -0.00014361
     atom  104 type  2   force =     0.00049040    0.00029908    0.00037267
     atom  105 type  3   force =     0.00046069   -0.00026564    0.00003916
     atom  106 type  3   force =    -0.00016696    0.00017356    0.00040027
     atom  107 type  3   force =    -0.00019967    0.00037746    0.00004361
     atom  108 type  3   force =     0.00002453   -0.00002313   -0.00016611
     atom  109 type  3   force =     0.00031245   -0.00053656    0.00041584
     atom  110 type  3   force =    -0.00004296    0.00038908    0.00010517
     atom  111 type  3   force =    -0.00049129   -0.00024241   -0.00012832
     atom  112 type  3   force =    -0.00008533    0.00054091   -0.00018175
     atom  113 type  4   force =    -0.00038381    0.00046713   -0.00030129
     atom  114 type  4   force =     0.00022751   -0.00017551   -0.00058933
     atom  115 type  4   force =     0.00035095    0.00094403   -0.00001438
     atom  116 type  4   force =     0.00044566    0.00009413    0.00032904
     atom  117 type  5   force =    -0.00018534   -0.00021981    0.00021289
     atom  118 type  5   force =    -0.00013757    0.00016213    0.00013482
     atom  119 type  5   force =    -0.00061617   -0.00010369    0.00032754
     atom  120 type  5   force =     0.00055551    0.00033901   -0.00028634
     atom  121 type  5   force =    -0.00021668    0.00061093    0.00024065
     atom  122 type  5   force =    -0.00014833    0.00008654    0.00030093
     atom  123 type  5   force =     0.00014502    0.00018766   -0.00054283
     atom  124 type  5   force =     0.00057145   -0.00043834   -0.00018976
     atom  125 type  5   force =     0.00026490    0.00002546    0.00032446
     atom  126 type  5   force =    -0.00040933   -0.00027746    0.00022976
     atom  127 type  5   force =    -0.00055118   -0.00033951    0.00067416
     atom  128 type  5   force =     0.00025876   -0.00014038   -0.00004447
     atom  129 type  5   force =    -0.00056373   -0.00014280    0.00025027
     atom  130 type  5   force =    -0.00040465    0.00005539    0.00000836
     atom  131 type  5   force =    -0.00006921    0.00011178   -0.00051535
     atom  132 type  5   force =     0.00010396    0.00000673    0.00001847

     Total force =     0.006229     Total SCF correction =     0.000241

     bfgs converged in  82 scf cycles and  81 bfgs steps
     (criteria: energy <  1.0E-04 Ry, force <  1.0E-03 Ry/Bohr)

     End of BFGS Geometry Optimization

     Final energy   =   -1732.1577584806 Ry
Begin final coordinates

ATOMIC_POSITIONS (crystal)
C             0.2779778417        0.9667489718        0.5388052019
C             0.0254170303       -0.0034449129        0.0392834172
C             0.3861987095        0.0007749667        0.5503654989
C             0.1338205422        0.9697106933        0.0440085443
C             0.4548901587        0.9430222233        0.6328281121
C             0.2045791782        0.0303497405        0.1245964816
C             0.2051219292        0.5229752509        0.5199925620
C             0.4449089196        0.4397263250        0.0200853378
C             0.2423173823        0.6048805197        0.6017196043
C             0.4843850050        0.3672348137        0.1157015290
C             0.2438979204        0.8847384133        0.6243204355
C            -0.0111392976        0.0844604958        0.1100925359
C             0.4144133889        0.8619425572        0.7127515976
C             0.1610372147        0.1214967760        0.1877125954
C             0.0926450168        0.5891925058        0.7309679030
C             0.3409302492        0.3953179473        0.2505551661
C             0.0527922875        0.4991077226        0.6601130627
C             0.2989458813        0.4733583433        0.1656592412
C             0.1099348904        0.4699846273        0.5471215570
C             0.3526803558        0.4991680041        0.0520619792
C             0.4280425185        0.0954045790        0.4810032257
C             0.1739556234        0.8793517504        0.9670790791
C             0.0704582716        0.3865011330        0.4567443666
C             0.3123152814        0.5875166751        0.9692665639
C             0.7941733993        0.9736813739        0.5120844728
C             0.5495340676        0.0618711647        0.0177455668
C             0.8901040286        0.0263051902        0.5419204297
C             0.6436211548        1.0038836903        0.0510544254
C             0.9475590318        0.9982889848        0.6581131584
C             0.6984704557        0.0291596942        0.1669545077
C             0.7209819881        0.5335409176        0.5428112496
C             0.9712394207        0.5033526152        0.0398851495
C             0.7536191493        0.6182676389        0.6270607308
C             1.0084439951        0.4144069131        0.1103302732
C             0.7552475157        0.8952954421        0.5957984069
C             0.5109728400        0.1335692584        0.1128604327
C             0.9056076818        0.9116546607        0.7313957939
C             0.6563232226        0.1054150794        0.2519826272
C             0.5842556562        0.6360106264        0.7117288279
C             0.8384559100        0.3817428074        0.1889310909
C             0.5451250363        0.5521650664        0.6331425721
C             0.7941396778        0.4731156848        0.1247677812
C             0.6139482556        0.4966166924        0.5522753779
C             0.8635474901        0.5324802233        0.0446187267
C             0.9298823681        0.1090281236        0.4525427566
C             0.6845450341        0.9176150620        0.9674598243
C             0.5732075406        0.4011374345        0.4819361847
C             0.8233151780        0.6241875457        0.9677127664
C             0.2011235512        0.0054551726        0.4436109770
C             0.3151762704        1.0012515776        0.1515503287
C             0.9627940215        0.4411278803        0.7122900055
C             0.5007717713        0.4460114577        0.8980132927
C             0.0407313191        0.0539462879        0.7104865807
C             0.4899053782        1.0541798378        0.8953545106
C             0.7977109111        0.4940799137        0.4519166573
C             0.6841957513        0.5025688249        0.1496330104
H             0.2522611161        0.5018097340        0.4365321623
H             0.0285857917        0.5496202749        0.9858779543
H             0.3172955064        0.6461441719        0.5855451764
H             0.0920657793        0.3907589137        0.1106327300
H             0.1603881954        0.8606333681        0.6229454246
H             0.4361898642        0.1749548352        0.0935403272
H             0.4652442746        0.8216557294        0.7840265050
H             0.2129438970        0.1718150095        0.2478907052
H             0.0470815676        0.6212212488        0.8109367445
H             0.3000757509        0.3712590607        0.3378871169
H             0.4617855472        0.5292305803        0.6404251010
H             0.2251358544        0.5134961573        0.1905262026
H             0.7473698964        0.9922789164        0.4250414267
H             0.9666384194       -0.0504469203        0.9855604479
H             0.5393456625        0.9624036629        0.6410091439
H             0.7732963215        0.9901068484        0.1939493460
H             0.8362677092        0.6450220044        0.6274493557
H             0.5589085943        0.3259019270        0.0984311806
H             0.6795399893        0.8548079118        0.5772991939
H             0.9047944060        0.1061274139        0.1111128509
H             0.9514817287        0.8804743027        0.8140063969
H             0.6979649934        0.1290840553        0.3410395985
H             0.5336026718        0.6756451036        0.7810344697
H             0.7879382051        0.3331295553        0.2502006331
H             0.1202806854        0.9778834989        0.4606300472
H             0.2056094739        0.0925707128        0.4354304237
H             0.2253938921        0.9770898719        0.3474105149
H             0.3528338058        0.0534736059        0.2237053106
H             0.3213696285        0.9177313743        0.1836071497
H             0.3593145069        0.0003377217        0.0602941586
H             0.9200693802        0.4874791472        0.7841610605
H             0.9930781414        0.3675689439        0.7596992662
H             0.9098278726        0.4107207049        0.6344437281
H             0.5662285654        0.3890985197        0.8924015594
H             0.5317469196        0.5277485814        0.8866818605
H             0.4447539998        0.4365148346        0.8152975128
H             0.0820944220        1.0082215793        0.7861887028
H             0.0147401799        0.1305290948        0.7526494855
H             0.0941253767        1.0790183130        0.6331040094
H             0.4248211414        0.1116084468        0.8875187746
H             0.4568101296        0.9728017517        0.8868338927
H             0.5431920778        0.0608760110        0.8126516050
H             0.8778522581        0.5252468476        0.4692592540
H             0.7967622743        0.4065411373        0.4488771989
H             0.7704354903        0.5164973616        0.3531787839
H             0.6479180867        0.4502671652        0.2209621254
H             0.6789527207        0.5862429879        0.1811180614
H             0.6378136107        0.5032443112        0.0575048744
N             0.3097803944        0.8352878586        0.7090546812
N             0.0565523588        0.1453866795        0.1828920154
N             0.1855749516        0.6370978204        0.7049363163
N             0.4343017728        0.3460065995        0.2265506366
N             0.8111186285        0.8655835633        0.7038261221
N             0.5620021282        0.1537448152        0.2260866982
N             0.6875808273        0.6670130940        0.7088105942
N             0.9420772739        0.3551414785        0.1833824968
Ni            0.2463042995        0.7362744806        0.8362431495
Ni            0.4992135796        0.2489511660        0.3587108695
Ni            0.7501123482        0.7699596196        0.8361295156
Ni            0.9994459250        0.2489337451        0.3085572109
O             0.1265710138        0.3469943442        0.3649807849
O             0.3684380525        0.6347896072        0.8828502447
O             0.3723149784        0.1537299705        0.4009675733
O             0.1162771643        0.8283825036        0.8823412486
O             0.4775982872        0.3658072952        0.4961521335
O             0.2174554328        0.6251417888        0.9797076983
O             0.0244647868        0.1481702225        0.4612279681
O             0.2711495540        0.8457418872        0.9752596976
O             0.6277758864        0.3449728546        0.4017722651
O             0.8797185980        0.6739124554        0.8837487190
O             0.8739826130        0.1480282767        0.3571930662
O             0.6281929994        0.8708840345        0.8777442987
O             0.9754404978        0.3481951300        0.4599330315
O             0.7274030868        0.6604940000        0.9756649351
O             0.5247402995        0.1280542292        0.4962730186
O             0.7801035086        0.8810651261        0.9802353621
End final coordinates



     Writing output data file ./QE_relaxation_results/pbesol_relax/NiPyC2_relax_sc211_meta_functionalized_CH3_pbesol_relax.save/
