/apps/openmpi/3.1_intel-19/bin/mpiexec
/apps/qe/6.5/bin/pw.x
starting QE Sat Aug 1 12:09:53 PDT 2020

     Program PWSCF v.6.5 starts on  1Aug2020 at 12: 9:54 

     This program is part of the open-source Quantum ESPRESSO suite
     for quantum simulation of materials; please cite
         "P. Giannozzi et al., J. Phys.:Condens. Matter 21 395502 (2009);
         "P. Giannozzi et al., J. Phys.:Condens. Matter 29 465901 (2017);
          URL http://www.quantum-espresso.org", 
     in publications or presentations arising from this work. More details at
     http://www.quantum-espresso.org/quote

     Parallel version (MPI & OpenMP), running on      16 processor cores
     Number of MPI processes:                16
     Threads/MPI process:                     1

     MPI processes distributed on     1 nodes
     K-points division:     npool     =       2
     R & G space division:  proc/nbgrp/npool/nimage =       8
     Reading input from ./QE_input_scripts/pw.NiPyC2_relax_sc211_ortho_functionalized_OH_pbesol_relax.in
Warning: card &CELL ignored
Warning: card    CELL_DYNAMICS = 'BFGS' ignored
Warning: card    CELL_DOFREE = 'XYZ' ignored
Warning: card / ignored

     Current dimensions of program PWSCF are:
     Max number of different atomic species (ntypx) = 10
     Max number of k-points (npk) =  40000
     Max angular momentum in pseudopotentials (lmaxx) =  3

     -------------------------------------------------
     Parameters for Dispersion (Grimme-D2) Correction:
     -------------------------------------------------
       atom      VdW radius       C_6     

        C          2.744         60.710
        H          1.892          4.857
        N          2.640         42.670
        Ni         2.952        374.666
        O          2.536         24.284

     gamma-point specific algorithms are used

     Subspace diagonalization in iterative solution of the eigenvalue problem:
     a serial algorithm will be used

 
     Parallelization info
     --------------------
     sticks:   dense  smooth     PW     G-vecs:    dense   smooth      PW
     Min        2228    2228    556               183376   183376   22914
     Max        2230    2230    558               183380   183380   22917
     Sum       17829   17829   4453              1467017  1467017  183325
 


     bravais-lattice index     =            0
     lattice parameter (alat)  =      23.6322  a.u.
     unit-cell volume          =   10858.6228 (a.u.)^3
     number of atoms/cell      =          116
     number of atomic types    =            5
     number of electrons       =       448.00 (up: 228.00, down: 220.00)
     number of Kohn-Sham states=          274
     kinetic-energy cutoff     =     100.0000  Ry
     charge density cutoff     =     400.0000  Ry
     convergence threshold     =      1.0E-06
     mixing beta               =       0.7000
     number of iterations used =            8  local-TF  mixing
     Exchange-correlation= PBESOL
                           (   1   4  10   8   0   0   0)
     nstep                     =          200


     celldm(1)=  23.632159  celldm(2)=   0.000000  celldm(3)=   0.000000
     celldm(4)=   0.000000  celldm(5)=   0.000000  celldm(6)=   0.000000

     crystal axes: (cart. coord. in units of alat)
               a(1) = (   1.000000   0.000000   0.000000 )  
               a(2) = (   0.000000   1.001423   0.000000 )  
               a(3) = (  -0.018199   0.000000   0.821574 )  

     reciprocal axes: (cart. coord. in units 2 pi/alat)
               b(1) = (  1.000000  0.000000  0.022152 )  
               b(2) = (  0.000000  0.998579  0.000000 )  
               b(3) = (  0.000000  0.000000  1.217175 )  


     PseudoPot. # 1 for C  read from file:
     ./pseudo/C.pbesol-nc.UPF
     MD5 check sum: ce26087537ded160c8d400e183a8bf42
     Pseudo is Norm-conserving, Zval =  4.0
     Generated using "atomic" code by A. Dal Corso v.6.5
     Using radial grid of 1073 points,  1 beta functions with: 
                l(1) =   1

     PseudoPot. # 2 for H  read from file:
     ./pseudo/H.pbesol-n-nc.UPF
     MD5 check sum: 7995ef24074557c85b430109caaacc09
     Pseudo is Norm-conserving, Zval =  1.0
     Generated using "atomic" code by A. Dal Corso v.6.5
     Using radial grid of  929 points,  0 beta functions with: 

     PseudoPot. # 3 for N  read from file:
     ./pseudo/N.pbesol-nc.UPF
     MD5 check sum: e18cc5e4b8a5600c1a19b30c2cab1ca0
     Pseudo is Norm-conserving, Zval =  5.0
     Generated using "atomic" code by A. Dal Corso v.6.5
     Using radial grid of 1085 points,  1 beta functions with: 
                l(1) =   1

     PseudoPot. # 4 for Ni read from file:
     ./pseudo/Ni.pbesol-n-nc.UPF
     MD5 check sum: 623411631e0c2eb7c0b2b9815547d2d9
     Pseudo is Norm-conserving + core correction, Zval = 10.0
     Generated using "atomic" code by A. Dal Corso v.6.5
     Using radial grid of 1195 points,  2 beta functions with: 
                l(1) =   1
                l(2) =   2

     PseudoPot. # 5 for O  read from file:
     ./pseudo/O.pbesol-nc.UPF
     MD5 check sum: 73d10e7e91dbfcbe8a7e362101007f84
     Pseudo is Norm-conserving, Zval =  6.0
     Generated using "atomic" code by A. Dal Corso v.6.5
     Using radial grid of 1095 points,  1 beta functions with: 
                l(1) =   1

     atomic species   valence    mass     pseudopotential
        C              4.00    12.01070     C ( 1.00)
        H              1.00     1.00794     H ( 1.00)
        N              5.00    14.00670     N ( 1.00)
        Ni            10.00    58.69340     Ni( 1.00)
        O              6.00    15.99940     O ( 1.00)

     Starting magnetic structure 
     atomic species   magnetization
        C            0.000
        H            0.000
        N            0.000
        Ni           0.250
        O            0.000

     No symmetry found



   Cartesian axes

     site n.     atom                  positions (alat units)
         1           C   tau(   1) = (   0.2787122   0.9714307   0.4288486  )
         2           C   tau(   2) = (   0.0379730   0.0311503   0.0183277  )
         3           C   tau(   3) = (   0.3806882   0.0117868   0.4489838  )
         4           C   tau(   4) = (   0.1394042   0.9891499   0.0379124  )
         5           C   tau(   5) = (   0.4400787   0.9715829   0.5343281  )
         6           C   tau(   6) = (   0.1997920   0.0283934   0.1231482  )
         7           C   tau(   7) = (   0.1986011   0.5304580   0.4324635  )
         8           C   tau(   8) = (   0.4580372   0.4720800   0.0229252  )
         9           C   tau(   9) = (   0.2341003   0.6142040   0.4982314  )
        10           C   tau(  10) = (   0.4948422   0.3892302   0.0892369  )
        11           C   tau(  11) = (   0.2384981   0.8904717   0.4955761  )
        12           C   tau(  12) = (  -0.0008282   0.1123917   0.0856467  )
        13           C   tau(  13) = (   0.3947360   0.8906489   0.5977380  )
        14           C   tau(  14) = (   0.1557890   0.1097029   0.1871645  )
        15           C   tau(  15) = (   0.0756247   0.6098498   0.5975737  )
        16           C   tau(  16) = (   0.3367152   0.3921904   0.1884642  )
        17           C   tau(  17) = (   0.0350715   0.5258264   0.5351012  )
        18           C   tau(  18) = (   0.2948780   0.4753867   0.1254988  )
        19           C   tau(  19) = (   0.0981522   0.4849593   0.4519611  )
        20           C   tau(  20) = (   0.3569104   0.5163900   0.0416029  )
        21           C   tau(  21) = (   0.4248178   0.0994604   0.3833638  )
        22           C   tau(  22) = (   0.1639424   0.9010006   0.7933713  )
        23           C   tau(  23) = (   0.0588120   0.3950355   0.3866953  )
        24           C   tau(  24) = (   0.2984059   0.6050320   0.7961934  )
        25           C   tau(  25) = (   0.7787122   0.9714307   0.4288486  )
        26           C   tau(  26) = (   0.5379730   0.0311503   0.0183277  )
        27           C   tau(  27) = (   0.8806882   0.0117868   0.4489838  )
        28           C   tau(  28) = (   0.6394042   0.9891499   0.0379124  )
        29           C   tau(  29) = (   0.9400787   0.9715829   0.5343281  )
        30           C   tau(  30) = (   0.6997920   0.0283934   0.1231482  )
        31           C   tau(  31) = (   0.6986021   0.5304580   0.4324635  )
        32           C   tau(  32) = (   0.9580382   0.4720800   0.0229252  )
        33           C   tau(  33) = (   0.7341003   0.6142040   0.4982314  )
        34           C   tau(  34) = (   0.9948422   0.3892302   0.0892369  )
        35           C   tau(  35) = (   0.7384981   0.8904717   0.4955761  )
        36           C   tau(  36) = (   0.4991718   0.1123917   0.0856467  )
        37           C   tau(  37) = (   0.8947360   0.8906489   0.5977380  )
        38           C   tau(  38) = (   0.6557880   0.1097029   0.1871645  )
        39           C   tau(  39) = (   0.5756247   0.6098498   0.5975737  )
        40           C   tau(  40) = (   0.8367152   0.3921904   0.1884642  )
        41           C   tau(  41) = (   0.5350715   0.5258264   0.5351012  )
        42           C   tau(  42) = (   0.7948780   0.4753867   0.1254988  )
        43           C   tau(  43) = (   0.5981522   0.4849593   0.4519611  )
        44           C   tau(  44) = (   0.8569104   0.5163900   0.0416029  )
        45           C   tau(  45) = (   0.9248178   0.0994604   0.3833638  )
        46           C   tau(  46) = (   0.6639424   0.9010006   0.7933713  )
        47           C   tau(  47) = (   0.5588110   0.3950355   0.3866953  )
        48           C   tau(  48) = (   0.7984059   0.6050320   0.7961934  )
        49           H   tau(  49) = (   0.2290596   1.0009978   0.3640502  )
        50           H   tau(  50) = (   0.4693669   0.0026958   0.7751545  )
        51           H   tau(  51) = (   0.0198054   1.0002267   0.5533467  )
        52           H   tau(  52) = (   0.2791988   1.0000865   0.1418054  )
        53           H   tau(  53) = (   0.2505234   0.5016080   0.3691185  )
        54           H   tau(  54) = (  -0.0086584   0.5011092   0.7809458  )
        55           H   tau(  55) = (   0.1594426   0.8563401   0.4835457  )
        56           H   tau(  56) = (   0.0290492   0.6438591   0.6626884  )
        57           H   tau(  57) = (   0.2907535   0.3580349   0.2539083  )
        58           H   tau(  58) = (   0.4564147   0.4939330   0.5533319  )
        59           H   tau(  59) = (   0.2157623   0.5059201   0.1439924  )
        60           H   tau(  60) = (   0.7290596   1.0009978   0.3640502  )
        61           H   tau(  61) = (   0.9693669   0.0026958   0.7751545  )
        62           H   tau(  62) = (   0.5198044   1.0002267   0.5533467  )
        63           H   tau(  63) = (   0.7791988   1.0000865   0.1418054  )
        64           H   tau(  64) = (   0.7505234   0.5016080   0.3691185  )
        65           H   tau(  65) = (   0.4913416   0.5011092   0.7809458  )
        66           H   tau(  66) = (   0.9206861   0.1479423   0.0738480  )
        67           H   tau(  67) = (   0.9386511   0.8563902   0.6644572  )
        68           H   tau(  68) = (   0.7006201   0.1433067   0.2536997  )
        69           H   tau(  69) = (   0.5290492   0.6438591   0.6626884  )
        70           H   tau(  70) = (   0.7907535   0.3580349   0.2539083  )
        71           H   tau(  71) = (   0.9564147   0.4939330   0.5533319  )
        72           H   tau(  72) = (   0.7157623   0.5059201   0.1439924  )
        73           H   tau(  73) = (   0.4257637   0.7938964   0.7268147  )
        74           H   tau(  74) = (   0.1888344   0.2056623   0.3162971  )
        75           H   tau(  75) = (   0.3597557   0.7169440   0.5221827  )
        76           H   tau(  76) = (   0.6223448   0.2889076   0.1138603  )
        77           H   tau(  77) = (   0.6080791   0.7936430   0.5188702  )
        78           H   tau(  78) = (   0.3703051   0.2111201   0.1096908  )
        79           H   tau(  79) = (   0.8597557   0.7169450   0.5221819  )
        80           H   tau(  80) = (   0.1223448   0.2889076   0.1138603  )
        81           N   tau(  81) = (   0.2956096   0.8524646   0.5790685  )
        82           N   tau(  82) = (   0.0569790   0.1490689   0.1692870  )
        83           N   tau(  83) = (   0.1736962   0.6512356   0.5798983  )
        84           N   tau(  84) = (   0.4350238   0.3514275   0.1709211  )
        85           N   tau(  85) = (   0.7956096   0.8524646   0.5790685  )
        86           N   tau(  86) = (   0.5569790   0.1490689   0.1692870  )
        87           N   tau(  87) = (   0.6736972   0.6512356   0.5798983  )
        88           N   tau(  88) = (   0.9350238   0.3514275   0.1709211  )
        89           Ni  tau(  89) = (   0.2317814   0.7525556   0.6871039  )
        90           Ni  tau(  90) = (   0.4937992   0.2483520   0.2786599  )
        91           Ni  tau(  91) = (   0.7317814   0.7525556   0.6871039  )
        92           Ni  tau(  92) = (   0.9937992   0.2483520   0.2786599  )
        93           O   tau(  93) = (   0.1158100   0.3481839   0.3145586  )
        94           O   tau(  94) = (   0.3551690   0.6519036   0.7240468  )
        95           O   tau(  95) = (   0.3707656   0.1477170   0.3098797  )
        96           O   tau(  96) = (   0.1091506   0.8535652   0.7199135  )
        97           O   tau(  97) = (   0.4642788   0.3566669   0.3968154  )
        98           O   tau(  98) = (   0.2033039   0.6423280   0.8050417  )
        99           O   tau(  99) = (   0.0200847   0.1353504   0.3952413  )
       100           O   tau( 100) = (   0.2588616   0.8639860   0.8046490  )
       101           O   tau( 101) = (   0.6158110   0.3481839   0.3145586  )
       102           O   tau( 102) = (   0.8551690   0.6519036   0.7240468  )
       103           O   tau( 103) = (   0.8707656   0.1477170   0.3098797  )
       104           O   tau( 104) = (   0.6091506   0.8535652   0.7199135  )
       105           O   tau( 105) = (   0.9642788   0.3566669   0.3968154  )
       106           O   tau( 106) = (   0.7033039   0.6423280   0.8050417  )
       107           O   tau( 107) = (   0.5200847   0.1353504   0.3952413  )
       108           O   tau( 108) = (   0.7588616   0.8639860   0.8046490  )
       109           O   tau( 109) = (   0.4539911   0.8496967   0.6812017  )
       110           O   tau( 110) = (   0.2161010   0.1496848   0.2703176  )
       111           O   tau( 111) = (   0.3325587   0.6590688   0.4785736  )
       112           O   tau( 112) = (   0.5941927   0.3460879   0.0699406  )
       113           O   tau( 113) = (   0.6385495   0.8494614   0.4747467  )
       114           O   tau( 114) = (   0.3998256   0.1550804   0.0652034  )
       115           O   tau( 115) = (   0.8325587   0.6590688   0.4785728  )
       116           O   tau( 116) = (   0.0941937   0.3460879   0.0699414  )

     number of k points=     1  Marzari-Vanderbilt smearing, width (Ry)=  0.2000
                       cart. coord. in units 2pi/alat
        k(    1) = (   0.0000000   0.0000000   0.0000000), wk =   1.0000000

     Dense  grid:   733509 G-vectors     FFT dimensions: ( 160, 160, 125)

     Estimated max dynamical RAM per process >     632.20 MB

     Estimated total dynamical RAM >       9.88 GB
     Generating pointlists ...
     new r_m :   0.0358 (alat units)  0.8461 (a.u.) for type    1
     new r_m :   0.0319 (alat units)  0.7545 (a.u.) for type    2
     new r_m :   0.0445 (alat units)  1.0514 (a.u.) for type    3
     new r_m :   0.0654 (alat units)  1.5454 (a.u.) for type    4
     new r_m :   0.0319 (alat units)  0.7545 (a.u.) for type    5

     Check: negative core charge=   -0.000145

     Initial potential from superposition of free atoms

     starting charge  447.99668, renormalised to  448.00000
     Starting wfcs are  388 randomized atomic wfcs

     total cpu time spent up to now is       39.4 secs

     Self-consistent Calculation

     iteration #  1     ecut=   100.00 Ry     beta= 0.70
     Davidson diagonalization with overlap
     ethr =  1.00E-02,  avg # of iterations =  4.0

     total cpu time spent up to now is      139.2 secs

     total energy              =   -1874.55190192 Ry
     Harris-Foulkes estimate   =   -1882.82171007 Ry
     estimated scf accuracy    <      20.70416839 Ry

     total magnetization       =     8.00 Bohr mag/cell
     absolute magnetization    =     8.67 Bohr mag/cell

     iteration #  2     ecut=   100.00 Ry     beta= 0.70
     Davidson diagonalization with overlap
     ethr =  4.62E-03,  avg # of iterations =  2.0

     total cpu time spent up to now is      201.5 secs

     total energy              =   -1877.93535647 Ry
     Harris-Foulkes estimate   =   -1881.75711017 Ry
     estimated scf accuracy    <      18.54183599 Ry

     total magnetization       =     8.00 Bohr mag/cell
     absolute magnetization    =     8.30 Bohr mag/cell

     iteration #  3     ecut=   100.00 Ry     beta= 0.70
     Davidson diagonalization with overlap
     ethr =  4.14E-03,  avg # of iterations =  1.0

     total cpu time spent up to now is      257.6 secs

     total energy              =   -1877.86611969 Ry
     Harris-Foulkes estimate   =   -1878.74877928 Ry
     estimated scf accuracy    <       2.61998999 Ry

     total magnetization       =     8.00 Bohr mag/cell
     absolute magnetization    =     8.21 Bohr mag/cell

     iteration #  4     ecut=   100.00 Ry     beta= 0.70
     Davidson diagonalization with overlap
     ethr =  5.85E-04,  avg # of iterations =  6.0

     total cpu time spent up to now is      330.5 secs

     total energy              =   -1877.78031887 Ry
     Harris-Foulkes estimate   =   -1878.73255471 Ry
     estimated scf accuracy    <       7.87227695 Ry

     total magnetization       =     8.00 Bohr mag/cell
     absolute magnetization    =     8.31 Bohr mag/cell

     iteration #  5     ecut=   100.00 Ry     beta= 0.70
     Davidson diagonalization with overlap
     ethr =  5.85E-04,  avg # of iterations =  2.0

     total cpu time spent up to now is      386.2 secs

     total energy              =   -1878.21822997 Ry
     Harris-Foulkes estimate   =   -1878.27688894 Ry
     estimated scf accuracy    <       0.35673926 Ry

     total magnetization       =     8.00 Bohr mag/cell
     absolute magnetization    =     8.25 Bohr mag/cell

     iteration #  6     ecut=   100.00 Ry     beta= 0.70
     Davidson diagonalization with overlap
     ethr =  7.96E-05,  avg # of iterations =  6.0

     total cpu time spent up to now is      448.7 secs

     total energy              =   -1878.20739726 Ry
     Harris-Foulkes estimate   =   -1878.26951339 Ry
     estimated scf accuracy    <       1.00173649 Ry

     total magnetization       =     8.00 Bohr mag/cell
     absolute magnetization    =     8.25 Bohr mag/cell

     iteration #  7     ecut=   100.00 Ry     beta= 0.70
     Davidson diagonalization with overlap
     ethr =  7.96E-05,  avg # of iterations =  1.0

     total cpu time spent up to now is      506.2 secs

     total energy              =   -1878.17380276 Ry
     Harris-Foulkes estimate   =   -1878.23402234 Ry
     estimated scf accuracy    <       0.40247756 Ry

     total magnetization       =     8.00 Bohr mag/cell
     absolute magnetization    =     8.26 Bohr mag/cell

     iteration #  8     ecut=   100.00 Ry     beta= 0.70
     Davidson diagonalization with overlap
     ethr =  7.96E-05,  avg # of iterations =  1.0

     total cpu time spent up to now is      561.2 secs

     total energy              =   -1878.19747662 Ry
     Harris-Foulkes estimate   =   -1878.20594296 Ry
     estimated scf accuracy    <       0.13817758 Ry

     total magnetization       =     8.00 Bohr mag/cell
     absolute magnetization    =     8.27 Bohr mag/cell

     iteration #  9     ecut=   100.00 Ry     beta= 0.70
     Davidson diagonalization with overlap
     ethr =  3.08E-05,  avg # of iterations =  2.0

     total cpu time spent up to now is      619.0 secs

     total energy              =   -1878.19892725 Ry
     Harris-Foulkes estimate   =   -1878.20392618 Ry
     estimated scf accuracy    <       0.07396834 Ry

     total magnetization       =     8.00 Bohr mag/cell
     absolute magnetization    =     8.27 Bohr mag/cell

     iteration # 10     ecut=   100.00 Ry     beta= 0.70
     Davidson diagonalization with overlap
     ethr =  1.65E-05,  avg # of iterations =  6.5

     total cpu time spent up to now is      683.9 secs

     total energy              =   -1878.20548255 Ry
     Harris-Foulkes estimate   =   -1878.20387901 Ry
     estimated scf accuracy    <       0.01862500 Ry

     total magnetization       =     8.00 Bohr mag/cell
     absolute magnetization    =     8.26 Bohr mag/cell

     iteration # 11     ecut=   100.00 Ry     beta= 0.70
     Davidson diagonalization with overlap
     ethr =  4.16E-06,  avg # of iterations =  7.5

     total cpu time spent up to now is      750.1 secs

     total energy              =   -1878.20712227 Ry
     Harris-Foulkes estimate   =   -1878.20608450 Ry
     estimated scf accuracy    <       0.01000312 Ry

     total magnetization       =     8.00 Bohr mag/cell
     absolute magnetization    =     8.25 Bohr mag/cell

     iteration # 12     ecut=   100.00 Ry     beta= 0.70
     Davidson diagonalization with overlap
     ethr =  2.23E-06,  avg # of iterations =  6.5

     total cpu time spent up to now is      814.7 secs

     total energy              =   -1878.20767397 Ry
     Harris-Foulkes estimate   =   -1878.20774872 Ry
     estimated scf accuracy    <       0.00358276 Ry

     total magnetization       =     8.00 Bohr mag/cell
     absolute magnetization    =     8.24 Bohr mag/cell

     iteration # 13     ecut=   100.00 Ry     beta= 0.70
     Davidson diagonalization with overlap
     ethr =  8.00E-07,  avg # of iterations =  2.0

     total cpu time spent up to now is      871.8 secs

     total energy              =   -1878.20829358 Ry
     Harris-Foulkes estimate   =   -1878.20827596 Ry
     estimated scf accuracy    <       0.00807211 Ry

     total magnetization       =     8.00 Bohr mag/cell
     absolute magnetization    =     8.24 Bohr mag/cell

     iteration # 14     ecut=   100.00 Ry     beta= 0.70
     Davidson diagonalization with overlap
     ethr =  8.00E-07,  avg # of iterations =  2.5

     total cpu time spent up to now is      930.2 secs

     total energy              =   -1878.20889211 Ry
     Harris-Foulkes estimate   =   -1878.20857632 Ry
     estimated scf accuracy    <       0.00032861 Ry

     total magnetization       =     8.00 Bohr mag/cell
     absolute magnetization    =     8.24 Bohr mag/cell

     iteration # 15     ecut=   100.00 Ry     beta= 0.70
     Davidson diagonalization with overlap
     ethr =  7.34E-08,  avg # of iterations =  4.0

     total cpu time spent up to now is      993.3 secs

     total energy              =   -1878.20896685 Ry
     Harris-Foulkes estimate   =   -1878.20891814 Ry
     estimated scf accuracy    <       0.00009861 Ry

     total magnetization       =     8.00 Bohr mag/cell
     absolute magnetization    =     8.24 Bohr mag/cell

     iteration # 16     ecut=   100.00 Ry     beta= 0.70
     Davidson diagonalization with overlap
     ethr =  2.20E-08,  avg # of iterations = 12.5

     total cpu time spent up to now is     1060.4 secs

     total energy              =   -1878.20897327 Ry
     Harris-Foulkes estimate   =   -1878.20897843 Ry
     estimated scf accuracy    <       0.00012918 Ry

     total magnetization       =     8.00 Bohr mag/cell
     absolute magnetization    =     8.24 Bohr mag/cell

     iteration # 17     ecut=   100.00 Ry     beta= 0.70
     Davidson diagonalization with overlap
     ethr =  2.20E-08,  avg # of iterations =  1.5

     total cpu time spent up to now is     1117.5 secs

     total energy              =   -1878.20899031 Ry
     Harris-Foulkes estimate   =   -1878.20898323 Ry
     estimated scf accuracy    <       0.00007027 Ry

     total magnetization       =     8.00 Bohr mag/cell
     absolute magnetization    =     8.24 Bohr mag/cell

     iteration # 18     ecut=   100.00 Ry     beta= 0.70
     Davidson diagonalization with overlap
     ethr =  1.57E-08,  avg # of iterations =  2.5

     total cpu time spent up to now is     1173.6 secs

     total energy              =   -1878.20899258 Ry
     Harris-Foulkes estimate   =   -1878.20899467 Ry
     estimated scf accuracy    <       0.00004816 Ry

     total magnetization       =     8.00 Bohr mag/cell
     absolute magnetization    =     8.24 Bohr mag/cell

     iteration # 19     ecut=   100.00 Ry     beta= 0.70
     Davidson diagonalization with overlap
     ethr =  1.07E-08,  avg # of iterations =  1.5

     total cpu time spent up to now is     1231.3 secs

     total energy              =   -1878.20899505 Ry
     Harris-Foulkes estimate   =   -1878.20899623 Ry
     estimated scf accuracy    <       0.00003412 Ry

     total magnetization       =     8.00 Bohr mag/cell
     absolute magnetization    =     8.24 Bohr mag/cell

     iteration # 20     ecut=   100.00 Ry     beta= 0.70
     Davidson diagonalization with overlap
     ethr =  7.62E-09,  avg # of iterations =  1.5

     total cpu time spent up to now is     1288.8 secs

     total energy              =   -1878.20899740 Ry
     Harris-Foulkes estimate   =   -1878.20899689 Ry
     estimated scf accuracy    <       0.00000598 Ry

     total magnetization       =     8.00 Bohr mag/cell
     absolute magnetization    =     8.24 Bohr mag/cell

     iteration # 21     ecut=   100.00 Ry     beta= 0.70
     Davidson diagonalization with overlap
     ethr =  1.33E-09,  avg # of iterations =  3.0

     total cpu time spent up to now is     1347.7 secs

     total energy              =   -1878.20899827 Ry
     Harris-Foulkes estimate   =   -1878.20899783 Ry
     estimated scf accuracy    <       0.00000218 Ry

     total magnetization       =     8.00 Bohr mag/cell
     absolute magnetization    =     8.24 Bohr mag/cell

     iteration # 22     ecut=   100.00 Ry     beta= 0.70
     Davidson diagonalization with overlap
     ethr =  4.87E-10,  avg # of iterations =  2.5

     total cpu time spent up to now is     1405.9 secs

     total energy              =   -1878.20899861 Ry
     Harris-Foulkes estimate   =   -1878.20899845 Ry
     estimated scf accuracy    <       0.00000210 Ry

     total magnetization       =     8.00 Bohr mag/cell
     absolute magnetization    =     8.24 Bohr mag/cell

     iteration # 23     ecut=   100.00 Ry     beta= 0.70
     Davidson diagonalization with overlap
     ethr =  4.68E-10,  avg # of iterations =  2.5
 
     Magnetic moment per site:
     atom:    1    charge:    0.8463    magn:    0.0065    constr:    0.0000
     atom:    2    charge:    0.8460    magn:    0.0065    constr:    0.0000
     atom:    3    charge:    0.8461    magn:    0.0033    constr:    0.0000
     atom:    4    charge:    0.8455    magn:    0.0034    constr:    0.0000
     atom:    5    charge:    0.8476    magn:    0.0081    constr:    0.0000
     atom:    6    charge:    0.8490    magn:    0.0081    constr:    0.0000
     atom:    7    charge:    0.8491    magn:    0.0087    constr:    0.0000
     atom:    8    charge:    0.8481    magn:    0.0085    constr:    0.0000
     atom:    9    charge:    0.8132    magn:    0.0021    constr:    0.0000
     atom:   10    charge:    0.8126    magn:    0.0020    constr:    0.0000
     atom:   11    charge:    0.8366    magn:    0.0051    constr:    0.0000
     atom:   12    charge:    0.8363    magn:    0.0050    constr:    0.0000
     atom:   13    charge:    0.8170    magn:    0.0032    constr:    0.0000
     atom:   14    charge:    0.8165    magn:    0.0033    constr:    0.0000
     atom:   15    charge:    0.8384    magn:    0.0045    constr:    0.0000
     atom:   16    charge:    0.8394    magn:    0.0044    constr:    0.0000
     atom:   17    charge:    0.8455    magn:    0.0074    constr:    0.0000
     atom:   18    charge:    0.8452    magn:    0.0071    constr:    0.0000
     atom:   19    charge:    0.8482    magn:    0.0032    constr:    0.0000
     atom:   20    charge:    0.8457    magn:    0.0032    constr:    0.0000
     atom:   21    charge:    0.8227    magn:   -0.0010    constr:    0.0000
     atom:   22    charge:    0.8224    magn:   -0.0018    constr:    0.0000
     atom:   23    charge:    0.8219    magn:   -0.0010    constr:    0.0000
     atom:   24    charge:    0.8226    magn:   -0.0013    constr:    0.0000
     atom:   25    charge:    0.8476    magn:    0.0085    constr:    0.0000
     atom:   26    charge:    0.8487    magn:    0.0085    constr:    0.0000
     atom:   27    charge:    0.8463    magn:    0.0032    constr:    0.0000
     atom:   28    charge:    0.8458    magn:    0.0030    constr:    0.0000
     atom:   29    charge:    0.8461    magn:    0.0069    constr:    0.0000
     atom:   30    charge:    0.8473    magn:    0.0070    constr:    0.0000
     atom:   31    charge:    0.8490    magn:    0.0085    constr:    0.0000
     atom:   32    charge:    0.8480    magn:    0.0088    constr:    0.0000
     atom:   33    charge:    0.8135    magn:    0.0020    constr:    0.0000
     atom:   34    charge:    0.8124    magn:    0.0021    constr:    0.0000
     atom:   35    charge:    0.8134    magn:    0.0021    constr:    0.0000
     atom:   36    charge:    0.8132    magn:    0.0022    constr:    0.0000
     atom:   37    charge:    0.8402    magn:    0.0044    constr:    0.0000
     atom:   38    charge:    0.8393    magn:    0.0043    constr:    0.0000
     atom:   39    charge:    0.8395    magn:    0.0045    constr:    0.0000
     atom:   40    charge:    0.8383    magn:    0.0045    constr:    0.0000
     atom:   41    charge:    0.8455    magn:    0.0070    constr:    0.0000
     atom:   42    charge:    0.8452    magn:    0.0075    constr:    0.0000
     atom:   43    charge:    0.8481    magn:    0.0034    constr:    0.0000
     atom:   44    charge:    0.8457    magn:    0.0036    constr:    0.0000
     atom:   45    charge:    0.8217    magn:   -0.0017    constr:    0.0000
     atom:   46    charge:    0.8236    magn:   -0.0009    constr:    0.0000
     atom:   47    charge:    0.8223    magn:   -0.0017    constr:    0.0000
     atom:   48    charge:    0.8230    magn:   -0.0020    constr:    0.0000
     atom:   49    charge:    0.3851    magn:   -0.0011    constr:    0.0000
     atom:   50    charge:    0.3806    magn:   -0.0010    constr:    0.0000
     atom:   51    charge:    0.3845    magn:   -0.0013    constr:    0.0000
     atom:   52    charge:    0.3808    magn:   -0.0010    constr:    0.0000
     atom:   53    charge:    0.3810    magn:   -0.0011    constr:    0.0000
     atom:   54    charge:    0.3816    magn:   -0.0011    constr:    0.0000
     atom:   55    charge:    0.3855    magn:   -0.0006    constr:    0.0000
     atom:   56    charge:    0.3829    magn:   -0.0004    constr:    0.0000
     atom:   57    charge:    0.3836    magn:   -0.0004    constr:    0.0000
     atom:   58    charge:    0.3849    magn:   -0.0012    constr:    0.0000
     atom:   59    charge:    0.3850    magn:   -0.0012    constr:    0.0000
     atom:   60    charge:    0.3816    magn:   -0.0011    constr:    0.0000
     atom:   61    charge:    0.3852    magn:   -0.0013    constr:    0.0000
     atom:   62    charge:    0.3805    magn:   -0.0010    constr:    0.0000
     atom:   63    charge:    0.3848    magn:   -0.0013    constr:    0.0000
     atom:   64    charge:    0.3808    magn:   -0.0011    constr:    0.0000
     atom:   65    charge:    0.3817    magn:   -0.0011    constr:    0.0000
     atom:   66    charge:    0.3854    magn:   -0.0006    constr:    0.0000
     atom:   67    charge:    0.3824    magn:   -0.0004    constr:    0.0000
     atom:   68    charge:    0.3821    magn:   -0.0004    constr:    0.0000
     atom:   69    charge:    0.3839    magn:   -0.0004    constr:    0.0000
     atom:   70    charge:    0.3826    magn:   -0.0003    constr:    0.0000
     atom:   71    charge:    0.3851    magn:   -0.0012    constr:    0.0000
     atom:   72    charge:    0.3854    magn:   -0.0011    constr:    0.0000
     atom:   73    charge:    0.3817    magn:   -0.0000    constr:    0.0000
     atom:   74    charge:    0.3816    magn:   -0.0001    constr:    0.0000
     atom:   75    charge:    0.3900    magn:   -0.0001    constr:    0.0000
     atom:   76    charge:    0.3881    magn:   -0.0001    constr:    0.0000
     atom:   77    charge:    0.3885    magn:   -0.0001    constr:    0.0000
     atom:   78    charge:    0.3883    magn:   -0.0001    constr:    0.0000
     atom:   79    charge:    0.3888    magn:   -0.0001    constr:    0.0000
     atom:   80    charge:    0.3893    magn:   -0.0001    constr:    0.0000
     atom:   81    charge:    2.4622    magn:    0.0188    constr:    0.0000
     atom:   82    charge:    2.4615    magn:    0.0187    constr:    0.0000
     atom:   83    charge:    2.4604    magn:    0.0193    constr:    0.0000
     atom:   84    charge:    2.4616    magn:    0.0195    constr:    0.0000
     atom:   85    charge:    2.4627    magn:    0.0193    constr:    0.0000
     atom:   86    charge:    2.4618    magn:    0.0194    constr:    0.0000
     atom:   87    charge:    2.4644    magn:    0.0191    constr:    0.0000
     atom:   88    charge:    2.4573    magn:    0.0198    constr:    0.0000
     atom:   89    charge:    7.4436    magn:    1.1139    constr:    0.0000
     atom:   90    charge:    7.4426    magn:    1.1231    constr:    0.0000
     atom:   91    charge:    7.4434    magn:    1.1256    constr:    0.0000
     atom:   92    charge:    7.4429    magn:    1.1120    constr:    0.0000
     atom:   93    charge:    1.9311    magn:    0.0331    constr:    0.0000
     atom:   94    charge:    1.9300    magn:    0.0340    constr:    0.0000
     atom:   95    charge:    1.9298    magn:    0.0454    constr:    0.0000
     atom:   96    charge:    1.9247    magn:    0.0389    constr:    0.0000
     atom:   97    charge:    1.9259    magn:    0.0393    constr:    0.0000
     atom:   98    charge:    1.9270    magn:    0.0390    constr:    0.0000
     atom:   99    charge:    1.9276    magn:    0.0389    constr:    0.0000
     atom:  100    charge:    1.9270    magn:    0.0391    constr:    0.0000
     atom:  101    charge:    1.9270    magn:    0.0383    constr:    0.0000
     atom:  102    charge:    1.9257    magn:    0.0397    constr:    0.0000
     atom:  103    charge:    1.9268    magn:    0.0386    constr:    0.0000
     atom:  104    charge:    1.9277    magn:    0.0456    constr:    0.0000
     atom:  105    charge:    1.9256    magn:    0.0379    constr:    0.0000
     atom:  106    charge:    1.9272    magn:    0.0407    constr:    0.0000
     atom:  107    charge:    1.9252    magn:    0.0377    constr:    0.0000
     atom:  108    charge:    1.9247    magn:    0.0371    constr:    0.0000
     atom:  109    charge:    1.9466    magn:    0.0223    constr:    0.0000
     atom:  110    charge:    1.9464    magn:    0.0221    constr:    0.0000
     atom:  111    charge:    1.9398    magn:    0.0157    constr:    0.0000
     atom:  112    charge:    1.9412    magn:    0.0155    constr:    0.0000
     atom:  113    charge:    1.9407    magn:    0.0146    constr:    0.0000
     atom:  114    charge:    1.9405    magn:    0.0149    constr:    0.0000
     atom:  115    charge:    1.9396    magn:    0.0157    constr:    0.0000
     atom:  116    charge:    1.9413    magn:    0.0157    constr:    0.0000

     total cpu time spent up to now is     1462.8 secs

     End of self-consistent calculation

 ------ SPIN UP ------------


          k = 0.0000 0.0000 0.0000 ( 91663 PWs)   bands (ev):

   -22.2619 -22.2538 -22.1364 -22.1241 -22.0031 -21.9829 -21.9800 -21.9754
   -21.6323 -21.6192 -21.3559 -21.3415 -21.2348 -21.2243 -21.1284 -21.1228
   -19.2195 -19.2157 -19.1223 -19.1010 -19.0476 -19.0430 -19.0377 -19.0202
   -18.8005 -18.7909 -18.7850 -18.7745 -18.6430 -18.6292 -18.5908 -18.5731
   -15.2105 -15.1634 -15.1552 -15.1273 -15.1056 -15.0896 -15.0777 -15.0432
   -13.8378 -13.8284 -13.7645 -13.7298 -13.7185 -13.6836 -13.6574 -13.6306
   -11.7230 -11.6313 -11.6086 -11.5517 -11.4947 -11.4829 -11.4348 -11.4243
   -10.8344 -10.8125 -10.7387 -10.7313 -10.6668 -10.6507 -10.6185 -10.5841
    -9.9112  -9.8545  -9.7658  -9.7604  -9.6440  -9.6164  -9.5651  -9.5348
    -8.1553  -8.0534  -7.9781  -7.8852  -7.8505  -7.7710  -7.7409  -7.7234
    -7.7054  -7.6737  -7.6045  -7.5248  -7.4582  -7.3670  -7.2682  -7.2183
    -7.0747  -6.9708  -6.9347  -6.9072  -6.8933  -6.8917  -6.8380  -6.8069
    -6.7050  -6.5220  -6.4626  -6.4624  -6.4310  -6.3869  -6.3693  -6.3448
    -6.3316  -6.2570  -6.2154  -6.1978  -6.1939  -6.1505  -6.1131  -6.0731
    -6.0464  -6.0324  -6.0077  -5.9975  -5.9645  -5.9354  -5.8885  -5.7550
    -5.6917  -5.6678  -5.6425  -5.5969  -5.5732  -5.5099  -5.4741  -5.4607
    -5.4157  -5.3944  -5.3271  -5.3024  -5.2837  -5.2701  -5.2500  -5.0191
    -4.6636  -4.3778  -4.3374  -4.3054  -4.2299  -4.1757  -4.1427  -4.0536
    -4.0308  -4.0003  -3.9857  -3.9350  -3.9164  -3.9067  -3.7794  -3.7028
    -3.6699  -3.6579  -3.6057  -3.5816  -3.5507  -3.5398  -3.5026  -3.4287
    -3.4106  -3.3672  -3.3495  -3.2823  -3.2698  -3.2555  -3.1970  -3.1823
    -3.1638  -3.1375  -3.0777  -3.0315  -2.9814  -2.8955  -2.8329  -2.8134
    -2.7727  -2.7646  -2.7502  -2.7323  -2.6745  -2.6134  -2.5822  -2.5748
    -2.5293  -2.5004  -2.4311  -2.2217  -2.1856  -2.1790  -2.1698  -2.1492
    -2.1096  -2.0423  -1.9848  -1.9274  -1.9225  -1.8761  -1.8595  -1.8135
    -1.7866  -1.7505  -1.7283  -1.7178  -1.7001  -1.6943  -1.6689  -1.6112
    -1.5765  -1.5488  -1.2615  -1.2063  -1.0376  -1.0337  -1.0052  -0.9483
    -0.8337  -0.7900  -0.6124  -0.5608   0.1204   0.1586   0.2045   0.2472
     0.4074   0.4324   0.4500   0.4598   2.2619   2.2987   2.3071   2.3328
     2.3457   2.4083   2.4128   2.4774   3.5080   3.5970   3.6406   3.6568
     3.7021   3.7659   3.8547   3.9025   4.1688   4.8494   4.8909   4.9020
     5.0073   5.0195   5.0489   5.0589   5.0797   5.0912   5.1637   5.2076
     5.4811   5.5814   5.6347   5.6942   5.8262   5.9374   5.9871   6.0377
     6.2198   6.2882   6.3246   6.5371   6.6529   6.6829   7.0011   7.0475
     7.1234   7.2255

 ------ SPIN DOWN ----------


          k = 0.0000 0.0000 0.0000 ( 91663 PWs)   bands (ev):

   -22.1489 -22.1397 -22.0304 -22.0162 -21.8916 -21.8707 -21.8680 -21.8649
   -21.5635 -21.5499 -21.3100 -21.2953 -21.1864 -21.1759 -21.0813 -21.0756
   -19.0799 -19.0763 -18.9903 -18.9658 -18.9045 -18.8990 -18.8932 -18.8728
   -18.7525 -18.7365 -18.7349 -18.7213 -18.5983 -18.5847 -18.5454 -18.5277
   -15.1696 -15.1224 -15.1143 -15.0865 -15.0649 -15.0480 -15.0357 -14.9998
   -13.7953 -13.7857 -13.7240 -13.6894 -13.6780 -13.6430 -13.6155 -13.5886
   -11.6804 -11.5896 -11.5674 -11.5125 -11.4546 -11.4425 -11.3945 -11.3831
   -10.7980 -10.7760 -10.7051 -10.6976 -10.6339 -10.6176 -10.5843 -10.5501
    -9.8727  -9.8182  -9.7359  -9.7313  -9.6142  -9.5854  -9.5353  -9.5037
    -8.0865  -7.9813  -7.9216  -7.8265  -7.7996  -7.7286  -7.7030  -7.6807
    -7.6588  -7.6290  -7.5439  -7.4592  -7.3842  -7.3033  -7.2068  -7.1510
    -7.0210  -6.9082  -6.8809  -6.8553  -6.8430  -6.8356  -6.7858  -6.7539
    -6.6083  -6.4136  -6.3603  -6.3492  -6.3312  -6.2807  -6.2493  -6.2416
    -6.2356  -6.1621  -6.1228  -6.1087  -6.0841  -6.0503  -6.0206  -5.9802
    -5.9559  -5.9397  -5.9092  -5.8864  -5.8672  -5.8350  -5.8167  -5.6774
    -5.6074  -5.6010  -5.5723  -5.5330  -5.4933  -5.4609  -5.4198  -5.3760
    -5.3424  -5.3081  -5.2542  -5.2175  -5.2042  -5.1946  -5.1756  -4.9285
    -4.5350  -4.2548  -4.1930  -4.1236  -4.0729  -4.0156  -3.9907  -3.9493
    -3.9164  -3.8918  -3.8530  -3.7705  -3.7385  -3.6621  -3.6160  -3.5627
    -3.5301  -3.4990  -3.4491  -3.4339  -3.4033  -3.3589  -3.3358  -3.2996
    -3.2705  -3.2416  -3.2223  -3.1488  -3.1259  -3.0953  -3.0408  -3.0373
    -3.0037  -2.9337  -2.8853  -2.7687  -2.6552  -2.5942  -2.5662  -2.5089
    -2.4612  -2.4450  -2.4117  -2.3698  -2.2434  -2.2255  -2.1916  -2.1743
    -2.1281  -2.1257  -2.1106  -2.0032  -1.9578  -1.8991  -1.8786  -1.8359
    -1.8238  -1.7636  -1.7269  -1.7134  -1.6170  -1.5539  -1.2133  -1.1504
    -1.1051  -1.0615  -1.0517  -0.9911  -0.9495  -0.9189  -0.8906  -0.8790
    -0.8593  -0.8486  -0.8327  -0.8268  -0.7943  -0.7293  -0.7143  -0.6854
    -0.6548  -0.6264  -0.4746  -0.3993   0.9030   0.9366   0.9673   1.0011
     1.1298   1.1627   1.1788   1.1963   2.3794   2.4197   2.4219   2.4465
     2.4635   2.5257   2.5307   2.5904   3.5896   3.6847   3.7315   3.7468
     3.7918   3.8563   3.9468   3.9951   4.2050   4.8923   4.9287   4.9431
     5.0810   5.0888   5.1183   5.1291   5.1502   5.1647   5.2361   5.2781
     5.5161   5.6159   5.6651   5.7316   5.8642   5.9746   6.0237   6.0750
     6.2554   6.3209   6.3593   6.5760   6.6928   6.7294   7.0370   7.0840
     7.1584   7.2657

     the spin up/dw Fermi energies are     0.7122    0.3550 ev

!    total energy              =   -1878.20899808 Ry
     Harris-Foulkes estimate   =   -1878.20899877 Ry
     estimated scf accuracy    <       0.00000097 Ry

     The total energy is the sum of the following terms:

     one-electron contribution =   -2760.41773341 Ry
     hartree contribution      =    1544.57642520 Ry
     xc contribution           =    -548.82230529 Ry
     ewald contribution        =    -116.08305526 Ry
     Dispersion Correction     =      -0.50713377 Ry
     smearing contrib. (-TS)   =       3.04480444 Ry

     total magnetization       =     8.00 Bohr mag/cell
     absolute magnetization    =     8.24 Bohr mag/cell

     convergence has been achieved in  23 iterations

     Forces acting on atoms (cartesian axes, Ry/au):

     atom    1 type  1   force =    -0.00994004   -0.00485548   -0.00071445
     atom    2 type  1   force =    -0.00722167    0.00178352    0.00043613
     atom    3 type  1   force =    -0.00042569   -0.00509211    0.00701758
     atom    4 type  1   force =     0.00223243    0.00596282    0.00934469
     atom    5 type  1   force =     0.01652721    0.01375494   -0.00253552
     atom    6 type  1   force =     0.01402668   -0.01314829   -0.00342143
     atom    7 type  1   force =    -0.00153846   -0.02047906   -0.01747809
     atom    8 type  1   force =    -0.00060947    0.01924853   -0.01693885
     atom    9 type  1   force =     0.09994336    0.07367498    0.01014900
     atom   10 type  1   force =     0.10856455   -0.06788657    0.00386249
     atom   11 type  1   force =     0.01476530    0.01673433   -0.00264174
     atom   12 type  1   force =     0.01468404   -0.01671307   -0.00382605
     atom   13 type  1   force =     0.03018812   -0.03423032    0.06780590
     atom   14 type  1   force =     0.02954360    0.03363087    0.06490760
     atom   15 type  1   force =     0.01111858   -0.00370144   -0.01221646
     atom   16 type  1   force =     0.00326441    0.01385972   -0.01367916
     atom   17 type  1   force =    -0.00547102   -0.00156642    0.00135086
     atom   18 type  1   force =    -0.00655182   -0.00017200    0.00372280
     atom   19 type  1   force =     0.00915936    0.00613376    0.00018301
     atom   20 type  1   force =     0.00975536   -0.00635089    0.00018514
     atom   21 type  1   force =     0.01638613   -0.01752854    0.02762519
     atom   22 type  1   force =    -0.00216448   -0.00182474   -0.00112480
     atom   23 type  1   force =    -0.01437193    0.00341483    0.01213528
     atom   24 type  1   force =    -0.01617415   -0.00254361    0.01291957
     atom   25 type  1   force =     0.00068451    0.01833053   -0.01680579
     atom   26 type  1   force =    -0.00163163   -0.01558875   -0.01765058
     atom   27 type  1   force =    -0.00887451   -0.00572369    0.00248911
     atom   28 type  1   force =    -0.00960738    0.00493491    0.00145433
     atom   29 type  1   force =     0.00321371   -0.00402404    0.00212087
     atom   30 type  1   force =     0.00279392    0.00396890    0.00211229
     atom   31 type  1   force =    -0.00106272   -0.01961824   -0.01625344
     atom   32 type  1   force =    -0.00099288    0.02052411   -0.01938651
     atom   33 type  1   force =     0.10725248    0.06994037    0.00281468
     atom   34 type  1   force =     0.10100470   -0.07201387    0.01140410
     atom   35 type  1   force =    -0.10805582   -0.06310812    0.00134882
     atom   36 type  1   force =    -0.10602134    0.06547210    0.00304982
     atom   37 type  1   force =     0.00012726    0.01355523   -0.00989579
     atom   38 type  1   force =    -0.00139247   -0.01277542   -0.01101842
     atom   39 type  1   force =     0.00402726   -0.01349975   -0.01361975
     atom   40 type  1   force =     0.01120348    0.00304706   -0.01209296
     atom   41 type  1   force =    -0.00518502    0.00004787    0.00321329
     atom   42 type  1   force =    -0.00634373    0.00182258    0.00118458
     atom   43 type  1   force =     0.00915437    0.00721434    0.00201295
     atom   44 type  1   force =     0.00984660   -0.00726347    0.00201289
     atom   45 type  1   force =    -0.00540637    0.00378670   -0.00403041
     atom   46 type  1   force =     0.01208215    0.01703705    0.02536868
     atom   47 type  1   force =     0.00020796   -0.00022252   -0.00033870
     atom   48 type  1   force =    -0.00087737    0.00072096    0.00076887
     atom   49 type  2   force =     0.00379748   -0.00211565    0.00424393
     atom   50 type  2   force =    -0.00002044    0.00293911    0.00300790
     atom   51 type  2   force =    -0.00111540    0.00033367   -0.00093376
     atom   52 type  2   force =    -0.00048109    0.00027381   -0.00084605
     atom   53 type  2   force =     0.00278070    0.00203288   -0.00055466
     atom   54 type  2   force =     0.00335884   -0.00152731   -0.00062621
     atom   55 type  2   force =    -0.00029636   -0.00277436    0.00262873
     atom   56 type  2   force =     0.00261099    0.00155381    0.00214957
     atom   57 type  2   force =     0.00224342    0.00000450    0.00193588
     atom   58 type  2   force =     0.00279425    0.00098696   -0.00295343
     atom   59 type  2   force =     0.00284309   -0.00010651   -0.00334466
     atom   60 type  2   force =    -0.00302453   -0.00185402   -0.00018920
     atom   61 type  2   force =     0.00117319    0.00015758    0.00044329
     atom   62 type  2   force =    -0.00124611   -0.00012781   -0.00050165
     atom   63 type  2   force =    -0.00091620   -0.00053718   -0.00140268
     atom   64 type  2   force =     0.00243756    0.00196005   -0.00012774
     atom   65 type  2   force =     0.00347337   -0.00203257   -0.00065712
     atom   66 type  2   force =    -0.00018387    0.00216011    0.00293047
     atom   67 type  2   force =    -0.00131872   -0.00211973    0.00277214
     atom   68 type  2   force =    -0.00185868    0.00158116    0.00211991
     atom   69 type  2   force =     0.00324955    0.00028678    0.00181599
     atom   70 type  2   force =     0.00169036   -0.00128671    0.00220912
     atom   71 type  2   force =     0.00303617    0.00101597   -0.00301371
     atom   72 type  2   force =     0.00314973   -0.00008872   -0.00317826
     atom   73 type  2   force =    -0.04078825   -0.02461659   -0.00318018
     atom   74 type  2   force =    -0.04054842    0.02428586   -0.00305420
     atom   75 type  2   force =    -0.04249426    0.00312920    0.03223442
     atom   76 type  2   force =    -0.03881499   -0.00581820    0.03452563
     atom   77 type  2   force =     0.03909446   -0.00644576    0.03531890
     atom   78 type  2   force =     0.03930310    0.00576476    0.03540663
     atom   79 type  2   force =    -0.03850906    0.00523709    0.03444944
     atom   80 type  2   force =    -0.04250185   -0.00379186    0.03244462
     atom   81 type  3   force =    -0.02189956   -0.02111737    0.01273221
     atom   82 type  3   force =    -0.02158108    0.02248437    0.01129027
     atom   83 type  3   force =    -0.01747856    0.01806361    0.02716035
     atom   84 type  3   force =    -0.01476999   -0.01900320    0.03130297
     atom   85 type  3   force =     0.01040410   -0.01559228    0.03225436
     atom   86 type  3   force =     0.01133485    0.01693826    0.03181568
     atom   87 type  3   force =    -0.01653341    0.01880817    0.03023052
     atom   88 type  3   force =    -0.01631889   -0.01862807    0.02825772
     atom   89 type  4   force =    -0.00950765   -0.00515425    0.01072828
     atom   90 type  4   force =     0.00265662    0.00534208    0.01027670
     atom   91 type  4   force =     0.01271341   -0.00802556    0.01840164
     atom   92 type  4   force =    -0.01702356    0.00313531    0.00718374
     atom   93 type  5   force =     0.01839905   -0.00805423   -0.00507974
     atom   94 type  5   force =     0.01887570    0.00855218   -0.00479229
     atom   95 type  5   force =     0.09481356    0.01574262    0.00949917
     atom   96 type  5   force =    -0.00123555    0.00285001    0.00166500
     atom   97 type  5   force =    -0.00167107    0.00002019   -0.00087677
     atom   98 type  5   force =     0.00527915   -0.00332310   -0.00053982
     atom   99 type  5   force =     0.00273359   -0.00136878    0.00206485
     atom  100 type  5   force =     0.00317446    0.00034656    0.00269471
     atom  101 type  5   force =     0.00266349   -0.00002414    0.00044325
     atom  102 type  5   force =     0.00316992    0.00080843    0.00047406
     atom  103 type  5   force =    -0.00115005   -0.00147629    0.00143802
     atom  104 type  5   force =     0.09367417   -0.01407830    0.00704713
     atom  105 type  5   force =     0.00508926    0.00309399   -0.00173204
     atom  106 type  5   force =    -0.00139442    0.00007806   -0.00023427
     atom  107 type  5   force =    -0.01261597   -0.00038223   -0.00693371
     atom  108 type  5   force =    -0.01180065    0.00192646   -0.00611867
     atom  109 type  5   force =    -0.08529600    0.07966396   -0.10979193
     atom  110 type  5   force =    -0.08744542   -0.07859093   -0.10998846
     atom  111 type  5   force =    -0.06611524   -0.09892981   -0.05540351
     atom  112 type  5   force =    -0.07372563    0.09622428   -0.05462416
     atom  113 type  5   force =     0.07421483    0.08946754   -0.05138957
     atom  114 type  5   force =     0.07372489   -0.09322559   -0.05301338
     atom  115 type  5   force =    -0.07233115   -0.09946427   -0.05429754
     atom  116 type  5   force =    -0.06778275    0.09576138   -0.05554942

     Total force =     0.573164     Total SCF correction =     0.002241

     BFGS Geometry Optimization

     number of scf cycles    =   1
     number of bfgs steps    =   0

     energy   new            =   -1878.2089980826 Ry

     new trust radius        =       0.1609990551 bohr
     new conv_thr            =       0.0000010000 Ry


ATOMIC_POSITIONS (crystal)
C             0.2877907152        0.9698448313        0.5219472021
C             0.0380738222        0.0311813627        0.0223304627
C             0.3906225648        0.0115548326        0.5468534409
C             0.1403472253        0.9879959595        0.0466272987
C             0.4526119760        0.9707832162        0.6502404080
C             0.2031103348        0.0277974182        0.1497167790
C             0.2080995167        0.5288386560        0.5254837903
C             0.4585033326        0.4722223480        0.0270315640
C             0.2493756384        0.6164441420        0.6069577246
C             0.5014165533        0.3858084480        0.1088159378
C             0.2500983205        0.8899131102        0.6030669372
C             0.0016867719        0.1115257878        0.1040499392
C             0.4093179756        0.8879365952        0.7310443461
C             0.1612459856        0.1109680749        0.2311550689
C             0.0893210339        0.6088265953        0.7267227906
C             0.3410153121        0.3922186434        0.2286894540
C             0.0466947587        0.5250128106        0.6513815759
C             0.2973842479        0.4747037320        0.1529457432
C             0.1085517520        0.4845291824        0.5501254259
C             0.3582449739        0.5153876426        0.0506475354
C             0.4340292774        0.0985783303        0.4680438367
C             0.1814243553        0.8996428956        0.9656140673
C             0.0667812237        0.3946182939        0.4713010281
C             0.3153706974        0.6040645196        0.9697724229
C             0.7882252123        0.9708245580        0.5211184170
C             0.5382934123        0.0304472962        0.0213989062
C             0.8902608065        0.0115281451        0.5466202019
C             0.6398388247        0.9879525250        0.0462209055
C             0.9520529767        0.9700319637        0.6504802354
C             0.7026402051        0.0285207063        0.1500017934
C             0.7081217953        0.5288750297        0.5255468657
C             0.9584858137        0.4722762480        0.0269054968
C             0.7496780504        0.6162863356        0.6065799705
C             1.0011037258        0.3856340486        0.1092043686
C             0.7449048587        0.8865393618        0.6032724708
C             0.4965855426        0.1149985287        0.1044040811
C             0.9079731092        0.8899557774        0.7270423167
C             0.6598647493        0.1090071737        0.2272444957
C             0.5890196478        0.6084125671        0.7266505141
C             0.8413527424        0.3917617538        0.2287711513
C             0.5467086066        0.5250810229        0.6514775007
C             0.7973906740        0.4747880131        0.1528150121
C             0.6085532559        0.4845748425        0.5502196772
C             0.8582505479        0.5153490817        0.0507416741
C             0.9330774503        0.0994790074        0.4664134135
C             0.6820520383        0.9004399017        0.9669786148
C             0.5673854824        0.3944645973        0.4706585551
C             0.8160065945        0.6042024644        0.9691466009
H             0.2372886694        0.9994856029        0.4433315839
H             0.4865399546        0.0028161924        0.9436539223
H             0.0320149263        0.9988190991        0.6734719065
H             0.2823188495        0.9986765697        0.1725584242
H             0.2588171462        0.5009808994        0.4492534321
H             0.0087825431        0.5003324635        0.9505157470
H             0.1701439236        0.8550057692        0.5886953930
H             0.0438414994        0.6430096565        0.8067187137
H             0.2964747452        0.3575261901        0.3091507074
H             0.4687874707        0.4932727043        0.6733498836
H             0.2190691706        0.5051964993        0.1750917331
H             0.7369958390        0.9994966581        0.4431032550
H             0.9865880592        0.0026986585        0.9435218317
H             0.5320088003        0.9987995995        0.6734941623
H             0.7822999159        0.9986423016        0.1725297547
H             0.7588030260        0.5009778219        0.4492754209
H             0.5087873603        0.5003111134        0.9505141552
H             0.9223169662        0.1478232755        0.0900369340
H             0.9533167966        0.8550834307        0.8089037790
H             0.7061633365        0.1431698119        0.3089061859
H             0.5438682076        0.6429561180        0.8067015328
H             0.7964515986        0.3574716299        0.3091647806
H             0.9687976512        0.4932739300        0.6733467789
H             0.7190823024        0.5051972510        0.1751003034
H             0.4401350552        0.7917278243        0.8844972047
H             0.1941223219        0.2063962008        0.3848316932
H             0.3695550614        0.7160572247        0.6372482354
H             0.6232568980        0.2882511517        0.1403662441
H             0.6212603969        0.7922426340        0.6333751013
H             0.3744313080        0.2110635905        0.1353366203
H             0.8697257721        0.7161472935        0.6373613201
H             0.1230989373        0.2883367746        0.1402590619
N             0.3075222498        0.8503606838        0.7054837729
N             0.0598263750        0.1498070786        0.2066335058
N             0.1858278497        0.6510732792        0.7072368951
N             0.4382143466        0.3501250186        0.2096532607
N             0.8089074856        0.8505941471        0.7064892621
N             0.5612384595        0.1495727276        0.2076906681
N             0.6858717219        0.6511047407        0.7073950241
N             0.9381459502        0.3501408697        0.2094964154
Ni            0.2466097378        0.7512682066        0.8368785603
Ni            0.5000940485        0.2482247301        0.3397073020
Ni            0.7475572198        0.7511468793        0.8372737775
Ni            0.9992583781        0.2481314828        0.3395479987
O             0.1235517981        0.3473486681        0.3826113676
O             0.3720022373        0.6513383730        0.8810451731
O             0.3816509609        0.1481722054        0.3776672550
O             0.1250472783        0.8524724272        0.8763467560
O             0.4729974664        0.3561608533        0.4829488417
O             0.2213598822        0.6412745821        0.9798491965
O             0.0289576082        0.1351001622        0.4811843501
O             0.2768228539        0.8627726438        0.9795377909
O             0.6228921215        0.3476879798        0.3828958296
O             0.8713425804        0.6510111603        0.8813164163
O             0.8775826832        0.1474446193        0.3772520655
O             0.6290684487        0.8517571205        0.8766239628
O             0.9732827296        0.3562907367        0.4829047912
O             0.7210777750        0.6414182982        0.9798649342
O             0.5282996532        0.1351418488        0.4807208787
O             0.7761809174        0.8628394027        0.9790838574
O             0.4653687666        0.8518552064        0.8234871617
O             0.2182856293        0.1461511344        0.3233590395
O             0.3403103862        0.6539517135        0.5796544398
O             0.5925710812        0.3496619642        0.0823165803
O             0.6521582463        0.8520344575        0.5752031777
O             0.4043399925        0.1509207458        0.0766335434
O             0.8400483953        0.6539291298        0.5797104029
O             0.0928226884        0.3496424043        0.0822699247



     Writing output data file /nfs/hpc/share/gantzlen/NiPyC2_relax_sc211_ortho_functionalized_OH_pbesol_relax.save/
     NEW-OLD atomic charge density approx. for the potential

     Check: negative core charge=   -0.000145

     total cpu time spent up to now is     1487.4 secs

     Self-consistent Calculation

     iteration #  1     ecut=   100.00 Ry     beta= 0.70
     Davidson diagonalization with overlap
     ethr =  1.00E-06,  avg # of iterations = 13.0

     total cpu time spent up to now is     1781.7 secs

     total energy              =   -1878.24895686 Ry
     Harris-Foulkes estimate   =   -1878.31932863 Ry
     estimated scf accuracy    <       0.21922341 Ry

     total magnetization       =     8.00 Bohr mag/cell
     absolute magnetization    =     8.27 Bohr mag/cell

     iteration #  2     ecut=   100.00 Ry     beta= 0.70
     Davidson diagonalization with overlap
     ethr =  4.89E-05,  avg # of iterations =  1.5

     total cpu time spent up to now is     1837.5 secs

     total energy              =   -1878.24167625 Ry
     Harris-Foulkes estimate   =   -1878.28191865 Ry
     estimated scf accuracy    <       0.19595780 Ry

     total magnetization       =     8.00 Bohr mag/cell
     absolute magnetization    =     8.29 Bohr mag/cell

     iteration #  3     ecut=   100.00 Ry     beta= 0.70
     Davidson diagonalization with overlap
     ethr =  4.37E-05,  avg # of iterations =  1.5

     total cpu time spent up to now is     1894.2 secs

     total energy              =   -1878.25217839 Ry
     Harris-Foulkes estimate   =   -1878.27791726 Ry
     estimated scf accuracy    <       0.18420068 Ry

     total magnetization       =     8.00 Bohr mag/cell
     absolute magnetization    =     8.27 Bohr mag/cell

     iteration #  4     ecut=   100.00 Ry     beta= 0.70
     Davidson diagonalization with overlap
     ethr =  4.11E-05,  avg # of iterations =  1.0

     total cpu time spent up to now is     1949.1 secs

     total energy              =   -1878.26051745 Ry
     Harris-Foulkes estimate   =   -1878.26433248 Ry
     estimated scf accuracy    <       0.02224017 Ry

     total magnetization       =     8.00 Bohr mag/cell
     absolute magnetization    =     8.28 Bohr mag/cell

     iteration #  5     ecut=   100.00 Ry     beta= 0.70
     Davidson diagonalization with overlap
     ethr =  4.96E-06,  avg # of iterations =  8.0

     total cpu time spent up to now is     2017.4 secs

     total energy              =   -1878.26003627 Ry
     Harris-Foulkes estimate   =   -1878.26410176 Ry
     estimated scf accuracy    <       0.04601909 Ry

     total magnetization       =     8.00 Bohr mag/cell
     absolute magnetization    =     8.29 Bohr mag/cell

     iteration #  6     ecut=   100.00 Ry     beta= 0.70
     Davidson diagonalization with overlap
     ethr =  4.96E-06,  avg # of iterations =  1.0

     total cpu time spent up to now is     2076.3 secs

     total energy              =   -1878.26125683 Ry
     Harris-Foulkes estimate   =   -1878.26208167 Ry
     estimated scf accuracy    <       0.00458715 Ry

     total magnetization       =     8.00 Bohr mag/cell
     absolute magnetization    =     8.29 Bohr mag/cell

     iteration #  7     ecut=   100.00 Ry     beta= 0.70
     Davidson diagonalization with overlap
     ethr =  1.02E-06,  avg # of iterations =  2.5

     total cpu time spent up to now is     2135.4 secs

     total energy              =   -1878.26101419 Ry
     Harris-Foulkes estimate   =   -1878.26149980 Ry
     estimated scf accuracy    <       0.00258049 Ry

     total magnetization       =     8.00 Bohr mag/cell
     absolute magnetization    =     8.29 Bohr mag/cell

     iteration #  8     ecut=   100.00 Ry     beta= 0.70
     Davidson diagonalization with overlap
     ethr =  5.76E-07,  avg # of iterations =  2.5

     total cpu time spent up to now is     2200.0 secs

     total energy              =   -1878.26090069 Ry
     Harris-Foulkes estimate   =   -1878.26147435 Ry
     estimated scf accuracy    <       0.00743957 Ry

     total magnetization       =     8.00 Bohr mag/cell
     absolute magnetization    =     8.29 Bohr mag/cell

     iteration #  9     ecut=   100.00 Ry     beta= 0.70
     Davidson diagonalization with overlap
     ethr =  5.76E-07,  avg # of iterations =  1.0

     total cpu time spent up to now is     2265.1 secs

     total energy              =   -1878.26117089 Ry
     Harris-Foulkes estimate   =   -1878.26118371 Ry
     estimated scf accuracy    <       0.00036338 Ry

     total magnetization       =     8.00 Bohr mag/cell
     absolute magnetization    =     8.29 Bohr mag/cell

     iteration # 10     ecut=   100.00 Ry     beta= 0.70
     Davidson diagonalization with overlap
     ethr =  8.11E-08,  avg # of iterations =  4.0

     total cpu time spent up to now is     2341.5 secs

     total energy              =   -1878.26120905 Ry
     Harris-Foulkes estimate   =   -1878.26119344 Ry
     estimated scf accuracy    <       0.00014757 Ry

     total magnetization       =     8.00 Bohr mag/cell
     absolute magnetization    =     8.29 Bohr mag/cell

     iteration # 11     ecut=   100.00 Ry     beta= 0.70
     Davidson diagonalization with overlap
     ethr =  3.29E-08,  avg # of iterations =  2.5

     total cpu time spent up to now is     2412.4 secs

     total energy              =   -1878.26120758 Ry
     Harris-Foulkes estimate   =   -1878.26122508 Ry
     estimated scf accuracy    <       0.00030675 Ry

     total magnetization       =     8.00 Bohr mag/cell
     absolute magnetization    =     8.29 Bohr mag/cell

     iteration # 12     ecut=   100.00 Ry     beta= 0.70
     Davidson diagonalization with overlap
     ethr =  3.29E-08,  avg # of iterations =  1.5

     total cpu time spent up to now is     2478.0 secs

     total energy              =   -1878.26122369 Ry
     Harris-Foulkes estimate   =   -1878.26122281 Ry
     estimated scf accuracy    <       0.00005892 Ry

     total magnetization       =     8.00 Bohr mag/cell
     absolute magnetization    =     8.29 Bohr mag/cell

     iteration # 13     ecut=   100.00 Ry     beta= 0.70
     Davidson diagonalization with overlap
     ethr =  1.32E-08,  avg # of iterations =  3.0

     total cpu time spent up to now is     2549.6 secs

     total energy              =   -1878.26122623 Ry
     Harris-Foulkes estimate   =   -1878.26122669 Ry
     estimated scf accuracy    <       0.00001878 Ry

     total magnetization       =     8.00 Bohr mag/cell
     absolute magnetization    =     8.29 Bohr mag/cell

     iteration # 14     ecut=   100.00 Ry     beta= 0.70
     Davidson diagonalization with overlap
     ethr =  4.19E-09,  avg # of iterations =  3.0

     total cpu time spent up to now is     2621.7 secs

     total energy              =   -1878.26122697 Ry
     Harris-Foulkes estimate   =   -1878.26122836 Ry
     estimated scf accuracy    <       0.00002338 Ry

     total magnetization       =     8.00 Bohr mag/cell
     absolute magnetization    =     8.29 Bohr mag/cell

     iteration # 15     ecut=   100.00 Ry     beta= 0.70
     Davidson diagonalization with overlap
     ethr =  4.19E-09,  avg # of iterations =  1.5

     total cpu time spent up to now is     2689.3 secs

     total energy              =   -1878.26122722 Ry
     Harris-Foulkes estimate   =   -1878.26122840 Ry
     estimated scf accuracy    <       0.00001185 Ry

     total magnetization       =     8.00 Bohr mag/cell
     absolute magnetization    =     8.29 Bohr mag/cell

     iteration # 16     ecut=   100.00 Ry     beta= 0.70
     Davidson diagonalization with overlap
     ethr =  2.65E-09,  avg # of iterations =  2.5

     total cpu time spent up to now is     2758.5 secs

     total energy              =   -1878.26122780 Ry
     Harris-Foulkes estimate   =   -1878.26122842 Ry
     estimated scf accuracy    <       0.00001427 Ry

     total magnetization       =     8.00 Bohr mag/cell
     absolute magnetization    =     8.29 Bohr mag/cell

     iteration # 17     ecut=   100.00 Ry     beta= 0.70
     Davidson diagonalization with overlap
     ethr =  2.65E-09,  avg # of iterations =  2.0

     total cpu time spent up to now is     2828.6 secs

     total energy              =   -1878.26122848 Ry
     Harris-Foulkes estimate   =   -1878.26122843 Ry
     estimated scf accuracy    <       0.00000256 Ry

     total magnetization       =     8.00 Bohr mag/cell
     absolute magnetization    =     8.29 Bohr mag/cell

     iteration # 18     ecut=   100.00 Ry     beta= 0.70
     Davidson diagonalization with overlap
     ethr =  5.71E-10,  avg # of iterations =  3.0

     total cpu time spent up to now is     2900.3 secs

     total energy              =   -1878.26122859 Ry
     Harris-Foulkes estimate   =   -1878.26122859 Ry
     estimated scf accuracy    <       0.00000111 Ry

     total magnetization       =     8.00 Bohr mag/cell
     absolute magnetization    =     8.29 Bohr mag/cell

     iteration # 19     ecut=   100.00 Ry     beta= 0.70
     Davidson diagonalization with overlap
     ethr =  2.47E-10,  avg # of iterations =  2.0

     total cpu time spent up to now is     2970.3 secs

     total energy              =   -1878.26122854 Ry
     Harris-Foulkes estimate   =   -1878.26122870 Ry
     estimated scf accuracy    <       0.00000248 Ry

     total magnetization       =     8.00 Bohr mag/cell
     absolute magnetization    =     8.29 Bohr mag/cell

     iteration # 20     ecut=   100.00 Ry     beta= 0.70
     Davidson diagonalization with overlap
     ethr =  2.47E-10,  avg # of iterations =  2.5
 
     Magnetic moment per site:
     atom:    1    charge:    0.8491    magn:    0.0071    constr:    0.0000
     atom:    2    charge:    0.8483    magn:    0.0073    constr:    0.0000
     atom:    3    charge:    0.8464    magn:    0.0027    constr:    0.0000
     atom:    4    charge:    0.8442    magn:    0.0032    constr:    0.0000
     atom:    5    charge:    0.8440    magn:    0.0101    constr:    0.0000
     atom:    6    charge:    0.8459    magn:    0.0101    constr:    0.0000
     atom:    7    charge:    0.8400    magn:    0.0106    constr:    0.0000
     atom:    8    charge:    0.8397    magn:    0.0101    constr:    0.0000
     atom:    9    charge:    0.8160    magn:    0.0031    constr:    0.0000
     atom:   10    charge:    0.8159    magn:    0.0032    constr:    0.0000
     atom:   11    charge:    0.8363    magn:    0.0048    constr:    0.0000
     atom:   12    charge:    0.8359    magn:    0.0048    constr:    0.0000
     atom:   13    charge:    0.8315    magn:    0.0030    constr:    0.0000
     atom:   14    charge:    0.8312    magn:    0.0031    constr:    0.0000
     atom:   15    charge:    0.8397    magn:    0.0043    constr:    0.0000
     atom:   16    charge:    0.8402    magn:    0.0043    constr:    0.0000
     atom:   17    charge:    0.8465    magn:    0.0085    constr:    0.0000
     atom:   18    charge:    0.8477    magn:    0.0079    constr:    0.0000
     atom:   19    charge:    0.8486    magn:    0.0026    constr:    0.0000
     atom:   20    charge:    0.8455    magn:    0.0027    constr:    0.0000
     atom:   21    charge:    0.8306    magn:   -0.0011    constr:    0.0000
     atom:   22    charge:    0.8214    magn:   -0.0017    constr:    0.0000
     atom:   23    charge:    0.8188    magn:   -0.0006    constr:    0.0000
     atom:   24    charge:    0.8195    magn:   -0.0009    constr:    0.0000
     atom:   25    charge:    0.8395    magn:    0.0101    constr:    0.0000
     atom:   26    charge:    0.8409    magn:    0.0101    constr:    0.0000
     atom:   27    charge:    0.8455    magn:    0.0029    constr:    0.0000
     atom:   28    charge:    0.8473    magn:    0.0024    constr:    0.0000
     atom:   29    charge:    0.8480    magn:    0.0077    constr:    0.0000
     atom:   30    charge:    0.8491    magn:    0.0078    constr:    0.0000
     atom:   31    charge:    0.8408    magn:    0.0102    constr:    0.0000
     atom:   32    charge:    0.8389    magn:    0.0106    constr:    0.0000
     atom:   33    charge:    0.8168    magn:    0.0032    constr:    0.0000
     atom:   34    charge:    0.8151    magn:    0.0031    constr:    0.0000
     atom:   35    charge:    0.8170    magn:    0.0034    constr:    0.0000
     atom:   36    charge:    0.8173    magn:    0.0033    constr:    0.0000
     atom:   37    charge:    0.8407    magn:    0.0044    constr:    0.0000
     atom:   38    charge:    0.8400    magn:    0.0043    constr:    0.0000
     atom:   39    charge:    0.8405    magn:    0.0044    constr:    0.0000
     atom:   40    charge:    0.8393    magn:    0.0042    constr:    0.0000
     atom:   41    charge:    0.8481    magn:    0.0078    constr:    0.0000
     atom:   42    charge:    0.8462    magn:    0.0085    constr:    0.0000
     atom:   43    charge:    0.8477    magn:    0.0029    constr:    0.0000
     atom:   44    charge:    0.8455    magn:    0.0030    constr:    0.0000
     atom:   45    charge:    0.8207    magn:   -0.0016    constr:    0.0000
     atom:   46    charge:    0.8315    magn:   -0.0010    constr:    0.0000
     atom:   47    charge:    0.8210    magn:   -0.0015    constr:    0.0000
     atom:   48    charge:    0.8217    magn:   -0.0017    constr:    0.0000
     atom:   49    charge:    0.3866    magn:   -0.0014    constr:    0.0000
     atom:   50    charge:    0.3875    magn:   -0.0012    constr:    0.0000
     atom:   51    charge:    0.3846    magn:   -0.0015    constr:    0.0000
     atom:   52    charge:    0.3863    magn:   -0.0012    constr:    0.0000
     atom:   53    charge:    0.3868    magn:   -0.0012    constr:    0.0000
     atom:   54    charge:    0.3880    magn:   -0.0012    constr:    0.0000
     atom:   55    charge:    0.3808    magn:   -0.0006    constr:    0.0000
     atom:   56    charge:    0.3781    magn:   -0.0002    constr:    0.0000
     atom:   57    charge:    0.3789    magn:   -0.0004    constr:    0.0000
     atom:   58    charge:    0.3860    magn:   -0.0016    constr:    0.0000
     atom:   59    charge:    0.3866    magn:   -0.0015    constr:    0.0000
     atom:   60    charge:    0.3875    magn:   -0.0012    constr:    0.0000
     atom:   61    charge:    0.3855    magn:   -0.0015    constr:    0.0000
     atom:   62    charge:    0.3867    magn:   -0.0012    constr:    0.0000
     atom:   63    charge:    0.3846    magn:   -0.0016    constr:    0.0000
     atom:   64    charge:    0.3865    magn:   -0.0012    constr:    0.0000
     atom:   65    charge:    0.3875    magn:   -0.0012    constr:    0.0000
     atom:   66    charge:    0.3807    magn:   -0.0006    constr:    0.0000
     atom:   67    charge:    0.3786    magn:   -0.0003    constr:    0.0000
     atom:   68    charge:    0.3781    magn:   -0.0003    constr:    0.0000
     atom:   69    charge:    0.3792    magn:   -0.0004    constr:    0.0000
     atom:   70    charge:    0.3780    magn:   -0.0002    constr:    0.0000
     atom:   71    charge:    0.3864    magn:   -0.0016    constr:    0.0000
     atom:   72    charge:    0.3870    magn:   -0.0015    constr:    0.0000
     atom:   73    charge:    0.3333    magn:   -0.0002    constr:    0.0000
     atom:   74    charge:    0.3331    magn:   -0.0002    constr:    0.0000
     atom:   75    charge:    0.3330    magn:   -0.0002    constr:    0.0000
     atom:   76    charge:    0.3295    magn:   -0.0003    constr:    0.0000
     atom:   77    charge:    0.3325    magn:   -0.0003    constr:    0.0000
     atom:   78    charge:    0.3313    magn:   -0.0003    constr:    0.0000
     atom:   79    charge:    0.3296    magn:   -0.0003    constr:    0.0000
     atom:   80    charge:    0.3329    magn:   -0.0002    constr:    0.0000
     atom:   81    charge:    2.4547    magn:    0.0199    constr:    0.0000
     atom:   82    charge:    2.4543    magn:    0.0199    constr:    0.0000
     atom:   83    charge:    2.4544    magn:    0.0197    constr:    0.0000
     atom:   84    charge:    2.4504    magn:    0.0194    constr:    0.0000
     atom:   85    charge:    2.4503    magn:    0.0191    constr:    0.0000
     atom:   86    charge:    2.4504    magn:    0.0192    constr:    0.0000
     atom:   87    charge:    2.4531    magn:    0.0191    constr:    0.0000
     atom:   88    charge:    2.4516    magn:    0.0200    constr:    0.0000
     atom:   89    charge:    7.4489    magn:    1.1320    constr:    0.0000
     atom:   90    charge:    7.4519    magn:    1.1084    constr:    0.0000
     atom:   91    charge:    7.4524    magn:    1.1121    constr:    0.0000
     atom:   92    charge:    7.4474    magn:    1.1306    constr:    0.0000
     atom:   93    charge:    1.9263    magn:    0.0352    constr:    0.0000
     atom:   94    charge:    1.9251    magn:    0.0360    constr:    0.0000
     atom:   95    charge:    1.9180    magn:    0.0458    constr:    0.0000
     atom:   96    charge:    1.9254    magn:    0.0405    constr:    0.0000
     atom:   97    charge:    1.9262    magn:    0.0406    constr:    0.0000
     atom:   98    charge:    1.9300    magn:    0.0374    constr:    0.0000
     atom:   99    charge:    1.9272    magn:    0.0409    constr:    0.0000
     atom:  100    charge:    1.9271    magn:    0.0409    constr:    0.0000
     atom:  101    charge:    1.9277    magn:    0.0392    constr:    0.0000
     atom:  102    charge:    1.9263    magn:    0.0404    constr:    0.0000
     atom:  103    charge:    1.9283    magn:    0.0400    constr:    0.0000
     atom:  104    charge:    1.9167    magn:    0.0461    constr:    0.0000
     atom:  105    charge:    1.9283    magn:    0.0367    constr:    0.0000
     atom:  106    charge:    1.9278    magn:    0.0415    constr:    0.0000
     atom:  107    charge:    1.9301    magn:    0.0408    constr:    0.0000
     atom:  108    charge:    1.9288    magn:    0.0405    constr:    0.0000
     atom:  109    charge:    1.9164    magn:    0.0149    constr:    0.0000
     atom:  110    charge:    1.9156    magn:    0.0148    constr:    0.0000
     atom:  111    charge:    1.9130    magn:    0.0066    constr:    0.0000
     atom:  112    charge:    1.9151    magn:    0.0060    constr:    0.0000
     atom:  113    charge:    1.9170    magn:    0.0056    constr:    0.0000
     atom:  114    charge:    1.9158    magn:    0.0057    constr:    0.0000
     atom:  115    charge:    1.9129    magn:    0.0061    constr:    0.0000
     atom:  116    charge:    1.9152    magn:    0.0065    constr:    0.0000

     total cpu time spent up to now is     3038.1 secs

     End of self-consistent calculation

 ------ SPIN UP ------------


          k = 0.0000 0.0000 0.0000 ( 91663 PWs)   bands (ev):

   -22.7880 -22.7762 -22.6383 -22.6280 -22.4937 -22.4897 -22.4439 -22.4310
   -22.2366 -22.2294 -21.9311 -21.9206 -21.8465 -21.8317 -21.8054 -21.7977
   -19.0259 -19.0186 -18.9491 -18.9352 -18.9005 -18.8959 -18.8872 -18.8759
   -18.5594 -18.5515 -18.5085 -18.5051 -18.4947 -18.4802 -18.4269 -18.4066
   -15.0953 -15.0419 -15.0161 -14.9876 -14.9780 -14.9416 -14.9358 -14.8992
   -13.5912 -13.5731 -13.5373 -13.5041 -13.5013 -13.4721 -13.4089 -13.3822
   -11.7717 -11.6538 -11.6358 -11.5653 -11.4711 -11.4569 -11.3892 -11.3729
   -10.7574 -10.7279 -10.6624 -10.6525 -10.6032 -10.5885 -10.5618 -10.5238
   -10.0921 -10.0286 -10.0040  -9.9877  -9.8723  -9.8273  -9.7836  -9.7532
    -8.0589  -8.0101  -7.9509  -7.8443  -7.8233  -7.7615  -7.7504  -7.7292
    -7.7074  -7.6665  -7.5564  -7.4495  -7.3673  -7.2741  -7.1728  -7.1141
    -7.1003  -6.9749  -6.9576  -6.9208  -6.8959  -6.8798  -6.8736  -6.8065
    -6.6572  -6.6344  -6.5841  -6.5244  -6.4222  -6.3827  -6.3274  -6.2890
    -6.2321  -6.2115  -6.2057  -6.1880  -6.1202  -6.1096  -6.0665  -6.0406
    -6.0356  -6.0082  -6.0005  -5.9634  -5.9398  -5.8858  -5.8613  -5.8405
    -5.6830  -5.6499  -5.5796  -5.5112  -5.4693  -5.4321  -5.4044  -5.3931
    -5.3532  -5.3134  -5.2958  -5.2751  -5.2210  -5.2047  -5.1339  -5.0947
    -4.5644  -4.4873  -4.4416  -4.4154  -4.3810  -4.2879  -4.2667  -4.2403
    -4.1978  -4.1579  -4.1065  -4.0751  -4.0609  -4.0278  -4.0132  -3.9729
    -3.9468  -3.8940  -3.8517  -3.8387  -3.8070  -3.7838  -3.7069  -3.6818
    -3.6356  -3.6208  -3.5703  -3.5486  -3.4530  -3.4298  -3.2949  -3.1849
    -3.0942  -3.0273  -2.9931  -2.9527  -2.9291  -2.7906  -2.7373  -2.7156
    -2.6837  -2.6502  -2.6404  -2.5972  -2.5581  -2.5275  -2.4993  -2.4855
    -2.4427  -2.4269  -2.3942  -2.1181  -2.0723  -2.0406  -2.0147  -1.9872
    -1.9760  -1.9168  -1.8776  -1.7912  -1.7864  -1.7419  -1.7358  -1.6578
    -1.6360  -1.6158  -1.5647  -1.5528  -1.5461  -1.5288  -1.5144  -1.4508
    -1.4257  -1.4057  -1.2217  -1.1481  -0.8522  -0.8457  -0.7787  -0.7324
    -0.6663  -0.6077  -0.4745  -0.4175   0.2802   0.3197   0.4108   0.4546
     0.5999   0.6265   0.6422   0.6587   2.3713   2.4292   2.4531   2.4655
     2.4996   2.5532   2.5716   2.6520   3.5291   3.6342   3.7165   3.7188
[...]
     estimated scf accuracy    <          4.6E-09 Ry

     The total energy is the sum of the following terms:

     one-electron contribution =   -2742.36955563 Ry
     hartree contribution      =    1534.99197419 Ry
     xc contribution           =    -549.38930197 Ry
     ewald contribution        =    -124.23315896 Ry
     Dispersion Correction     =      -0.50227793 Ry
     smearing contrib. (-TS)   =       3.00819474 Ry

     total magnetization       =     8.00 Bohr mag/cell
     absolute magnetization    =     8.30 Bohr mag/cell

     convergence has been achieved in  14 iterations

     Forces acting on atoms (cartesian axes, Ry/au):

     atom    1 type  1   force =    -0.00017227    0.00021327   -0.00027614
     atom    2 type  1   force =    -0.00015466   -0.00007338    0.00036823
     atom    3 type  1   force =    -0.00015657   -0.00014624    0.00000779
     atom    4 type  1   force =     0.00054653   -0.00026935    0.00005671
     atom    5 type  1   force =    -0.00000489   -0.00003876   -0.00067266
     atom    6 type  1   force =    -0.00031776    0.00041961   -0.00063690
     atom    7 type  1   force =    -0.00010881    0.00008711    0.00008460
     atom    8 type  1   force =     0.00021827    0.00004671    0.00043146
     atom    9 type  1   force =    -0.00072018    0.00020240   -0.00038237
     atom   10 type  1   force =     0.00052461   -0.00049677    0.00005805
     atom   11 type  1   force =    -0.00017484   -0.00011098    0.00025019
     atom   12 type  1   force =    -0.00035643   -0.00070745   -0.00024867
     atom   13 type  1   force =     0.00022533    0.00041854    0.00066185
     atom   14 type  1   force =     0.00058815   -0.00010816   -0.00004133
     atom   15 type  1   force =    -0.00013489    0.00058616    0.00010822
     atom   16 type  1   force =     0.00024488    0.00026911    0.00028539
     atom   17 type  1   force =    -0.00033176   -0.00017392   -0.00023723
     atom   18 type  1   force =     0.00001611    0.00043073    0.00028550
     atom   19 type  1   force =    -0.00018315   -0.00000263    0.00004467
     atom   20 type  1   force =     0.00030773    0.00010535   -0.00079472
     atom   21 type  1   force =    -0.00044318    0.00003113    0.00025451
     atom   22 type  1   force =     0.00021363   -0.00081548    0.00000045
     atom   23 type  1   force =    -0.00007298    0.00008055   -0.00022296
     atom   24 type  1   force =    -0.00043662    0.00035939   -0.00021418
     atom   25 type  1   force =     0.00013612    0.00009920   -0.00063464
     atom   26 type  1   force =    -0.00004824    0.00027310   -0.00010837
     atom   27 type  1   force =     0.00046729    0.00015638   -0.00044825
     atom   28 type  1   force =     0.00035722   -0.00000152   -0.00017591
     atom   29 type  1   force =    -0.00002425    0.00061985   -0.00025290
     atom   30 type  1   force =    -0.00005513    0.00004448   -0.00012991
     atom   31 type  1   force =     0.00091138    0.00022339    0.00015375
     atom   32 type  1   force =     0.00054490    0.00004969   -0.00028387
     atom   33 type  1   force =    -0.00029156   -0.00018321    0.00042392
     atom   34 type  1   force =    -0.00005506    0.00003704    0.00029064
     atom   35 type  1   force =    -0.00022529   -0.00003336    0.00030173
     atom   36 type  1   force =    -0.00035645   -0.00045079    0.00004293
     atom   37 type  1   force =     0.00031914   -0.00074893    0.00068256
     atom   38 type  1   force =     0.00022383   -0.00022490   -0.00008535
     atom   39 type  1   force =    -0.00016821   -0.00039319    0.00015858
     atom   40 type  1   force =    -0.00007577   -0.00021702   -0.00002061
     atom   41 type  1   force =     0.00025710   -0.00027022   -0.00026201
     atom   42 type  1   force =     0.00003416   -0.00041508    0.00005239
     atom   43 type  1   force =    -0.00060275   -0.00010261   -0.00027553
     atom   44 type  1   force =    -0.00053682    0.00030563   -0.00006174
     atom   45 type  1   force =     0.00042594    0.00057294   -0.00018622
     atom   46 type  1   force =     0.00003499   -0.00050601    0.00046097
     atom   47 type  1   force =    -0.00029891   -0.00013765   -0.00042909
     atom   48 type  1   force =    -0.00014407   -0.00001479    0.00014884
     atom   49 type  2   force =    -0.00010920    0.00023579   -0.00028715
     atom   50 type  2   force =     0.00014556   -0.00007849   -0.00010945
     atom   51 type  2   force =    -0.00014105    0.00018671    0.00024180
     atom   52 type  2   force =     0.00081012   -0.00041605    0.00020514
     atom   53 type  2   force =    -0.00046715    0.00035997    0.00038096
     atom   54 type  2   force =     0.00045109   -0.00005405   -0.00031676
     atom   55 type  2   force =    -0.00028978    0.00027074    0.00002120
     atom   56 type  2   force =    -0.00019762    0.00029558    0.00009046
     atom   57 type  2   force =    -0.00009924    0.00016748    0.00061243
     atom   58 type  2   force =    -0.00070653   -0.00026046   -0.00008318
     atom   59 type  2   force =    -0.00006288    0.00019464   -0.00014825
     atom   60 type  2   force =     0.00020208    0.00025863   -0.00044322
     atom   61 type  2   force =    -0.00012836   -0.00029539   -0.00041027
     atom   62 type  2   force =     0.00026107   -0.00033876    0.00052720
     atom   63 type  2   force =     0.00064282   -0.00052028   -0.00018566
     atom   64 type  2   force =     0.00004669    0.00017737   -0.00031945
     atom   65 type  2   force =     0.00021311   -0.00032521   -0.00038966
     atom   66 type  2   force =    -0.00084804    0.00008956    0.00016579
     atom   67 type  2   force =    -0.00032534   -0.00003223    0.00017565
     atom   68 type  2   force =     0.00028258   -0.00000663    0.00039533
     atom   69 type  2   force =    -0.00010489   -0.00000104   -0.00012318
     atom   70 type  2   force =    -0.00032545    0.00028185    0.00040019
     atom   71 type  2   force =     0.00031490    0.00007492    0.00041090
     atom   72 type  2   force =    -0.00072785    0.00000689    0.00025854
     atom   73 type  2   force =    -0.00006124    0.00020065    0.00039156
     atom   74 type  2   force =    -0.00004083    0.00000984   -0.00057210
     atom   75 type  2   force =    -0.00052649   -0.00003729   -0.00069232
     atom   76 type  2   force =    -0.00007920    0.00017499    0.00019751
     atom   77 type  2   force =    -0.00032224   -0.00008281   -0.00044693
     atom   78 type  2   force =     0.00017556   -0.00008227   -0.00008838
     atom   79 type  2   force =    -0.00025824   -0.00012016    0.00007370
     atom   80 type  2   force =     0.00013811    0.00063127    0.00000749
     atom   81 type  3   force =     0.00007775    0.00029006    0.00013562
     atom   82 type  3   force =    -0.00033040    0.00001972   -0.00025606
     atom   83 type  3   force =     0.00023498   -0.00049663    0.00004402
     atom   84 type  3   force =    -0.00015366   -0.00047280    0.00036354
     atom   85 type  3   force =    -0.00013866   -0.00050030   -0.00021802
     atom   86 type  3   force =     0.00023309    0.00010295   -0.00026416
     atom   87 type  3   force =     0.00009676    0.00067129    0.00004631
     atom   88 type  3   force =     0.00013688   -0.00037238    0.00058856
     atom   89 type  4   force =    -0.00073476   -0.00069813    0.00005784
     atom   90 type  4   force =    -0.00039197    0.00023113   -0.00009825
     atom   91 type  4   force =    -0.00034338    0.00028515    0.00029670
     atom   92 type  4   force =     0.00021176   -0.00066606    0.00055368
     atom   93 type  5   force =     0.00028621    0.00033251    0.00010445
     atom   94 type  5   force =     0.00040461    0.00029656    0.00028005
     atom   95 type  5   force =     0.00038899   -0.00021658   -0.00086616
     atom   96 type  5   force =     0.00013570   -0.00007114   -0.00001380
     atom   97 type  5   force =    -0.00016195   -0.00024782    0.00017308
     atom   98 type  5   force =    -0.00024700    0.00007281    0.00013791
     atom   99 type  5   force =     0.00031783   -0.00017010   -0.00004528
     atom  100 type  5   force =     0.00005355    0.00014516   -0.00000540
     atom  101 type  5   force =     0.00024867    0.00026303   -0.00008625
     atom  102 type  5   force =     0.00040577   -0.00056182    0.00011525
     atom  103 type  5   force =    -0.00055769   -0.00037616   -0.00043081
     atom  104 type  5   force =    -0.00031429   -0.00018301   -0.00018476
     atom  105 type  5   force =    -0.00022658    0.00015049    0.00046854
     atom  106 type  5   force =    -0.00039259   -0.00009965    0.00025614
     atom  107 type  5   force =    -0.00008529    0.00025598    0.00049648
     atom  108 type  5   force =     0.00020987    0.00066445    0.00010996
     atom  109 type  5   force =     0.00033574   -0.00014750    0.00043154
     atom  110 type  5   force =     0.00089007    0.00054759   -0.00010851
     atom  111 type  5   force =     0.00074218    0.00022672   -0.00006817
     atom  112 type  5   force =    -0.00000372    0.00020054   -0.00015290
     atom  113 type  5   force =     0.00053472   -0.00002771   -0.00039250
     atom  114 type  5   force =    -0.00028237   -0.00042336   -0.00020440
     atom  115 type  5   force =     0.00042802    0.00028661   -0.00003166
     atom  116 type  5   force =     0.00018327    0.00073330    0.00029512

     Total force =     0.006280     Total SCF correction =     0.000160

     bfgs converged in  84 scf cycles and  83 bfgs steps
     (criteria: energy <  1.0E-04 Ry, force <  1.0E-03 Ry/Bohr)

     End of BFGS Geometry Optimization

     Final energy   =   -1878.4941255636 Ry
Begin final coordinates

ATOMIC_POSITIONS (crystal)
C             0.3005256238        0.9805535541        0.5398761969
C             0.0155907385        0.0140181004        0.0366751550
C             0.4049972357        0.0129480899        0.5730235734
C             0.1216279175        0.9782411557        0.0484618954
C             0.4584121533        0.9651743330        0.6774123787
C             0.1908807104        0.0282076726        0.1365574899
C             0.2092775956        0.5198893876        0.5257579443
C             0.4535582952        0.4772795188        0.0240451418
C             0.2427430180        0.6077242214        0.6037227941
C             0.4935798008        0.3923765376        0.1025640873
C             0.2537507330        0.8981759386        0.6117747959
C            -0.0171690736        0.0992734685        0.1150879698
C             0.4067319240        0.8813483526        0.7447689085
C             0.1524300454        0.1148626153        0.2109605435
C             0.0834716657        0.6056687122        0.7174712805
C             0.3405541454        0.3933902876        0.2272991269
C             0.0439302482        0.5206201344        0.6418662473
C             0.2944444698        0.4751623354        0.1513255762
C             0.1085218067        0.4774380687        0.5454595656
C             0.3527608364        0.5180426501        0.0488373679
C             0.4598413826        0.0964269210        0.4966930759
C             0.1633206312        0.8909043746        0.9684475369
C             0.0663883144        0.3897486767        0.4654018715
C             0.3077967251        0.6048637464        0.9681134881
C             0.7855188524        0.9812981140        0.5268370986
C             0.5557443972        0.0290689782        0.0246284097
C             0.8884545868        0.0200049996        0.5476505301
C             0.6587149856        0.9922252974        0.0519237961
C             0.9553566205        0.9743290042        0.6433982445
C             0.7150029974        0.0334401595        0.1600042448
C             0.7148208994        0.5227004900        0.5274005979
C             0.9577715826        0.4782658835        0.0247162794
C             0.7505969088        0.6111281799        0.6024005618
C             0.9913431655        0.3900219610        0.1019331102
C             0.7519970864        0.8936098926        0.6021300463
C             0.5115263543        0.1079445769        0.1065934196
C             0.9155388633        0.8905184472        0.7180491889
C             0.6674739389        0.1134616601        0.2348526635
C             0.5955933783        0.6083743583        0.7249374362
C             0.8358677641        0.3963223712        0.2219356668
C             0.5539166358        0.5227484824        0.6519855276
C             0.7956287993        0.4815563223        0.1464406059
C             0.6151029902        0.4798070641        0.5520221863
C             0.8584593753        0.5230108683        0.0472728038
C             0.9280322041        0.1076924127        0.4684937095
C             0.7058506465        0.9090114810        0.9694273313
C             0.5735752255        0.3918054285        0.4717731428
C             0.8190467917        0.6118067353        0.9664796205
H             0.2556749022        1.0175838248        0.4604337907
H             0.5064958833       -0.0017712287        0.9450078824
H             0.0360452091        1.0032809770        0.6617318213
H             0.2742796203        1.0058442395        0.1483729019
H             0.2637568014        0.4904472797        0.4529518420
H             0.0109277224        0.5063948765        0.9498712850
H             0.1731625219        0.8696685959        0.5889898545
H             0.0361956391        0.6398968796        0.7947599020
H             0.2984462242        0.3602043332        0.3093710106
H             0.4755713998        0.4916197328        0.6739143443
H             0.2153417653        0.5039343076        0.1740050165
H             0.7293165020        1.0143143402        0.4556148046
H             0.9577425704       -0.0229343494        0.9706962665
H             0.5391039361        0.9865591782        0.7081072483
H             0.7941673024        1.0051517984        0.1878133202
H             0.7669415673        0.4926382066        0.4525458885
H             0.5036847670        0.5067954489        0.9468599754
H             0.9015436774        0.1300359766        0.1085509834
H             0.9640732061        0.8542292412        0.7953911450
H             0.7104934421        0.1491199327        0.3169862199
H             0.5511687072        0.6432677520        0.8042601829
H             0.7897909001        0.3632753306        0.3010430853
H             0.9647389401        0.4895278468        0.6591716179
H             0.7174874323        0.5139915051        0.1666160912
H             0.4185787446        0.7707095705        0.8711781902
H             0.1852588205        0.2239348170        0.3334481686
H             0.3440238688        0.7122288596        0.6374870362
H             0.6032993959        0.2948498407        0.1352744871
H             0.6484579431        0.7912268327        0.6345628758
H             0.3930870277        0.1924465973        0.1454930246
H             0.8548716236        0.7150479541        0.6300265311
H             0.0880653632        0.2808223142        0.1288322478
N             0.3046667502        0.8482576350        0.7115059526
N             0.0480445109        0.1488044311        0.2021898584
N             0.1802794095        0.6485788144        0.7001375122
N             0.4373578872        0.3514556196        0.2046217907
N             0.8168839508        0.8501765874        0.6985227065
N             0.5682865843        0.1511759650        0.2099734599
N             0.6912228680        0.6532472137        0.7015729663
N             0.9314763210        0.3516157671        0.2022097373
Ni            0.2318373519        0.7492127074        0.8359759363
Ni            0.5052113513        0.2508480910        0.3398699897
Ni            0.7569623032        0.7564418288        0.8360733071
Ni            0.9880777258        0.2498964780        0.3381992564
O             0.1214232430        0.3412592974        0.3779912914
O             0.3639612514        0.6530691079        0.8809657675
O             0.4067964514        0.1464094738        0.4050082019
O             0.1077795389        0.8416329839        0.8798360219
O             0.4789589416        0.3539008444        0.4833895927
O             0.2113991279        0.6367633102        0.9761334776
O             0.0251897123        0.1400742148        0.4751837675
O             0.2600825319        0.8578204259        0.9801646383
O             0.6284044419        0.3468685089        0.3816537602
O             0.8754901406        0.6550254988        0.8767983672
O             0.8679835080        0.1578480780        0.3849132967
O             0.6543452673        0.8718508099        0.8687409788
O             0.9695639621        0.3580185874        0.4753783149
O             0.7255212154        0.6524180313        0.9778037569
O             0.5561570047        0.1219028852        0.5148113276
O             0.7972074354        0.8662817767        0.9891879617
O             0.4592589964        0.8337705674        0.8381675225
O             0.2212912059        0.1657185378        0.2851244992
O             0.3360798612        0.6496587077        0.5796233755
O             0.5874795102        0.3535663022        0.0739107261
O             0.6573654691        0.8534661732        0.5765834667
O             0.4134725482        0.1392713782        0.0799892663
O             0.8427073006        0.6528141853        0.5723805620
O             0.0822639006        0.3450463413        0.0732663106
End final coordinates



     Writing output data file /nfs/hpc/share/gantzlen/NiPyC2_relax_sc211_ortho_functionalized_OH_pbesol_relax.save/
 
     init_run     :     37.76s CPU     38.80s WALL (       1 calls)
     electrons    :  76119.65s CPU  78366.19s WALL (      84 calls)
     update_pot   :    529.99s CPU    542.28s WALL (      83 calls)
     forces       :   1416.62s CPU   1439.55s WALL (      84 calls)

     Called by init_run:
     wfcinit      :     31.06s CPU     31.91s WALL (       1 calls)
     potinit      :      3.27s CPU      3.40s WALL (       1 calls)
     hinit0       :      2.60s CPU      2.64s WALL (       1 calls)

     Called by electrons:
     c_bands      :  70694.38s CPU  72441.72s WALL (    1187 calls)
     sum_band     :   3519.70s CPU   3794.25s WALL (    1187 calls)
     v_of_rho     :    935.05s CPU   1013.43s WALL (    1233 calls)
     mix_rho      :    981.67s CPU   1090.62s WALL (    1187 calls)

     Called by c_bands:
     init_us_2    :     52.19s CPU     52.84s WALL (    2375 calls)
     regterg      :  70579.78s CPU  72157.53s WALL (    1187 calls)

     Called by sum_band:

     Called by *egterg:
     h_psi        :  26945.38s CPU  28098.47s WALL (    4209 calls)
     g_psi        :     19.31s CPU     19.42s WALL (    3021 calls)
     rdiaghg      :   1915.65s CPU   1937.16s WALL (    4087 calls)

     Called by h_psi:
     h_psi:calbec :   7780.43s CPU   7825.55s WALL (    4209 calls)
     vloc_psi     :  12087.84s CPU  13177.21s WALL (    4209 calls)
     add_vuspsi   :   7019.68s CPU   7037.97s WALL (    4209 calls)

     General routines
     calbec       :   8774.83s CPU   8825.45s WALL (    4545 calls)
     fft          :    690.65s CPU    774.50s WALL (   19494 calls)
     ffts         :    707.42s CPU    789.65s WALL (   20479 calls)
     fftw         :  13144.50s CPU  14462.02s WALL (  880387 calls)
 
     Parallel routines
     fft_scatt_xy :   2269.92s CPU   2287.95s WALL (  920360 calls)
     fft_scatt_yz :   1920.68s CPU   3318.69s WALL (  920360 calls)
 
     PWSCF        :     21h42m CPU     22h20m WALL

 
   This run was terminated on:  10:30:22   2Aug2020            

=------------------------------------------------------------------------------=
   JOB DONE.
=------------------------------------------------------------------------------=
QE finished Sun Aug 2 10:30:22 PDT 2020
