/apps/openmpi/3.1_intel-19/bin/mpiexec
starting QE Sun Jun 21 23:00:21 PDT 2020

     Program PWSCF v.6.5 starts on 21Jun2020 at 23: 0:23 

     This program is part of the open-source Quantum ESPRESSO suite
     for quantum simulation of materials; please cite
         "P. Giannozzi et al., J. Phys.:Condens. Matter 21 395502 (2009);
         "P. Giannozzi et al., J. Phys.:Condens. Matter 29 465901 (2017);
          URL http://www.quantum-espresso.org", 
     in publications or presentations arising from this work. More details at
     http://www.quantum-espresso.org/quote

     Parallel version (MPI), running on    32 processors

     MPI processes distributed on     1 nodes
     K-points division:     npool     =       2
     R & G space division:  proc/nbgrp/npool/nimage =      16
     Reading input from QE_input_scripts/pw.NiPyC2_relax_sc211_meta_functionalized_NH2_pbesol_relax.in
Warning: card &CELL ignored
Warning: card    CELL_DYNAMICS = 'BFGS' ignored
Warning: card    CELL_DOFREE = 'XYZ' ignored
Warning: card / ignored

     Current dimensions of program PWSCF are:
     Max number of different atomic species (ntypx) = 10
     Max number of k-points (npk) =  40000
     Max angular momentum in pseudopotentials (lmaxx) =  3

     -------------------------------------------------
     Parameters for Dispersion (Grimme-D2) Correction:
     -------------------------------------------------
       atom      VdW radius       C_6     

        C          2.744         60.710
        H          1.892          4.857
        N          2.640         42.670
        Ni         2.952        374.666
        O          2.536         24.284

     gamma-point specific algorithms are used

     Subspace diagonalization in iterative solution of the eigenvalue problem:
     a serial algorithm will be used

 
     Parallelization info
     --------------------
     sticks:   dense  smooth     PW     G-vecs:    dense   smooth      PW
     Min        1113    1113    277                91686    91686   11456
     Max        1116    1116    280                91692    91692   11460
     Sum       17829   17829   4453              1467017  1467017  183325
 


     bravais-lattice index     =            0
     lattice parameter (alat)  =      23.6322  a.u.
     unit-cell volume          =   10858.6228 (a.u.)^3
     number of atoms/cell      =          124
     number of atomic types    =            5
     number of electrons       =       448.00 (up: 228.00, down: 220.00)
     number of Kohn-Sham states=          274
     kinetic-energy cutoff     =     100.0000  Ry
     charge density cutoff     =     400.0000  Ry
     convergence threshold     =      1.0E-06
     mixing beta               =       0.7000
     number of iterations used =            8  local-TF  mixing
     Exchange-correlation= PBESOL
                           (   1   4  10   8   0   0   0)
     nstep                     =          200


     celldm(1)=  23.632159  celldm(2)=   0.000000  celldm(3)=   0.000000
     celldm(4)=   0.000000  celldm(5)=   0.000000  celldm(6)=   0.000000

     crystal axes: (cart. coord. in units of alat)
               a(1) = (   1.000000   0.000000   0.000000 )  
               a(2) = (   0.000000   1.001423   0.000000 )  
               a(3) = (  -0.018199   0.000000   0.821574 )  

     reciprocal axes: (cart. coord. in units 2 pi/alat)
               b(1) = (  1.000000  0.000000  0.022152 )  
               b(2) = (  0.000000  0.998579  0.000000 )  
               b(3) = (  0.000000  0.000000  1.217175 )  


     PseudoPot. # 1 for C  read from file:
     ./pseudo/C.pbesol-nc.UPF
     MD5 check sum: ce26087537ded160c8d400e183a8bf42
     Pseudo is Norm-conserving, Zval =  4.0
     Generated using "atomic" code by A. Dal Corso v.6.5
     Using radial grid of 1073 points,  1 beta functions with: 
                l(1) =   1

     PseudoPot. # 2 for H  read from file:
     ./pseudo/H.pbesol-n-nc.UPF
     MD5 check sum: 7995ef24074557c85b430109caaacc09
     Pseudo is Norm-conserving, Zval =  1.0
     Generated using "atomic" code by A. Dal Corso v.6.5
     Using radial grid of  929 points,  0 beta functions with: 

     PseudoPot. # 3 for N  read from file:
     ./pseudo/N.pbesol-nc.UPF
     MD5 check sum: e18cc5e4b8a5600c1a19b30c2cab1ca0
     Pseudo is Norm-conserving, Zval =  5.0
     Generated using "atomic" code by A. Dal Corso v.6.5
     Using radial grid of 1085 points,  1 beta functions with: 
                l(1) =   1

     PseudoPot. # 4 for Ni read from file:
     ./pseudo/Ni.pbesol-n-nc.UPF
     MD5 check sum: 623411631e0c2eb7c0b2b9815547d2d9
     Pseudo is Norm-conserving + core correction, Zval = 10.0
     Generated using "atomic" code by A. Dal Corso v.6.5
     Using radial grid of 1195 points,  2 beta functions with: 
                l(1) =   1
                l(2) =   2

     PseudoPot. # 5 for O  read from file:
     ./pseudo/O.pbesol-nc.UPF
     MD5 check sum: 73d10e7e91dbfcbe8a7e362101007f84
     Pseudo is Norm-conserving, Zval =  6.0
     Generated using "atomic" code by A. Dal Corso v.6.5
     Using radial grid of 1095 points,  1 beta functions with: 
                l(1) =   1

     atomic species   valence    mass     pseudopotential
        C              4.00    12.01070     C ( 1.00)
        H              1.00     1.00794     H ( 1.00)
        N              5.00    14.00670     N ( 1.00)
        Ni            10.00    58.69340     Ni( 1.00)
        O              6.00    15.99940     O ( 1.00)

     Starting magnetic structure 
     atomic species   magnetization
        C            0.000
        H            0.000
        N            0.000
        Ni           0.250
        O            0.000

     No symmetry found



   Cartesian axes

     site n.     atom                  positions (alat units)
         1           C   tau(   1) = (   0.2787122   0.9714307   0.4288486  )
         2           C   tau(   2) = (   0.0379730   0.0311503   0.0183277  )
         3           C   tau(   3) = (   0.3806882   0.0117868   0.4489838  )
         4           C   tau(   4) = (   0.1394042   0.9891499   0.0379124  )
         5           C   tau(   5) = (   0.4400787   0.9715829   0.5343281  )
         6           C   tau(   6) = (   0.1997920   0.0283934   0.1231482  )
         7           C   tau(   7) = (   0.1986011   0.5304580   0.4324635  )
         8           C   tau(   8) = (   0.4580372   0.4720800   0.0229252  )
         9           C   tau(   9) = (   0.2341003   0.6142040   0.4982314  )
        10           C   tau(  10) = (   0.4948422   0.3892302   0.0892369  )
        11           C   tau(  11) = (   0.2384981   0.8904717   0.4955761  )
        12           C   tau(  12) = (  -0.0008282   0.1123917   0.0856467  )
        13           C   tau(  13) = (   0.3947360   0.8906489   0.5977380  )
        14           C   tau(  14) = (   0.1557890   0.1097029   0.1871645  )
        15           C   tau(  15) = (   0.0756247   0.6098498   0.5975737  )
        16           C   tau(  16) = (   0.3367152   0.3921904   0.1884642  )
        17           C   tau(  17) = (   0.0350715   0.5258264   0.5351012  )
        18           C   tau(  18) = (   0.2948780   0.4753867   0.1254988  )
        19           C   tau(  19) = (   0.0981522   0.4849593   0.4519611  )
        20           C   tau(  20) = (   0.3569104   0.5163900   0.0416029  )
        21           C   tau(  21) = (   0.4248178   0.0994604   0.3833638  )
        22           C   tau(  22) = (   0.1639424   0.9010006   0.7933713  )
        23           C   tau(  23) = (   0.0588120   0.3950355   0.3866953  )
        24           C   tau(  24) = (   0.2984059   0.6050320   0.7961934  )
        25           C   tau(  25) = (   0.7787122   0.9714307   0.4288486  )
        26           C   tau(  26) = (   0.5379730   0.0311503   0.0183277  )
        27           C   tau(  27) = (   0.8806882   0.0117868   0.4489838  )
        28           C   tau(  28) = (   0.6394042   0.9891499   0.0379124  )
        29           C   tau(  29) = (   0.9400787   0.9715829   0.5343281  )
        30           C   tau(  30) = (   0.6997920   0.0283934   0.1231482  )
        31           C   tau(  31) = (   0.6986021   0.5304580   0.4324635  )
        32           C   tau(  32) = (   0.9580382   0.4720800   0.0229252  )
        33           C   tau(  33) = (   0.7341003   0.6142040   0.4982314  )
        34           C   tau(  34) = (   0.9948422   0.3892302   0.0892369  )
        35           C   tau(  35) = (   0.7384981   0.8904717   0.4955761  )
        36           C   tau(  36) = (   0.4991718   0.1123917   0.0856467  )
        37           C   tau(  37) = (   0.8947360   0.8906489   0.5977380  )
        38           C   tau(  38) = (   0.6557880   0.1097029   0.1871645  )
        39           C   tau(  39) = (   0.5756247   0.6098498   0.5975737  )
        40           C   tau(  40) = (   0.8367152   0.3921904   0.1884642  )
        41           C   tau(  41) = (   0.5350715   0.5258264   0.5351012  )
        42           C   tau(  42) = (   0.7948780   0.4753867   0.1254988  )
        43           C   tau(  43) = (   0.5981522   0.4849593   0.4519611  )
        44           C   tau(  44) = (   0.8569104   0.5163900   0.0416029  )
        45           C   tau(  45) = (   0.9248178   0.0994604   0.3833638  )
        46           C   tau(  46) = (   0.6639424   0.9010006   0.7933713  )
        47           C   tau(  47) = (   0.5588110   0.3950355   0.3866953  )
        48           C   tau(  48) = (   0.7984059   0.6050320   0.7961934  )
        49           H   tau(  49) = (  -0.0086584   0.5011092   0.7809458  )
        50           H   tau(  50) = (   0.3118554   0.6514319   0.4868937  )
        51           H   tau(  51) = (   0.0732386   0.3533532   0.0780726  )
        52           H   tau(  52) = (   0.1594426   0.8563401   0.4835457  )
        53           H   tau(  53) = (   0.4206861   0.1479423   0.0738480  )
        54           H   tau(  54) = (   0.4386511   0.8563902   0.6644572  )
        55           H   tau(  55) = (   0.2006191   0.1433067   0.2536997  )
        56           H   tau(  56) = (   0.0290492   0.6438591   0.6626884  )
        57           H   tau(  57) = (   0.2907535   0.3580349   0.2539083  )
        58           H   tau(  58) = (   0.4564147   0.4939330   0.5533319  )
        59           H   tau(  59) = (   0.2157623   0.5059201   0.1439924  )
        60           H   tau(  60) = (   0.7290596   1.0009978   0.3640502  )
        61           H   tau(  61) = (   0.9693669   0.0026958   0.7751545  )
        62           H   tau(  62) = (   0.5198044   1.0002267   0.5533467  )
        63           H   tau(  63) = (   0.7791988   1.0000865   0.1418054  )
        64           H   tau(  64) = (   0.8118554   0.6514319   0.4868937  )
        65           H   tau(  65) = (   0.5732386   0.3533532   0.0780726  )
        66           H   tau(  66) = (   0.6594426   0.8563401   0.4835457  )
        67           H   tau(  67) = (   0.9206861   0.1479423   0.0738480  )
        68           H   tau(  68) = (   0.9386511   0.8563902   0.6644572  )
        69           H   tau(  69) = (   0.7006201   0.1433067   0.2536997  )
        70           H   tau(  70) = (   0.5290492   0.6438591   0.6626884  )
        71           H   tau(  71) = (   0.7907535   0.3580349   0.2539083  )
        72           H   tau(  72) = (   0.9564147   0.4939330   0.5533319  )
        73           H   tau(  73) = (   0.1363954   0.9715128   0.3331393  )
        74           H   tau(  74) = (   0.2314029   0.0626571   0.2897791  )
        75           H   tau(  75) = (   0.3447827   0.0263645   0.2144876  )
        76           H   tau(  76) = (   0.3448822   0.9355838   0.1097327  )
        77           H   tau(  77) = (   0.3422822   0.5345267   0.3390596  )
        78           H   tau(  78) = (   0.2519395   0.4372365   0.2960724  )
        79           H   tau(  79) = (   0.5839669   0.4695514   0.7514554  )
        80           H   tau(  80) = (   0.4923355   0.5652134   0.7075488  )
        81           H   tau(  81) = (   0.0845700   0.9715389   0.6264931  )
        82           H   tau(  82) = (   0.0863752   0.0626761   0.5220694  )
        83           H   tau(  83) = (   0.3771640   0.0337259   0.7446807  )
        84           H   tau(  84) = (   0.4706283   0.9413970   0.7005178  )
        85           H   tau(  85) = (   0.8422842   0.5345247   0.3390621  )
        86           H   tau(  86) = (   0.7519385   0.4372375   0.2960715  )
        87           H   tau(  87) = (   0.6490219   0.4785402   0.2153839  )
        88           H   tau(  88) = (   0.6517198   0.5725478   0.1122788  )
        89           N   tau(  89) = (   0.2956096   0.8524646   0.5790685  )
        90           N   tau(  90) = (   0.0569790   0.1490689   0.1692870  )
        91           N   tau(  91) = (   0.1736962   0.6512356   0.5798983  )
        92           N   tau(  92) = (   0.4350238   0.3514275   0.1709211  )
        93           N   tau(  93) = (   0.7956096   0.8524646   0.5790685  )
        94           N   tau(  94) = (   0.5569790   0.1490689   0.1692870  )
        95           N   tau(  95) = (   0.6736972   0.6512356   0.5798983  )
        96           N   tau(  96) = (   0.9350238   0.3514275   0.1709211  )
        97           N   tau(  97) = (   0.2106261   0.0044924   0.3431732  )
        98           N   tau(  98) = (   0.3051529   0.9940689   0.1505584  )
        99           N   tau(  99) = (   0.2693955   0.4972357   0.3486170  )
       100           N   tau( 100) = (   0.5105086   0.5058249   0.7605428  )
       101           N   tau( 101) = (   0.0457124   0.0045344   0.5624629  )
       102           N   tau( 102) = (   0.4509012   0.9995817   0.7542865  )
       103           N   tau( 103) = (   0.7693965   0.4972347   0.3486178  )
       104           N   tau( 104) = (   0.6899317   0.5126246   0.1524612  )
       105           Ni  tau( 105) = (   0.2317814   0.7525556   0.6871039  )
       106           Ni  tau( 106) = (   0.4937992   0.2483520   0.2786599  )
       107           Ni  tau( 107) = (   0.7317814   0.7525556   0.6871039  )
       108           Ni  tau( 108) = (   0.9937992   0.2483520   0.2786599  )
       109           O   tau( 109) = (   0.1158100   0.3481839   0.3145586  )
       110           O   tau( 110) = (   0.3551690   0.6519036   0.7240468  )
       111           O   tau( 111) = (   0.3707656   0.1477170   0.3098797  )
       112           O   tau( 112) = (   0.1091506   0.8535652   0.7199135  )
       113           O   tau( 113) = (   0.4642788   0.3566669   0.3968154  )
       114           O   tau( 114) = (   0.2033039   0.6423280   0.8050417  )
       115           O   tau( 115) = (   0.0200847   0.1353504   0.3952413  )
       116           O   tau( 116) = (   0.2588616   0.8639860   0.8046490  )
       117           O   tau( 117) = (   0.6158110   0.3481839   0.3145586  )
       118           O   tau( 118) = (   0.8551690   0.6519036   0.7240468  )
       119           O   tau( 119) = (   0.8707656   0.1477170   0.3098797  )
       120           O   tau( 120) = (   0.6091506   0.8535652   0.7199135  )
       121           O   tau( 121) = (   0.9642788   0.3566669   0.3968154  )
       122           O   tau( 122) = (   0.7033039   0.6423280   0.8050417  )
       123           O   tau( 123) = (   0.5200847   0.1353504   0.3952413  )
       124           O   tau( 124) = (   0.7588616   0.8639860   0.8046490  )

     number of k points=     1  Marzari-Vanderbilt smearing, width (Ry)=  0.2000
                       cart. coord. in units 2pi/alat
        k(    1) = (   0.0000000   0.0000000   0.0000000), wk =   1.0000000

     Dense  grid:   733509 G-vectors     FFT dimensions: ( 160, 160, 125)

     Estimated max dynamical RAM per process >     332.29 MB

     Estimated total dynamical RAM >      10.38 GB
     Generating pointlists ...
     new r_m :   0.0358 (alat units)  0.8461 (a.u.) for type    1
     new r_m :   0.0337 (alat units)  0.7959 (a.u.) for type    2
     new r_m :   0.0337 (alat units)  0.7959 (a.u.) for type    3
     new r_m :   0.0654 (alat units)  1.5454 (a.u.) for type    4
     new r_m :   0.0423 (alat units)  0.9991 (a.u.) for type    5

     Check: negative core charge=   -0.000145

     Initial potential from superposition of free atoms

     starting charge  447.99655, renormalised to  448.00000
     Starting wfcs are  396 randomized atomic wfcs

     total cpu time spent up to now is       43.9 secs

     Self-consistent Calculation

     iteration #  1     ecut=   100.00 Ry     beta= 0.70
     Davidson diagonalization with overlap
     ethr =  1.00E-02,  avg # of iterations =  4.0

     total cpu time spent up to now is      153.7 secs

     total energy              =   -1788.02815655 Ry
     Harris-Foulkes estimate   =   -1795.59532315 Ry
     estimated scf accuracy    <      19.12286386 Ry

     total magnetization       =     8.00 Bohr mag/cell
     absolute magnetization    =     8.54 Bohr mag/cell

     iteration #  2     ecut=   100.00 Ry     beta= 0.70
     Davidson diagonalization with overlap
     ethr =  4.27E-03,  avg # of iterations =  2.0

     total cpu time spent up to now is      221.5 secs

     total energy              =   -1790.57829826 Ry
     Harris-Foulkes estimate   =   -1794.09108176 Ry
     estimated scf accuracy    <      18.22019752 Ry

     total magnetization       =     8.00 Bohr mag/cell
     absolute magnetization    =     8.41 Bohr mag/cell

     iteration #  3     ecut=   100.00 Ry     beta= 0.70
     Davidson diagonalization with overlap
     ethr =  4.07E-03,  avg # of iterations =  1.0

     total cpu time spent up to now is      282.2 secs

     total energy              =   -1790.73930155 Ry
     Harris-Foulkes estimate   =   -1791.45773257 Ry
     estimated scf accuracy    <       2.09787714 Ry

     total magnetization       =     8.00 Bohr mag/cell
     absolute magnetization    =     8.21 Bohr mag/cell

     iteration #  4     ecut=   100.00 Ry     beta= 0.70
     Davidson diagonalization with overlap
     ethr =  4.68E-04,  avg # of iterations =  7.0

     total cpu time spent up to now is      365.9 secs

     total energy              =   -1790.60300412 Ry
     Harris-Foulkes estimate   =   -1791.17380813 Ry
     estimated scf accuracy    <       3.49071724 Ry

     total magnetization       =     8.00 Bohr mag/cell
     absolute magnetization    =     8.28 Bohr mag/cell

     iteration #  5     ecut=   100.00 Ry     beta= 0.70
     Davidson diagonalization with overlap
     ethr =  4.68E-04,  avg # of iterations =  2.0

     total cpu time spent up to now is      428.5 secs

     total energy              =   -1790.90306077 Ry
     Harris-Foulkes estimate   =   -1790.98850183 Ry
     estimated scf accuracy    <       1.04912630 Ry

     total magnetization       =     8.00 Bohr mag/cell
     absolute magnetization    =     8.27 Bohr mag/cell

     iteration #  6     ecut=   100.00 Ry     beta= 0.70
     Davidson diagonalization with overlap
     ethr =  2.34E-04,  avg # of iterations =  1.0

     total cpu time spent up to now is      488.2 secs

     total energy              =   -1790.87375864 Ry
     Harris-Foulkes estimate   =   -1790.94296436 Ry
     estimated scf accuracy    <       1.05728830 Ry

     total magnetization       =     8.00 Bohr mag/cell
     absolute magnetization    =     8.28 Bohr mag/cell

     iteration #  7     ecut=   100.00 Ry     beta= 0.70
     Davidson diagonalization with overlap
     ethr =  2.34E-04,  avg # of iterations =  1.0

     total cpu time spent up to now is      549.0 secs

     total energy              =   -1790.81416931 Ry
     Harris-Foulkes estimate   =   -1790.89817798 Ry
     estimated scf accuracy    <       0.44605743 Ry

     total magnetization       =     8.00 Bohr mag/cell
     absolute magnetization    =     8.29 Bohr mag/cell

     iteration #  8     ecut=   100.00 Ry     beta= 0.70
     Davidson diagonalization with overlap
     ethr =  9.96E-05,  avg # of iterations =  7.0

     total cpu time spent up to now is      617.3 secs

     total energy              =   -1790.84675432 Ry
     Harris-Foulkes estimate   =   -1790.85865254 Ry
     estimated scf accuracy    <       0.17434342 Ry

     total magnetization       =     8.00 Bohr mag/cell
     absolute magnetization    =     8.30 Bohr mag/cell

     iteration #  9     ecut=   100.00 Ry     beta= 0.70
     Davidson diagonalization with overlap
     ethr =  3.89E-05,  avg # of iterations =  4.0

     total cpu time spent up to now is      682.4 secs

     total energy              =   -1790.84175690 Ry
     Harris-Foulkes estimate   =   -1790.85553136 Ry
     estimated scf accuracy    <       0.14196996 Ry

     total magnetization       =     8.00 Bohr mag/cell
     absolute magnetization    =     8.30 Bohr mag/cell

     iteration # 10     ecut=   100.00 Ry     beta= 0.70
     Davidson diagonalization with overlap
     ethr =  3.17E-05,  avg # of iterations =  2.0

     total cpu time spent up to now is      745.2 secs

     total energy              =   -1790.85171103 Ry
     Harris-Foulkes estimate   =   -1790.85273069 Ry
     estimated scf accuracy    <       0.04148220 Ry

     total magnetization       =     8.00 Bohr mag/cell
     absolute magnetization    =     8.29 Bohr mag/cell

     iteration # 11     ecut=   100.00 Ry     beta= 0.70
     Davidson diagonalization with overlap
     ethr =  9.26E-06,  avg # of iterations =  8.0

     total cpu time spent up to now is      817.5 secs

     total energy              =   -1790.85592741 Ry
     Harris-Foulkes estimate   =   -1790.85510815 Ry
     estimated scf accuracy    <       0.01100246 Ry

     total magnetization       =     8.00 Bohr mag/cell
     absolute magnetization    =     8.28 Bohr mag/cell

     iteration # 12     ecut=   100.00 Ry     beta= 0.70
     Davidson diagonalization with overlap
     ethr =  2.46E-06,  avg # of iterations =  9.5

     total cpu time spent up to now is      891.1 secs

     total energy              =   -1790.85711683 Ry
     Harris-Foulkes estimate   =   -1790.85768002 Ry
     estimated scf accuracy    <       0.02773287 Ry

     total magnetization       =     8.00 Bohr mag/cell
     absolute magnetization    =     8.28 Bohr mag/cell

     iteration # 13     ecut=   100.00 Ry     beta= 0.70
     Davidson diagonalization with overlap
     ethr =  2.46E-06,  avg # of iterations =  3.5

     total cpu time spent up to now is      956.2 secs

     total energy              =   -1790.85898447 Ry
     Harris-Foulkes estimate   =   -1790.85808919 Ry
     estimated scf accuracy    <       0.00086799 Ry

     total magnetization       =     8.00 Bohr mag/cell
     absolute magnetization    =     8.27 Bohr mag/cell

     iteration # 14     ecut=   100.00 Ry     beta= 0.70
     Davidson diagonalization with overlap
     ethr =  1.94E-07,  avg # of iterations =  4.5

     total cpu time spent up to now is     1028.8 secs

     total energy              =   -1790.85921515 Ry
     Harris-Foulkes estimate   =   -1790.85905776 Ry
     estimated scf accuracy    <       0.00032248 Ry

     total magnetization       =     8.00 Bohr mag/cell
     absolute magnetization    =     8.27 Bohr mag/cell

     iteration # 15     ecut=   100.00 Ry     beta= 0.70
     Davidson diagonalization with overlap
     ethr =  7.20E-08,  avg # of iterations =  4.0

     total cpu time spent up to now is     1095.0 secs

     total energy              =   -1790.85927234 Ry
     Harris-Foulkes estimate   =   -1790.85923910 Ry
     estimated scf accuracy    <       0.00006749 Ry

     total magnetization       =     8.00 Bohr mag/cell
     absolute magnetization    =     8.27 Bohr mag/cell

     iteration # 16     ecut=   100.00 Ry     beta= 0.70
     Davidson diagonalization with overlap
     ethr =  1.51E-08,  avg # of iterations =  4.0

     total cpu time spent up to now is     1161.2 secs

     total energy              =   -1790.85928326 Ry
     Harris-Foulkes estimate   =   -1790.85927724 Ry
     estimated scf accuracy    <       0.00002407 Ry

     total magnetization       =     8.00 Bohr mag/cell
     absolute magnetization    =     8.27 Bohr mag/cell

     iteration # 17     ecut=   100.00 Ry     beta= 0.70
     Davidson diagonalization with overlap
     ethr =  5.37E-09,  avg # of iterations =  4.0

     total cpu time spent up to now is     1226.9 secs

     total energy              =   -1790.85928759 Ry
     Harris-Foulkes estimate   =   -1790.85928529 Ry
     estimated scf accuracy    <       0.00001024 Ry

     total magnetization       =     8.00 Bohr mag/cell
     absolute magnetization    =     8.27 Bohr mag/cell

     iteration # 18     ecut=   100.00 Ry     beta= 0.70
     Davidson diagonalization with overlap
     ethr =  2.29E-09,  avg # of iterations =  3.5

     total cpu time spent up to now is     1292.0 secs

     total energy              =   -1790.85928932 Ry
     Harris-Foulkes estimate   =   -1790.85928836 Ry
     estimated scf accuracy    <       0.00000629 Ry

     total magnetization       =     8.00 Bohr mag/cell
     absolute magnetization    =     8.27 Bohr mag/cell

     iteration # 19     ecut=   100.00 Ry     beta= 0.70
     Davidson diagonalization with overlap
     ethr =  1.40E-09,  avg # of iterations =  3.0

     total cpu time spent up to now is     1355.2 secs

     total energy              =   -1790.85929034 Ry
     Harris-Foulkes estimate   =   -1790.85929000 Ry
     estimated scf accuracy    <       0.00001025 Ry

     total magnetization       =     8.00 Bohr mag/cell
     absolute magnetization    =     8.27 Bohr mag/cell

     iteration # 20     ecut=   100.00 Ry     beta= 0.70
     Davidson diagonalization with overlap
     ethr =  1.40E-09,  avg # of iterations =  3.5

     total cpu time spent up to now is     1418.8 secs

     total energy              =   -1790.85929094 Ry
     Harris-Foulkes estimate   =   -1790.85929096 Ry
     estimated scf accuracy    <       0.00000289 Ry

     total magnetization       =     8.00 Bohr mag/cell
     absolute magnetization    =     8.27 Bohr mag/cell

     iteration # 21     ecut=   100.00 Ry     beta= 0.70
     Davidson diagonalization with overlap
     ethr =  6.44E-10,  avg # of iterations =  3.5

     total cpu time spent up to now is     1482.2 secs

     total energy              =   -1790.85929131 Ry
     Harris-Foulkes estimate   =   -1790.85929120 Ry
     estimated scf accuracy    <       0.00000142 Ry

     total magnetization       =     8.00 Bohr mag/cell
     absolute magnetization    =     8.27 Bohr mag/cell

     iteration # 22     ecut=   100.00 Ry     beta= 0.70
     Davidson diagonalization with overlap
     ethr =  3.16E-10,  avg # of iterations =  3.5
 
     Magnetic moment per site:
     atom:    1    charge:    0.8299    magn:    0.0002    constr:    0.0000
     atom:    2    charge:    0.8457    magn:    0.0042    constr:    0.0000
     atom:    3    charge:    0.8496    magn:    0.0059    constr:    0.0000
     atom:    4    charge:    0.8495    magn:    0.0057    constr:    0.0000
     atom:    5    charge:    0.8471    magn:    0.0042    constr:    0.0000
     atom:    6    charge:    0.8317    magn:    0.0004    constr:    0.0000
     atom:    7    charge:    0.8305    magn:   -0.0002    constr:    0.0000
     atom:    8    charge:    0.8297    magn:   -0.0001    constr:    0.0000
     atom:    9    charge:    0.8420    magn:    0.0087    constr:    0.0000
     atom:   10    charge:    0.8419    magn:    0.0085    constr:    0.0000
     atom:   11    charge:    0.8426    magn:    0.0085    constr:    0.0000
     atom:   12    charge:    0.8378    magn:    0.0061    constr:    0.0000
     atom:   13    charge:    0.8470    magn:    0.0063    constr:    0.0000
     atom:   14    charge:    0.8503    magn:    0.0083    constr:    0.0000
     atom:   15    charge:    0.8399    magn:    0.0062    constr:    0.0000
     atom:   16    charge:    0.8449    magn:    0.0061    constr:    0.0000
     atom:   17    charge:    0.8459    magn:    0.0043    constr:    0.0000
     atom:   18    charge:    0.8468    magn:    0.0041    constr:    0.0000
     atom:   19    charge:    0.8515    magn:    0.0063    constr:    0.0000
     atom:   20    charge:    0.8487    magn:    0.0063    constr:    0.0000
     atom:   21    charge:    0.8222    magn:   -0.0010    constr:    0.0000
     atom:   22    charge:    0.8229    magn:   -0.0007    constr:    0.0000
     atom:   23    charge:    0.8225    magn:   -0.0013    constr:    0.0000
     atom:   24    charge:    0.8231    magn:   -0.0017    constr:    0.0000
     atom:   25    charge:    0.8449    magn:    0.0044    constr:    0.0000
     atom:   26    charge:    0.8299    magn:    0.0002    constr:    0.0000
     atom:   27    charge:    0.8498    magn:    0.0064    constr:    0.0000
     atom:   28    charge:    0.8491    magn:    0.0064    constr:    0.0000
     atom:   29    charge:    0.8289    magn:    0.0000    constr:    0.0000
     atom:   30    charge:    0.8466    magn:    0.0045    constr:    0.0000
     atom:   31    charge:    0.8310    magn:   -0.0001    constr:    0.0000
     atom:   32    charge:    0.8454    magn:    0.0041    constr:    0.0000
     atom:   33    charge:    0.8418    magn:    0.0085    constr:    0.0000
     atom:   34    charge:    0.8375    magn:    0.0060    constr:    0.0000
     atom:   35    charge:    0.8382    magn:    0.0062    constr:    0.0000
     atom:   36    charge:    0.8423    magn:    0.0087    constr:    0.0000
     atom:   37    charge:    0.8440    magn:    0.0085    constr:    0.0000
     atom:   38    charge:    0.8398    magn:    0.0062    constr:    0.0000
     atom:   39    charge:    0.8448    magn:    0.0061    constr:    0.0000
     atom:   40    charge:    0.8484    magn:    0.0082    constr:    0.0000
     atom:   41    charge:    0.8472    magn:    0.0040    constr:    0.0000
     atom:   42    charge:    0.8302    magn:    0.0003    constr:    0.0000
     atom:   43    charge:    0.8515    magn:    0.0060    constr:    0.0000
     atom:   44    charge:    0.8491    magn:    0.0061    constr:    0.0000
     atom:   45    charge:    0.8217    magn:   -0.0014    constr:    0.0000
     atom:   46    charge:    0.8226    magn:   -0.0016    constr:    0.0000
     atom:   47    charge:    0.8228    magn:   -0.0009    constr:    0.0000
     atom:   48    charge:    0.8230    magn:   -0.0015    constr:    0.0000
     atom:   49    charge:    0.4283    magn:   -0.0014    constr:    0.0000
     atom:   50    charge:    0.4293    magn:   -0.0011    constr:    0.0000
     atom:   51    charge:    0.4327    magn:   -0.0011    constr:    0.0000
     atom:   52    charge:    0.4288    magn:   -0.0008    constr:    0.0000
     atom:   53    charge:    0.4293    magn:   -0.0009    constr:    0.0000
     atom:   54    charge:    0.4420    magn:   -0.0009    constr:    0.0000
     atom:   55    charge:    0.4418    magn:   -0.0008    constr:    0.0000
     atom:   56    charge:    0.4287    magn:   -0.0009    constr:    0.0000
     atom:   57    charge:    0.4433    magn:   -0.0010    constr:    0.0000
     atom:   58    charge:    0.4270    magn:   -0.0011    constr:    0.0000
     atom:   59    charge:    0.4273    magn:   -0.0011    constr:    0.0000
     atom:   60    charge:    0.4281    magn:   -0.0013    constr:    0.0000
     atom:   61    charge:    0.4286    magn:   -0.0013    constr:    0.0000
     atom:   62    charge:    0.4267    magn:   -0.0011    constr:    0.0000
     atom:   63    charge:    0.4279    magn:   -0.0014    constr:    0.0000
     atom:   64    charge:    0.4285    magn:   -0.0011    constr:    0.0000
     atom:   65    charge:    0.4293    magn:   -0.0009    constr:    0.0000
     atom:   66    charge:    0.4330    magn:   -0.0011    constr:    0.0000
     atom:   67    charge:    0.4317    magn:   -0.0011    constr:    0.0000
     atom:   68    charge:    0.4257    magn:   -0.0009    constr:    0.0000
     atom:   69    charge:    0.4285    magn:   -0.0009    constr:    0.0000
     atom:   70    charge:    0.4430    magn:   -0.0010    constr:    0.0000
     atom:   71    charge:    0.4403    magn:   -0.0008    constr:    0.0000
     atom:   72    charge:    0.4285    magn:   -0.0014    constr:    0.0000
     atom:   73    charge:    0.4210    magn:   -0.0006    constr:    0.0000
     atom:   74    charge:    0.4434    magn:   -0.0006    constr:    0.0000
     atom:   75    charge:    0.4206    magn:   -0.0005    constr:    0.0000
     atom:   76    charge:    0.4207    magn:   -0.0004    constr:    0.0000
     atom:   77    charge:    0.4220    magn:   -0.0006    constr:    0.0000
     atom:   78    charge:    0.4350    magn:   -0.0006    constr:    0.0000
     atom:   79    charge:    0.4210    magn:   -0.0006    constr:    0.0000
     atom:   80    charge:    0.4343    magn:   -0.0006    constr:    0.0000
     atom:   81    charge:    0.4180    magn:   -0.0005    constr:    0.0000
     atom:   82    charge:    0.4226    magn:   -0.0005    constr:    0.0000
     atom:   83    charge:    0.4220    magn:   -0.0006    constr:    0.0000
     atom:   84    charge:    0.4364    magn:   -0.0005    constr:    0.0000
     atom:   85    charge:    0.4209    magn:   -0.0006    constr:    0.0000
     atom:   86    charge:    0.4396    magn:   -0.0006    constr:    0.0000
     atom:   87    charge:    0.4214    magn:   -0.0005    constr:    0.0000
     atom:   88    charge:    0.4202    magn:   -0.0004    constr:    0.0000
     atom:   89    charge:    1.3312    magn:    0.0073    constr:    0.0000
     atom:   90    charge:    1.3305    magn:    0.0075    constr:    0.0000
     atom:   91    charge:    1.3305    magn:    0.0073    constr:    0.0000
     atom:   92    charge:    1.3312    magn:    0.0074    constr:    0.0000
     atom:   93    charge:    1.3306    magn:    0.0074    constr:    0.0000
     atom:   94    charge:    1.3310    magn:    0.0076    constr:    0.0000
     atom:   95    charge:    1.3305    magn:    0.0071    constr:    0.0000
     atom:   96    charge:    1.3305    magn:    0.0076    constr:    0.0000
     atom:   97    charge:    1.3439    magn:    0.0205    constr:    0.0000
     atom:   98    charge:    1.3411    magn:    0.0205    constr:    0.0000
     atom:   99    charge:    1.3393    magn:    0.0211    constr:    0.0000
     atom:  100    charge:    1.3405    magn:    0.0205    constr:    0.0000
     atom:  101    charge:    1.3394    magn:    0.0210    constr:    0.0000
     atom:  102    charge:    1.3423    magn:    0.0206    constr:    0.0000
     atom:  103    charge:    1.3410    magn:    0.0209    constr:    0.0000
     atom:  104    charge:    1.3412    magn:    0.0202    constr:    0.0000
     atom:  105    charge:    7.4393    magn:    1.1510    constr:    0.0000
     atom:  106    charge:    7.4393    magn:    1.1521    constr:    0.0000
     atom:  107    charge:    7.4365    magn:    1.1495    constr:    0.0000
     atom:  108    charge:    7.4373    magn:    1.1456    constr:    0.0000
     atom:  109    charge:    3.2675    magn:    0.0502    constr:    0.0000
     atom:  110    charge:    3.2666    magn:    0.0518    constr:    0.0000
     atom:  111    charge:    3.2751    magn:    0.0437    constr:    0.0000
     atom:  112    charge:    3.2670    magn:    0.0482    constr:    0.0000
     atom:  113    charge:    3.2601    magn:    0.0537    constr:    0.0000
     atom:  114    charge:    3.2590    magn:    0.0590    constr:    0.0000
     atom:  115    charge:    3.2699    magn:    0.0515    constr:    0.0000
     atom:  116    charge:    3.2679    magn:    0.0479    constr:    0.0000
     atom:  117    charge:    3.2724    magn:    0.0443    constr:    0.0000
     atom:  118    charge:    3.2593    magn:    0.0583    constr:    0.0000
     atom:  119    charge:    3.2612    magn:    0.0570    constr:    0.0000
     atom:  120    charge:    3.2646    magn:    0.0517    constr:    0.0000
     atom:  121    charge:    3.2595    magn:    0.0562    constr:    0.0000
     atom:  122    charge:    3.2685    magn:    0.0514    constr:    0.0000
     atom:  123    charge:    3.2602    magn:    0.0564    constr:    0.0000
     atom:  124    charge:    3.2574    magn:    0.0593    constr:    0.0000

     total cpu time spent up to now is     1545.0 secs

     End of self-consistent calculation

 ------ SPIN UP ------------


          k = 0.0000 0.0000 0.0000 ( 91663 PWs)   bands (ev):

   -21.6729 -21.6621 -21.6021 -21.5797 -21.5507 -21.4842 -21.4742 -21.4520
   -18.8142 -18.7660 -18.7073 -18.6816 -18.6582 -18.6236 -18.6213 -18.5988
   -18.5925 -18.5773 -18.5562 -18.5455 -18.5268 -18.4583 -18.4448 -18.4130
   -17.5968 -17.5712 -17.3000 -17.2644 -17.1905 -17.0990 -17.0574 -17.0517
   -14.7429 -14.7203 -14.6554 -14.5889 -14.5478 -14.5083 -14.4890 -14.4619
   -13.8202 -13.7834 -13.5133 -13.3422 -13.2523 -13.1562 -13.0682 -13.0521
   -11.5262 -11.4504 -11.2404 -11.1700 -11.0769 -10.9961 -10.9484 -10.9360
   -10.5781 -10.5394 -10.4433 -10.3611 -10.3031 -10.2741 -10.2054 -10.1912
    -9.5522  -9.3879  -9.2245  -9.1730  -8.9571  -8.6663  -8.3653  -8.3275
    -8.2031  -8.1717  -7.9734  -7.8877  -7.8186  -7.8095  -7.7140  -7.6619
    -7.5301  -7.4787  -7.3264  -7.2449  -7.1597  -7.1144  -7.0832  -7.0124
    -6.9700  -6.9302  -6.9243  -6.8270  -6.7647  -6.6550  -6.5115  -6.4705
    -6.3898  -6.3256  -6.2189  -6.1853  -6.1832  -6.1215  -6.0727  -6.0276
    -5.9564  -5.9430  -5.9124  -5.8928  -5.8157  -5.8035  -5.7515  -5.7221
    -5.7143  -5.6743  -5.6488  -5.5604  -5.5147  -5.4969  -5.4542  -5.4482
    -5.4395  -5.4178  -5.3964  -5.3706  -5.3485  -5.3375  -5.3201  -5.2049
    -5.1613  -5.1206  -5.1033  -5.0245  -5.0001  -4.9640  -4.9035  -4.8546
    -4.8486  -4.7975  -4.7355  -4.6566  -4.6229  -4.5626  -4.4908  -4.3018
    -3.9812  -3.8665  -3.8276  -3.8007  -3.7770  -3.7448  -3.6853  -3.6532
    -3.6110  -3.5945  -3.5134  -3.4919  -3.4289  -3.3615  -3.2561  -3.2157
    -3.1982  -3.1004  -3.0884  -3.0317  -2.9910  -2.9717  -2.8633  -2.7983
    -2.7820  -2.7121  -2.6517  -2.6248  -2.5661  -2.3968  -2.3731  -2.2697
    -2.2475  -2.2140  -2.1901  -2.1703  -2.1030  -2.0328  -2.0097  -1.9746
    -1.9363  -1.8752  -1.8601  -1.7132  -1.6937  -1.6700  -1.6407  -1.6166
    -1.5760  -1.5560  -1.4852  -1.4479  -1.4133  -1.3981  -1.3830  -1.3559
    -1.3241  -1.2736  -1.2574  -1.2113  -1.2031  -1.1606  -1.1453  -1.1260
    -1.1223  -1.1004  -1.0511  -0.9758  -0.4047  -0.3510  -0.1531  -0.1042
    -0.0591  -0.0142   0.0061   0.0775   0.6147   0.6210   0.7153   0.7360
     0.9417   0.9523   1.0148   1.0321   2.6083   2.6567   2.6980   2.7179
     2.7591   2.8272   2.8606   2.8898   3.7731   3.9303   3.9833   4.0396
     4.0726   4.1507   4.2386   4.3334   4.3830   4.5949   4.6449   4.7657
     5.1432   5.1664   5.2169   5.2843   5.3306   5.3449   5.3868   5.4232
     5.4255   5.5492   5.6180   5.7034   5.7953   5.8809   6.0059   6.1482
     6.1975   6.3206   6.4139   6.7700   6.8751   6.9160   6.9614   7.1231
     7.1747   7.2155

 ------ SPIN DOWN ----------


          k = 0.0000 0.0000 0.0000 ( 91663 PWs)   bands (ev):

   -21.5812 -21.5707 -21.5024 -21.4779 -21.4601 -21.3840 -21.3752 -21.3505
   -18.7501 -18.6972 -18.6378 -18.6248 -18.5796 -18.5740 -18.5291 -18.4979
   -18.4917 -18.4729 -18.4492 -18.4364 -18.4195 -18.4007 -18.3865 -18.3622
   -17.5376 -17.5128 -17.2388 -17.2034 -17.1294 -17.0372 -16.9975 -16.9917
   -14.7070 -14.6841 -14.6179 -14.5508 -14.5090 -14.4680 -14.4486 -14.4210
   -13.7813 -13.7450 -13.4726 -13.2999 -13.2099 -13.1128 -13.0236 -13.0076
   -11.4902 -11.4165 -11.2020 -11.1302 -11.0367 -10.9555 -10.9078 -10.8948
   -10.5510 -10.5131 -10.4176 -10.3349 -10.2761 -10.2471 -10.1765 -10.1647
    -9.5221  -9.3589  -9.1955  -9.1438  -8.9295  -8.6328  -8.3308  -8.2945
    -8.1725  -8.1423  -7.9418  -7.8519  -7.7863  -7.7776  -7.6836  -7.6310
    -7.4938  -7.4463  -7.2766  -7.2048  -7.1151  -7.0613  -7.0378  -6.9652
    -6.9247  -6.8743  -6.8708  -6.7635  -6.7105  -6.6001  -6.4531  -6.4156
    -6.3333  -6.2755  -6.1557  -6.1259  -6.1134  -6.0568  -6.0111  -5.9610
    -5.8743  -5.8495  -5.8167  -5.7910  -5.7245  -5.7045  -5.6624  -5.6339
    -5.6176  -5.5909  -5.5702  -5.4798  -5.4304  -5.4108  -5.3777  -5.3608
    -5.3399  -5.3295  -5.3025  -5.2858  -5.2539  -5.2397  -5.1986  -5.1441
    -5.0876  -5.0598  -5.0400  -4.9880  -4.9573  -4.9205  -4.8469  -4.8084
    -4.7955  -4.7236  -4.6525  -4.5687  -4.5558  -4.4971  -4.4051  -4.2167
    -3.9015  -3.7978  -3.7650  -3.7494  -3.6631  -3.6227  -3.5700  -3.4967
    -3.4842  -3.4384  -3.4111  -3.3162  -3.2694  -3.1163  -3.0468  -3.0152
    -2.9543  -2.8819  -2.8696  -2.8038  -2.7409  -2.6736  -2.6250  -2.5582
    -2.5302  -2.5210  -2.4954  -2.2710  -2.2437  -2.0488  -2.0176  -1.9247
    -1.8944  -1.8689  -1.8551  -1.7985  -1.7753  -1.7408  -1.7060  -1.6775
    -1.6630  -1.6022  -1.5336  -1.4867  -1.4522  -1.4180  -1.3886  -1.3616
    -1.3474  -1.2940  -1.2350  -1.2263  -1.1889  -1.1440  -1.0639  -1.0215
    -0.5971  -0.5032  -0.4633  -0.4480  -0.3091  -0.3012  -0.2814  -0.2792
    -0.2744  -0.2637  -0.2322  -0.2058  -0.1243  -0.0929   0.0320   0.0593
     0.1167   0.1592   0.1691   0.2400   1.4399   1.4401   1.5118   1.5382
     1.6903   1.7155   1.7624   1.7763   2.7249   2.7757   2.8057   2.8369
     2.8722   2.9448   2.9694   3.0064   3.8472   3.9955   4.0642   4.1179
     4.1527   4.2303   4.3206   4.4187   4.4693   4.6681   4.7197   4.8289
     5.2188   5.2425   5.2925   5.3381   5.4113   5.4255   5.4534   5.4985
     5.5095   5.6001   5.6729   5.7613   5.8556   5.9393   6.0538   6.1970
     6.2409   6.3690   6.4585   6.8312   6.9166   6.9591   7.0052   7.1670
     7.2249   7.2600

     the spin up/dw Fermi energies are     1.3129    0.9528 ev

!    total energy              =   -1790.85929146 Ry
     Harris-Foulkes estimate   =   -1790.85929140 Ry
     estimated scf accuracy    <       0.00000044 Ry

     The total energy is the sum of the following terms:

     one-electron contribution =   -2568.29557474 Ry
     hartree contribution      =    1450.45413398 Ry
     xc contribution           =    -539.68944930 Ry
     ewald contribution        =    -135.31266588 Ry
     Dispersion Correction     =      -0.55130165 Ry
     smearing contrib. (-TS)   =       2.53556614 Ry

     total magnetization       =     8.00 Bohr mag/cell
     absolute magnetization    =     8.27 Bohr mag/cell

     convergence has been achieved in  22 iterations

     Forces acting on atoms (cartesian axes, Ry/au):

     atom    1 type  1   force =    -0.10485062    0.02277807   -0.09623496
     atom    2 type  1   force =     0.00670870    0.00829721    0.01498273
     atom    3 type  1   force =     0.03466682    0.03220422   -0.01211060
     atom    4 type  1   force =    -0.00567148   -0.03006011   -0.03617958
     atom    5 type  1   force =    -0.01794532   -0.01583401   -0.01172773
     atom    6 type  1   force =     0.12966052   -0.03047957    0.02767436
     atom    7 type  1   force =     0.10669532   -0.02402492   -0.09884744
     atom    8 type  1   force =     0.10656426    0.02317614   -0.09939553
     atom    9 type  1   force =    -0.00920067    0.01702208    0.02868792
     atom   10 type  1   force =    -0.01011460   -0.01611925    0.02469408
     atom   11 type  1   force =     0.00977048   -0.01641425    0.02358105
     atom   12 type  1   force =     0.00182821   -0.01277837   -0.00923463
     atom   13 type  1   force =    -0.01323844   -0.01593327   -0.06277160
     atom   14 type  1   force =    -0.04116113    0.04778654   -0.04997350
     atom   15 type  1   force =    -0.01146206   -0.00699001   -0.00151631
     atom   16 type  1   force =     0.01051475   -0.00698113   -0.05456205
     atom   17 type  1   force =     0.01888807    0.01039056   -0.00571976
     atom   18 type  1   force =     0.01889385   -0.01509853   -0.00868400
     atom   19 type  1   force =    -0.03531430   -0.03242446   -0.01063875
     atom   20 type  1   force =    -0.03349440    0.03216130   -0.01081259
     atom   21 type  1   force =     0.02452188    0.00116210    0.02068259
     atom   22 type  1   force =    -0.00057705   -0.00139021    0.01039343
     atom   23 type  1   force =    -0.00283507   -0.00008883    0.00352328
     atom   24 type  1   force =    -0.01115729    0.00110207    0.00473717
     atom   25 type  1   force =     0.00696180   -0.00629250    0.01292012
     atom   26 type  1   force =    -0.10255234   -0.02304049   -0.10114255
     atom   27 type  1   force =    -0.00535368    0.02980363   -0.03722076
     atom   28 type  1   force =     0.03489077   -0.03081345   -0.00884913
     atom   29 type  1   force =     0.13102425    0.03258163    0.04227640
     atom   30 type  1   force =    -0.01849371    0.00991689   -0.00479477
     atom   31 type  1   force =     0.10723698   -0.02198963   -0.09262122
     atom   32 type  1   force =    -0.00582736   -0.00787369    0.01376635
     atom   33 type  1   force =    -0.01057691    0.01363654    0.02595567
     atom   34 type  1   force =    -0.00301273    0.01252838   -0.00781597
     atom   35 type  1   force =     0.00148021    0.00922298   -0.00662283
     atom   36 type  1   force =     0.00817003    0.01968461    0.02720587
     atom   37 type  1   force =    -0.01953275   -0.02181783    0.01265678
     atom   38 type  1   force =     0.01169882   -0.00657671   -0.00100053
     atom   39 type  1   force =     0.01082718    0.00556562   -0.05391159
     atom   40 type  1   force =     0.03594401   -0.03692030   -0.03557488
     atom   41 type  1   force =     0.01877620    0.01670257   -0.00764651
     atom   42 type  1   force =    -0.12567717    0.03277765    0.02896008
     atom   43 type  1   force =    -0.03473189   -0.03390547   -0.01329912
     atom   44 type  1   force =     0.00752137    0.02906823   -0.03488126
     atom   45 type  1   force =    -0.01633663    0.00251803   -0.00598455
     atom   46 type  1   force =     0.00777764   -0.00052497    0.00443515
     atom   47 type  1   force =    -0.01486685   -0.00029164    0.01425109
     atom   48 type  1   force =     0.01440281    0.00195897   -0.00577612
     atom   49 type  2   force =    -0.00216636    0.00331233   -0.00153562
     atom   50 type  2   force =     0.00481106    0.00077456   -0.00125253
     atom   51 type  2   force =    -0.00038692   -0.00135552    0.00211862
     atom   52 type  2   force =    -0.00186535   -0.00162128   -0.00278429
     atom   53 type  2   force =    -0.00242424    0.00067182   -0.00347464
     atom   54 type  2   force =    -0.01841003   -0.05455116   -0.02742680
     atom   55 type  2   force =    -0.01940598    0.06488707   -0.03598484
     atom   56 type  2   force =     0.00223714    0.00007806    0.00000343
     atom   57 type  2   force =     0.02251113   -0.05105545   -0.02910657
     atom   58 type  2   force =    -0.00214032   -0.00587313   -0.00564219
     atom   59 type  2   force =    -0.00252466    0.00584144   -0.00725308
     atom   60 type  2   force =     0.00220468    0.00289204   -0.00111139
     atom   61 type  2   force =     0.00149511   -0.00285363   -0.00020730
     atom   62 type  2   force =     0.00211517    0.00545904   -0.00682127
     atom   63 type  2   force =    -0.00049867   -0.00257782   -0.00376055
     atom   64 type  2   force =     0.00435986    0.00092701   -0.00007173
     atom   65 type  2   force =     0.00217917   -0.00201223   -0.00204957
     atom   66 type  2   force =    -0.00045654   -0.00031743    0.00092274
     atom   67 type  2   force =     0.00023086   -0.00006243    0.00212111
     atom   68 type  2   force =     0.00212816    0.00007473    0.00253645
     atom   69 type  2   force =    -0.00227756   -0.00074047   -0.00043369
     atom   70 type  2   force =     0.02192004    0.05114828   -0.03065912
     atom   71 type  2   force =     0.01879442   -0.05204698   -0.02923795
     atom   72 type  2   force =    -0.00022595   -0.00334657   -0.00349223
     atom   73 type  2   force =     0.01912724    0.00540201    0.01052969
     atom   74 type  2   force =     0.01932772   -0.04432502    0.06640411
     atom   75 type  2   force =    -0.00913306    0.00914216   -0.01638646
     atom   76 type  2   force =    -0.02146932   -0.00485375   -0.01854877
     atom   77 type  2   force =    -0.01948857   -0.00768903    0.01101489
     atom   78 type  2   force =    -0.03171325    0.03374847    0.04447482
     atom   79 type  2   force =    -0.01995776    0.00674910    0.01014502
     atom   80 type  2   force =    -0.03086654   -0.03341094    0.04377127
     atom   81 type  2   force =    -0.02120081   -0.01462902   -0.00446706
     atom   82 type  2   force =    -0.02243346    0.00509261   -0.01796297
     atom   83 type  2   force =     0.01979309   -0.00639290    0.01067704
     atom   84 type  2   force =     0.02920773    0.03779895    0.04708109
     atom   85 type  2   force =    -0.01894969   -0.00670036    0.01004575
     atom   86 type  2   force =    -0.01800033    0.03027763    0.06107689
     atom   87 type  2   force =     0.00811733   -0.00535522   -0.02005653
     atom   88 type  2   force =     0.02022970    0.00424540   -0.01814706
     atom   89 type  3   force =    -0.01043896   -0.00970356    0.00037899
     atom   90 type  3   force =     0.01395249    0.00692499    0.01298803
     atom   91 type  3   force =     0.01252018    0.00439463   -0.01048311
     atom   92 type  3   force =     0.00972202   -0.01064929   -0.00146528
     atom   93 type  3   force =     0.01271252   -0.00255741    0.00763130
     atom   94 type  3   force =    -0.01431160    0.00489245   -0.00801230
     atom   95 type  3   force =     0.00906915    0.00907136   -0.00399214
     atom   96 type  3   force =    -0.01451632   -0.00655672    0.01171253
     atom   97 type  3   force =     0.07421560   -0.08630440    0.14904588
     atom   98 type  3   force =    -0.08427468    0.03534398   -0.02346210
     atom   99 type  3   force =    -0.08210118    0.08055838    0.12542978
     atom  100 type  3   force =    -0.07849152   -0.07816837    0.12546437
     atom  101 type  3   force =    -0.09630831   -0.03398855   -0.01287031
     atom  102 type  3   force =     0.07910969    0.08326890    0.13412543
     atom  103 type  3   force =    -0.07431386    0.07587231    0.13644932
     atom  104 type  3   force =     0.08031656   -0.03980790   -0.02138537
     atom  105 type  4   force =     0.00762321   -0.00786060    0.00442281
     atom  106 type  4   force =     0.00582965   -0.00184829    0.00493334
     atom  107 type  4   force =     0.01499389    0.00313013    0.00626431
     atom  108 type  4   force =    -0.00225277   -0.00189571    0.00384929
     atom  109 type  5   force =     0.01115039   -0.00207311   -0.00618434
     atom  110 type  5   force =     0.01334614    0.00299671   -0.00670993
     atom  111 type  5   force =    -0.02190042   -0.00034063   -0.01679615
     atom  112 type  5   force =    -0.01173799    0.00727200   -0.00582072
     atom  113 type  5   force =    -0.00251483    0.00558350    0.00329034
     atom  114 type  5   force =    -0.00197719   -0.00375829    0.00430971
     atom  115 type  5   force =     0.01449115    0.00337984    0.00001221
     atom  116 type  5   force =     0.01091594   -0.00052891    0.00218862
     atom  117 type  5   force =     0.01823488    0.00430580   -0.01575517
     atom  118 type  5   force =     0.00380803   -0.00427942    0.00302967
     atom  119 type  5   force =    -0.00341714   -0.00317065    0.00239172
     atom  120 type  5   force =    -0.01296248   -0.00112407   -0.00682745
     atom  121 type  5   force =    -0.00623920    0.00363996    0.00224652
     atom  122 type  5   force =    -0.01684809    0.00236621    0.00286945
     atom  123 type  5   force =    -0.00501767   -0.00629412    0.00291504
     atom  124 type  5   force =     0.00137796    0.00377408    0.00293368

     Total force =     0.675104     Total SCF correction =     0.001354

     BFGS Geometry Optimization

     number of scf cycles    =   1
     number of bfgs steps    =   0

     energy   new            =   -1790.8592914556 Ry

     new trust radius        =       0.1875395423 bohr
     new conv_thr            =       0.0000010000 Ry


ATOMIC_POSITIONS (crystal)
C             0.2836850162        0.9710124892        0.5170274142
C             0.0386769243        0.0314565993        0.0230796860
C             0.3920895823        0.0131307918        0.5458682431
C             0.1399700967        0.9864738078        0.0442825691
C             0.4511446466        0.9695329325        0.6497669629
C             0.2080325543        0.0270650835        0.1513183693
C             0.2126031803        0.5286888251        0.5212928581
C             0.4629611209        0.4723883094        0.0227846286
C             0.2447745624        0.6140502692        0.6079125725
C             0.4964141458        0.3879958799        0.1098888695
C             0.2499115438        0.8885124144        0.6044175430
C             0.0011377051        0.1116920488        0.1037713699
C             0.4073579730        0.8887097386        0.7243189458
C             0.1581464148        0.1115662238        0.2252381126
C             0.0883755592        0.6086876364        0.7272739026
C             0.3412837897        0.3913380119        0.2265837793
C             0.0477188914        0.5255180537        0.6510174033
C             0.2984493575        0.4740730104        0.1523067302
C             0.1066596954        0.4828999022        0.5495680509
C             0.3564045419        0.5170149781        0.0500810973
C             0.4343670359        0.0993681047        0.4676862575
C             0.1815023245        0.8996612567        0.9662073142
C             0.0672613358        0.3944702463        0.4708574667
C             0.3155753172        0.6042185681        0.9693509883
C             0.7885187010        0.9697841098        0.5226494516
C             0.5339446684        0.0301324224        0.0170986482
C             0.8903725688        0.0130293548        0.5445749433
C             0.6417121159        0.9864419752        0.0456902250
C             0.9574989480        0.9715787394        0.6525484480
C             0.7017329402        0.0287720389        0.1496460449
C             0.7126329368        0.5287748263        0.5216135401
C             0.9583123179        0.4710762965        0.0286130363
C             0.7447137657        0.6139072131        0.6077718481
C             0.9966841892        0.3892063876        0.1082144380
C             0.7495324274        0.8895957176        0.6028618908
C             0.5014402182        0.1130637747        0.1056482394
C             0.9071623315        0.8884610860        0.7282038880
C             0.6604281004        0.1092691008        0.2277604679
C             0.5892696201        0.6092181758        0.7245752812
C             0.8423776321        0.3900729301        0.2275617143
C             0.5477123513        0.5257847685        0.6509181660
C             0.7923670890        0.4760960221        0.1542455903
C             0.6066818465        0.4828373218        0.5494310283
C             0.8581175722        0.5168842804        0.0488414393
C             0.9326131024        0.0994253996        0.4663127657
C             0.6818502698        0.8996978175        0.9659004324
C             0.5667612642        0.3944616767        0.4714100029
C             0.8166470440        0.6042547763        0.9688095007
H             0.0085478904        0.5005369626        0.9504689079
H             0.3228434069        0.6505387292        0.5925704885
H             0.0749536133        0.3527937224        0.0951371199
H             0.1700724574        0.8550544925        0.5884165950
H             0.4222161609        0.1477603877        0.0897070383
H             0.4525652668        0.8528679366        0.8073483813
H             0.2053841010        0.1458448079        0.3069435990
H             0.0438236683        0.6429472986        0.8066081765
H             0.2973032802        0.3553686480        0.3075518645
H             0.4685761432        0.4929828303        0.6732113987
H             0.2188383696        0.5054478304        0.1748904299
H             0.7372162498        0.9996972032        0.4430557579
H             0.9866010715        0.0025714196        0.9434883231
H             0.5321451098        0.9990356721        0.6731686703
H             0.7823153735        0.9985560740        0.1724083128
H             0.8228254210        0.6505451708        0.5926313057
H             0.5750582910        0.3527659730        0.0949224370
H             0.6701355461        0.8551095871        0.5886075257
H             0.9223337571        0.1477293621        0.0899952476
H             0.9534624312        0.8551761578        0.8088916401
H             0.7061432179        0.1430717115        0.3087746627
H             0.5446278126        0.6451052742        0.8050289005
H             0.7971458835        0.3553267511        0.3075450983
H             0.9686591655        0.4930895903        0.6733221324
H             0.1445942436        0.9703602623        0.4060313323
H             0.2387021013        0.0606950429        0.3561321469
H             0.3491321727        0.0267133027        0.2602250147
H             0.3463871343        0.9340489046        0.1326086445
H             0.3489786618        0.5334420997        0.4132623226
H             0.2571977358        0.4380410442        0.3626626777
H             0.5997779924        0.4691691839        0.9151755197
H             0.5067439052        0.5629982181        0.8634654410
H             0.0975466960        0.9695398495        0.7623219237
H             0.0969738853        0.0628021887        0.6345248164
H             0.3945075573        0.0334078673        0.9069569213
H             0.4874260634        0.9416561974        0.8550779137
H             0.8490025561        0.5334818757        0.4132154067
H             0.7577925630        0.4378953836        0.3635167681
H             0.6541176863        0.4776337149        0.2611269877
H             0.6550460140        0.5719133898        0.1357283349
N             0.3079956285        0.8508429755        0.7048475197
N             0.0613315771        0.1491496158        0.2067209489
N             0.1870619677        0.6504956954        0.7052980668
N             0.4392200161        0.3504780135        0.2079655308
N             0.8089820865        0.8511449364        0.7052210504
N             0.5601158909        0.1490637308        0.2056393263
N             0.6869230211        0.6506933109        0.7056323845
N             0.9382067177        0.3506509451        0.2086442545
N             0.2215081588        0.0008392011        0.4253786151
N             0.3048999059        0.9941494626        0.1820475833
N             0.2737614432        0.4999330003        0.4307882666
N             0.5241522194        0.5018029895        0.9321760480
N             0.0540846287        0.0030918111        0.6839531143
N             0.4710832676        1.0016795334        0.9250071365
N             0.7741022949        0.4997339902        0.4313568283
N             0.6966875673        0.5102139144        0.1844705455
Ni            0.2473287234        0.7511538500        0.8365537970
Ni            0.5002233071        0.2479209004        0.3394320920
Ni            0.7476423415        0.7516182641        0.8366486434
Ni            0.9998802815        0.2479188965        0.3393762577
O             0.1232440342        0.3476014007        0.3825544755
O             0.3717664552        0.6511036262        0.8809464048
O             0.3766875348        0.1474926066        0.3763129138
O             0.1245958482        0.8526592788        0.8759612037
O             0.4729656686        0.3563959312        0.4831634692
O             0.2210573747        0.6412561933        0.9800989720
O             0.0294532078        0.1353008155        0.4810786289
O             0.2771499620        0.8627356510        0.9795117252
O             0.6235358448        0.3478709418        0.3820615291
O             0.8713719775        0.6507961728        0.8814480431
O             0.8774876447        0.1473730239        0.3773011856
O             0.6245430901        0.8523045023        0.8759093518
O             0.9728070929        0.3563138067        0.4831097071
O             0.7204267589        0.6415149843        0.9800247911
O             0.5286304085        0.1348920416        0.4812281391
O             0.7767470586        0.8629174739        0.9795500996



     Writing output data file ./QE_relaxation_results/pbesol_relax/NiPyC2_relax_sc211_meta_functionalized_NH2_pbesol_relax.save/
     NEW-OLD atomic charge density approx. for the potential

     Check: negative core charge=   -0.000145

     total cpu time spent up to now is     1569.9 secs

     Self-consistent Calculation

     iteration #  1     ecut=   100.00 Ry     beta= 0.70
     Davidson diagonalization with overlap
     c_bands:  1 eigenvalues not converged
     ethr =  1.00E-06,  avg # of iterations = 17.5

     total cpu time spent up to now is     1906.2 secs

     total energy              =   -1790.96251518 Ry
     Harris-Foulkes estimate   =   -1791.03404550 Ry
     estimated scf accuracy    <       0.18288504 Ry

     total magnetization       =     8.00 Bohr mag/cell
     absolute magnetization    =     8.29 Bohr mag/cell

     iteration #  2     ecut=   100.00 Ry     beta= 0.70
     Davidson diagonalization with overlap
     ethr =  4.08E-05,  avg # of iterations =  2.0

     total cpu time spent up to now is     1970.6 secs

     total energy              =   -1790.95378956 Ry
     Harris-Foulkes estimate   =   -1790.98188710 Ry
     estimated scf accuracy    <       0.09814280 Ry

     total magnetization       =     8.00 Bohr mag/cell
     absolute magnetization    =     8.29 Bohr mag/cell

     iteration #  3     ecut=   100.00 Ry     beta= 0.70
     Davidson diagonalization with overlap
     ethr =  2.19E-05,  avg # of iterations =  2.0

     total cpu time spent up to now is     2034.6 secs

     total energy              =   -1790.95648052 Ry
     Harris-Foulkes estimate   =   -1790.98354478 Ry
     estimated scf accuracy    <       0.22636489 Ry

     total magnetization       =     8.00 Bohr mag/cell
     absolute magnetization    =     8.27 Bohr mag/cell

     iteration #  4     ecut=   100.00 Ry     beta= 0.70
     Davidson diagonalization with overlap
     ethr =  2.19E-05,  avg # of iterations =  1.5

     total cpu time spent up to now is     2095.8 secs

     total energy              =   -1790.96661564 Ry
     Harris-Foulkes estimate   =   -1790.96832183 Ry
     estimated scf accuracy    <       0.01286056 Ry

     total magnetization       =     8.00 Bohr mag/cell
     absolute magnetization    =     8.28 Bohr mag/cell

     iteration #  5     ecut=   100.00 Ry     beta= 0.70
     Davidson diagonalization with overlap
     ethr =  2.87E-06,  avg # of iterations = 10.5

     total cpu time spent up to now is     2166.1 secs

     total energy              =   -1790.96708349 Ry
     Harris-Foulkes estimate   =   -1790.96838096 Ry
     estimated scf accuracy    <       0.01694646 Ry

     total magnetization       =     8.00 Bohr mag/cell
     absolute magnetization    =     8.28 Bohr mag/cell

     iteration #  6     ecut=   100.00 Ry     beta= 0.70
     Davidson diagonalization with overlap
     ethr =  2.87E-06,  avg # of iterations =  2.5

     total cpu time spent up to now is     2228.1 secs

     total energy              =   -1790.96743752 Ry
     Harris-Foulkes estimate   =   -1790.96765899 Ry
     estimated scf accuracy    <       0.00125639 Ry

     total magnetization       =     8.00 Bohr mag/cell
     absolute magnetization    =     8.27 Bohr mag/cell

     iteration #  7     ecut=   100.00 Ry     beta= 0.70
     Davidson diagonalization with overlap
     ethr =  2.80E-07,  avg # of iterations =  4.5

     total cpu time spent up to now is     2300.5 secs

     total energy              =   -1790.96747540 Ry
     Harris-Foulkes estimate   =   -1790.96753237 Ry
     estimated scf accuracy    <       0.00037940 Ry

     total magnetization       =     8.00 Bohr mag/cell
     absolute magnetization    =     8.27 Bohr mag/cell

     iteration #  8     ecut=   100.00 Ry     beta= 0.70
     Davidson diagonalization with overlap
     ethr =  8.47E-08,  avg # of iterations =  2.0

     total cpu time spent up to now is     2365.0 secs

     total energy              =   -1790.96747446 Ry
     Harris-Foulkes estimate   =   -1790.96751560 Ry
     estimated scf accuracy    <       0.00050273 Ry

     total magnetization       =     8.00 Bohr mag/cell
     absolute magnetization    =     8.27 Bohr mag/cell

     iteration #  9     ecut=   100.00 Ry     beta= 0.70
     Davidson diagonalization with overlap
     ethr =  8.47E-08,  avg # of iterations =  1.0

     total cpu time spent up to now is     2431.2 secs

     total energy              =   -1790.96749416 Ry
     Harris-Foulkes estimate   =   -1790.96750923 Ry
     estimated scf accuracy    <       0.00025993 Ry

     total magnetization       =     8.00 Bohr mag/cell
     absolute magnetization    =     8.27 Bohr mag/cell

     iteration # 10     ecut=   100.00 Ry     beta= 0.70
     Davidson diagonalization with overlap
     ethr =  5.80E-08,  avg # of iterations =  3.0

     total cpu time spent up to now is     2495.4 secs

     total energy              =   -1790.96750531 Ry
     Harris-Foulkes estimate   =   -1790.96750480 Ry
     estimated scf accuracy    <       0.00005330 Ry

     total magnetization       =     8.00 Bohr mag/cell
     absolute magnetization    =     8.27 Bohr mag/cell

     iteration # 11     ecut=   100.00 Ry     beta= 0.70
     Davidson diagonalization with overlap
     ethr =  1.19E-08,  avg # of iterations =  4.0

     total cpu time spent up to now is     2561.3 secs

     total energy              =   -1790.96750702 Ry
     Harris-Foulkes estimate   =   -1790.96750728 Ry
     estimated scf accuracy    <       0.00002647 Ry

     total magnetization       =     8.00 Bohr mag/cell
     absolute magnetization    =     8.27 Bohr mag/cell

     iteration # 12     ecut=   100.00 Ry     beta= 0.70
     Davidson diagonalization with overlap
     ethr =  5.91E-09,  avg # of iterations =  3.0

     total cpu time spent up to now is     2625.7 secs

     total energy              =   -1790.96750712 Ry
     Harris-Foulkes estimate   =   -1790.96750884 Ry
     estimated scf accuracy    <       0.00002709 Ry

     total magnetization       =     8.00 Bohr mag/cell
     absolute magnetization    =     8.27 Bohr mag/cell

     iteration # 13     ecut=   100.00 Ry     beta= 0.70
     Davidson diagonalization with overlap
     ethr =  5.91E-09,  avg # of iterations =  1.0

     total cpu time spent up to now is     2686.7 secs

     total energy              =   -1790.96750789 Ry
     Harris-Foulkes estimate   =   -1790.96750871 Ry
     estimated scf accuracy    <       0.00001378 Ry

     total magnetization       =     8.00 Bohr mag/cell
     absolute magnetization    =     8.27 Bohr mag/cell

     iteration # 14     ecut=   100.00 Ry     beta= 0.70
     Davidson diagonalization with overlap
     ethr =  3.07E-09,  avg # of iterations =  3.0

     total cpu time spent up to now is     2750.1 secs

     total energy              =   -1790.96750821 Ry
     Harris-Foulkes estimate   =   -1790.96750861 Ry
     estimated scf accuracy    <       0.00000441 Ry

     total magnetization       =     8.00 Bohr mag/cell
     absolute magnetization    =     8.27 Bohr mag/cell

     iteration # 15     ecut=   100.00 Ry     beta= 0.70
     Davidson diagonalization with overlap
     ethr =  9.85E-10,  avg # of iterations =  3.0

     total cpu time spent up to now is     2815.0 secs

     total energy              =   -1790.96750842 Ry
     Harris-Foulkes estimate   =   -1790.96750882 Ry
     estimated scf accuracy    <       0.00000683 Ry

     total magnetization       =     8.00 Bohr mag/cell
     absolute magnetization    =     8.27 Bohr mag/cell

     iteration # 16     ecut=   100.00 Ry     beta= 0.70
     Davidson diagonalization with overlap
     ethr =  9.85E-10,  avg # of iterations =  2.0

     total cpu time spent up to now is     2877.3 secs

     total energy              =   -1790.96750855 Ry
     Harris-Foulkes estimate   =   -1790.96750896 Ry
     estimated scf accuracy    <       0.00000493 Ry

     total magnetization       =     8.00 Bohr mag/cell
     absolute magnetization    =     8.27 Bohr mag/cell

     iteration # 17     ecut=   100.00 Ry     beta= 0.70
     Davidson diagonalization with overlap
     ethr =  9.85E-10,  avg # of iterations =  3.0
 
     Magnetic moment per site:
     atom:    1    charge:    0.8381    magn:    0.0001    constr:    0.0000
     atom:    2    charge:    0.8470    magn:    0.0031    constr:    0.0000
     atom:    3    charge:    0.8394    magn:    0.0075    constr:    0.0000
     atom:    4    charge:    0.8408    magn:    0.0069    constr:    0.0000
     atom:    5    charge:    0.8484    magn:    0.0031    constr:    0.0000
     atom:    6    charge:    0.8311    magn:    0.0009    constr:    0.0000
     atom:    7    charge:    0.8363    magn:    0.0001    constr:    0.0000
     atom:    8    charge:    0.8352    magn:    0.0000    constr:    0.0000
     atom:    9    charge:    0.8401    magn:    0.0098    constr:    0.0000
     atom:   10    charge:    0.8397    magn:    0.0098    constr:    0.0000
     atom:   11    charge:    0.8411    magn:    0.0099    constr:    0.0000
     atom:   12    charge:    0.8367    magn:    0.0074    constr:    0.0000
     atom:   13    charge:    0.8464    magn:    0.0071    constr:    0.0000
     atom:   14    charge:    0.8450    magn:    0.0085    constr:    0.0000
     atom:   15    charge:    0.8388    magn:    0.0076    constr:    0.0000
     atom:   16    charge:    0.8451    magn:    0.0070    constr:    0.0000
     atom:   17    charge:    0.8465    magn:    0.0032    constr:    0.0000
     atom:   18    charge:    0.8485    magn:    0.0028    constr:    0.0000
     atom:   19    charge:    0.8407    magn:    0.0080    constr:    0.0000
     atom:   20    charge:    0.8380    magn:    0.0080    constr:    0.0000
     atom:   21    charge:    0.8233    magn:   -0.0011    constr:    0.0000
     atom:   22    charge:    0.8238    magn:   -0.0007    constr:    0.0000
     atom:   23    charge:    0.8241    magn:   -0.0014    constr:    0.0000
     atom:   24    charge:    0.8250    magn:   -0.0017    constr:    0.0000
     atom:   25    charge:    0.8459    magn:    0.0034    constr:    0.0000
     atom:   26    charge:    0.8366    magn:    0.0003    constr:    0.0000
     atom:   27    charge:    0.8395    magn:    0.0079    constr:    0.0000
     atom:   28    charge:    0.8382    magn:    0.0081    constr:    0.0000
     atom:   29    charge:    0.8276    magn:    0.0004    constr:    0.0000
     atom:   30    charge:    0.8475    magn:    0.0033    constr:    0.0000
     atom:   31    charge:    0.8377    magn:   -0.0001    constr:    0.0000
     atom:   32    charge:    0.8469    magn:    0.0031    constr:    0.0000
     atom:   33    charge:    0.8400    magn:    0.0099    constr:    0.0000
     atom:   34    charge:    0.8363    magn:    0.0073    constr:    0.0000
     atom:   35    charge:    0.8370    magn:    0.0075    constr:    0.0000
     atom:   36    charge:    0.8408    magn:    0.0097    constr:    0.0000
     atom:   37    charge:    0.8399    magn:    0.0095    constr:    0.0000
     atom:   38    charge:    0.8386    magn:    0.0077    constr:    0.0000
     atom:   39    charge:    0.8454    magn:    0.0070    constr:    0.0000
     atom:   40    charge:    0.8444    magn:    0.0085    constr:    0.0000
     atom:   41    charge:    0.8488    magn:    0.0029    constr:    0.0000
     atom:   42    charge:    0.8299    magn:    0.0008    constr:    0.0000
     atom:   43    charge:    0.8410    magn:    0.0076    constr:    0.0000
     atom:   44    charge:    0.8398    magn:    0.0075    constr:    0.0000
     atom:   45    charge:    0.8234    magn:   -0.0014    constr:    0.0000
     atom:   46    charge:    0.8246    magn:   -0.0017    constr:    0.0000
     atom:   47    charge:    0.8237    magn:   -0.0009    constr:    0.0000
     atom:   48    charge:    0.8244    magn:   -0.0015    constr:    0.0000
     atom:   49    charge:    0.4234    magn:   -0.0013    constr:    0.0000
     atom:   50    charge:    0.4294    magn:   -0.0009    constr:    0.0000
     atom:   51    charge:    0.4307    magn:   -0.0014    constr:    0.0000
     atom:   52    charge:    0.4294    magn:   -0.0009    constr:    0.0000
     atom:   53    charge:    0.4302    magn:   -0.0008    constr:    0.0000
     atom:   54    charge:    0.4261    magn:   -0.0011    constr:    0.0000
     atom:   55    charge:    0.4284    magn:   -0.0005    constr:    0.0000
     atom:   56    charge:    0.4290    magn:   -0.0013    constr:    0.0000
     atom:   57    charge:    0.4287    magn:   -0.0011    constr:    0.0000
     atom:   58    charge:    0.4195    magn:   -0.0011    constr:    0.0000
     atom:   59    charge:    0.4196    magn:   -0.0011    constr:    0.0000
     atom:   60    charge:    0.4234    magn:   -0.0012    constr:    0.0000
     atom:   61    charge:    0.4234    magn:   -0.0012    constr:    0.0000
     atom:   62    charge:    0.4189    magn:   -0.0011    constr:    0.0000
     atom:   63    charge:    0.4215    magn:   -0.0012    constr:    0.0000
     atom:   64    charge:    0.4282    magn:   -0.0010    constr:    0.0000
     atom:   65    charge:    0.4299    magn:   -0.0009    constr:    0.0000
     atom:   66    charge:    0.4315    magn:   -0.0014    constr:    0.0000
     atom:   67    charge:    0.4300    magn:   -0.0014    constr:    0.0000
     atom:   68    charge:    0.4293    magn:   -0.0006    constr:    0.0000
     atom:   69    charge:    0.4291    magn:   -0.0012    constr:    0.0000
     atom:   70    charge:    0.4283    magn:   -0.0011    constr:    0.0000
     atom:   71    charge:    0.4307    magn:   -0.0005    constr:    0.0000
     atom:   72    charge:    0.4220    magn:   -0.0012    constr:    0.0000
     atom:   73    charge:    0.3981    magn:   -0.0004    constr:    0.0000
     atom:   74    charge:    0.3855    magn:   -0.0004    constr:    0.0000
     atom:   75    charge:    0.4013    magn:   -0.0003    constr:    0.0000
     atom:   76    charge:    0.3967    magn:   -0.0002    constr:    0.0000
     atom:   77    charge:    0.3990    magn:   -0.0004    constr:    0.0000
     atom:   78    charge:    0.3837    magn:   -0.0004    constr:    0.0000
     atom:   79    charge:    0.3987    magn:   -0.0004    constr:    0.0000
     atom:   80    charge:    0.3835    magn:   -0.0004    constr:    0.0000
     atom:   81    charge:    0.3996    magn:   -0.0003    constr:    0.0000
     atom:   82    charge:    0.3943    magn:   -0.0003    constr:    0.0000
     atom:   83    charge:    0.3989    magn:   -0.0004    constr:    0.0000
     atom:   84    charge:    0.3827    magn:   -0.0004    constr:    0.0000
     atom:   85    charge:    0.3993    magn:   -0.0004    constr:    0.0000
     atom:   86    charge:    0.3870    magn:   -0.0004    constr:    0.0000
     atom:   87    charge:    0.4043    magn:   -0.0003    constr:    0.0000
     atom:   88    charge:    0.3957    magn:   -0.0003    constr:    0.0000
     atom:   89    charge:    1.3367    magn:    0.0070    constr:    0.0000
     atom:   90    charge:    1.3361    magn:    0.0072    constr:    0.0000
     atom:   91    charge:    1.3322    magn:    0.0069    constr:    0.0000
     atom:   92    charge:    1.3357    magn:    0.0071    constr:    0.0000
     atom:   93    charge:    1.3318    magn:    0.0070    constr:    0.0000
     atom:   94    charge:    1.3324    magn:    0.0072    constr:    0.0000
     atom:   95    charge:    1.3353    magn:    0.0068    constr:    0.0000
     atom:   96    charge:    1.3350    magn:    0.0073    constr:    0.0000
     atom:   97    charge:    1.3369    magn:    0.0117    constr:    0.0000
     atom:   98    charge:    1.3490    magn:    0.0127    constr:    0.0000
     atom:   99    charge:    1.3360    magn:    0.0118    constr:    0.0000
     atom:  100    charge:    1.3383    magn:    0.0118    constr:    0.0000
     atom:  101    charge:    1.3453    magn:    0.0132    constr:    0.0000
     atom:  102    charge:    1.3375    magn:    0.0117    constr:    0.0000
     atom:  103    charge:    1.3374    magn:    0.0120    constr:    0.0000
     atom:  104    charge:    1.3491    magn:    0.0128    constr:    0.0000
     atom:  105    charge:    7.4405    magn:    1.1709    constr:    0.0000
     atom:  106    charge:    7.4405    magn:    1.1737    constr:    0.0000
     atom:  107    charge:    7.4377    magn:    1.1693    constr:    0.0000
     atom:  108    charge:    7.4401    magn:    1.1630    constr:    0.0000
     atom:  109    charge:    3.2654    magn:    0.0515    constr:    0.0000
     atom:  110    charge:    3.2635    magn:    0.0536    constr:    0.0000
     atom:  111    charge:    3.2649    magn:    0.0473    constr:    0.0000
     atom:  112    charge:    3.2643    magn:    0.0500    constr:    0.0000
     atom:  113    charge:    3.2655    magn:    0.0520    constr:    0.0000
     atom:  114    charge:    3.2628    magn:    0.0588    constr:    0.0000
     atom:  115    charge:    3.2657    magn:    0.0529    constr:    0.0000
     atom:  116    charge:    3.2684    magn:    0.0468    constr:    0.0000
     atom:  117    charge:    3.2653    magn:    0.0467    constr:    0.0000
     atom:  118    charge:    3.2637    magn:    0.0578    constr:    0.0000
     atom:  119    charge:    3.2658    magn:    0.0567    constr:    0.0000
     atom:  120    charge:    3.2613    magn:    0.0540    constr:    0.0000
     atom:  121    charge:    3.2609    magn:    0.0573    constr:    0.0000
     atom:  122    charge:    3.2642    magn:    0.0529    constr:    0.0000
     atom:  123    charge:    3.2688    magn:    0.0535    constr:    0.0000
     atom:  124    charge:    3.2601    magn:    0.0603    constr:    0.0000

     total cpu time spent up to now is     2939.6 secs

     End of self-consistent calculation

 ------ SPIN UP ------------


          k = 0.0000 0.0000 0.0000 ( 91663 PWs)   bands (ev):

   -21.4973 -21.4873 -21.4463 -21.4243 -21.3699 -21.3351 -21.3181 -21.2981
   -19.1906 -19.1065 -18.9522 -18.8815 -18.8408 -18.8121 -18.7573 -18.6442
   -18.5535 -18.5334 -18.5265 -18.4766 -18.4577 -18.4356 -18.4088 -18.3895
   -18.2633 -18.2250 -18.1499 -18.0336 -18.0034 -17.9709 -17.9331 -17.7895
   -14.5794 -14.5613 -14.4978 -14.4613 -14.4025 -14.3234 -14.3089 -14.2796
   -13.6217 -13.5850 -13.3330 -13.1843 -13.1062 -12.9741 -12.9182 -12.9101
   -11.6207 -11.5494 -11.3054 -11.2131 -11.0986 -10.9971 -10.9667 -10.9442
   -10.6757 -10.6378 -10.5532 -10.4408 -10.3729 -10.3516 -10.2977 -10.2197
    -9.4335  -9.2825  -9.1043  -9.0346  -8.8591  -8.6381  -8.4811  -8.4462
    -8.3461  -8.3372  -8.3210  -8.2460  -8.2365  -8.2044  -8.1730  -8.0191
    -7.9236  -7.8217  -7.5214  -7.4501  -7.3566  -7.2955  -7.2795  -7.1818
    -7.1465  -7.0153  -6.9261  -6.8027  -6.6962  -6.6856  -6.4470  -6.4105
    -6.2018  -6.1274  -6.0948  -6.0613  -6.0343  -5.9721  -5.9361  -5.9068
    -5.8912  -5.8718  -5.8342  -5.8155  -5.7732  -5.7407  -5.7032  -5.6597
    -5.6513  -5.6284  -5.5851  -5.5346  -5.4703  -5.4032  -5.3969  -5.3594
    -5.3484  -5.3179  -5.3084  -5.2678  -5.2462  -5.2144  -5.1955  -5.1319
[...]
     atom    8 type  1   force =    -0.00003248    0.00005012    0.00006937
     atom    9 type  1   force =    -0.00004882   -0.00012696   -0.00015891
     atom   10 type  1   force =     0.00000025    0.00018389   -0.00008639
     atom   11 type  1   force =     0.00008121   -0.00001282    0.00021259
     atom   12 type  1   force =    -0.00012756   -0.00009132    0.00040688
     atom   13 type  1   force =     0.00063469   -0.00038308   -0.00025653
     atom   14 type  1   force =     0.00003862    0.00049184    0.00028404
     atom   15 type  1   force =    -0.00025432   -0.00023392   -0.00030324
     atom   16 type  1   force =     0.00006379   -0.00000926   -0.00015915
     atom   17 type  1   force =    -0.00016393   -0.00013532    0.00007781
     atom   18 type  1   force =     0.00022857    0.00030384    0.00024910
     atom   19 type  1   force =     0.00011244    0.00031999   -0.00004304
     atom   20 type  1   force =     0.00017697    0.00002179    0.00021510
     atom   21 type  1   force =     0.00016097   -0.00066457    0.00003790
     atom   22 type  1   force =     0.00002254   -0.00048694   -0.00046865
     atom   23 type  1   force =     0.00032311    0.00022027    0.00017875
     atom   24 type  1   force =    -0.00038855    0.00024080    0.00017222
     atom   25 type  1   force =     0.00005475    0.00006759   -0.00016595
     atom   26 type  1   force =     0.00035337    0.00028637    0.00033441
     atom   27 type  1   force =     0.00011146   -0.00047469    0.00021594
     atom   28 type  1   force =     0.00010938   -0.00013446    0.00013895
     atom   29 type  1   force =     0.00025394    0.00011457   -0.00035137
     atom   30 type  1   force =     0.00000008   -0.00023815   -0.00015417
     atom   31 type  1   force =    -0.00048343   -0.00020882    0.00053938
     atom   32 type  1   force =    -0.00018682   -0.00009657   -0.00022499
     atom   33 type  1   force =     0.00029478    0.00039556    0.00030504
     atom   34 type  1   force =     0.00034041   -0.00041808    0.00032322
     atom   35 type  1   force =    -0.00045303   -0.00044262   -0.00001230
     atom   36 type  1   force =     0.00035398   -0.00027769   -0.00010407
     atom   37 type  1   force =    -0.00010484   -0.00006892    0.00035209
     atom   38 type  1   force =    -0.00016313    0.00029724    0.00006369
     atom   39 type  1   force =    -0.00000798    0.00028552   -0.00042983
     atom   40 type  1   force =    -0.00008648   -0.00014000    0.00010817
     atom   41 type  1   force =    -0.00020265   -0.00041459   -0.00026486
     atom   42 type  1   force =    -0.00029512    0.00044206   -0.00024814
     atom   43 type  1   force =    -0.00022913    0.00024978   -0.00011296
     atom   44 type  1   force =     0.00033405   -0.00022041    0.00016304
     atom   45 type  1   force =     0.00046167   -0.00011943    0.00017263
     atom   46 type  1   force =     0.00019095    0.00042610    0.00002268
     atom   47 type  1   force =     0.00028918   -0.00015452    0.00025670
     atom   48 type  1   force =    -0.00004898   -0.00001564   -0.00010453
     atom   49 type  2   force =     0.00002074   -0.00010527   -0.00015823
     atom   50 type  2   force =    -0.00051689    0.00006966   -0.00028711
     atom   51 type  2   force =    -0.00025054    0.00005182   -0.00003585
     atom   52 type  2   force =    -0.00008482   -0.00008576   -0.00043614
     atom   53 type  2   force =     0.00025055   -0.00006541    0.00005058
     atom   54 type  2   force =     0.00033810    0.00039876    0.00001175
     atom   55 type  2   force =    -0.00024513    0.00004750    0.00018369
     atom   56 type  2   force =     0.00032155   -0.00024354   -0.00027315
     atom   57 type  2   force =    -0.00015095    0.00025538   -0.00020761
     atom   58 type  2   force =     0.00030016    0.00023994    0.00000411
     atom   59 type  2   force =    -0.00018582   -0.00021554   -0.00005914
     atom   60 type  2   force =    -0.00013334   -0.00038184   -0.00012619
     atom   61 type  2   force =     0.00004807    0.00000672   -0.00018970
     atom   62 type  2   force =     0.00037213   -0.00030356   -0.00017530
     atom   63 type  2   force =    -0.00016157    0.00017197    0.00043137
     atom   64 type  2   force =     0.00065146   -0.00033467   -0.00044057
     atom   65 type  2   force =    -0.00010381   -0.00034776    0.00039223
     atom   66 type  2   force =    -0.00024483    0.00000136   -0.00018928
     atom   67 type  2   force =     0.00019620    0.00019450   -0.00010637
     atom   68 type  2   force =    -0.00007240    0.00053323   -0.00013669
     atom   69 type  2   force =    -0.00003425   -0.00008848   -0.00034575
     atom   70 type  2   force =    -0.00026894    0.00001935   -0.00011733
     atom   71 type  2   force =     0.00016072   -0.00010261   -0.00013913
     atom   72 type  2   force =    -0.00016875   -0.00050685    0.00059163
     atom   73 type  2   force =    -0.00089085   -0.00025419    0.00017895
     atom   74 type  2   force =     0.00068046    0.00007421    0.00009661
     atom   75 type  2   force =     0.00028589    0.00049133    0.00020326
     atom   76 type  2   force =     0.00007354   -0.00074725   -0.00013149
     atom   77 type  2   force =    -0.00002611   -0.00004326   -0.00021751
     atom   78 type  2   force =    -0.00016078   -0.00009758    0.00023898
     atom   79 type  2   force =    -0.00032918    0.00029889    0.00029554
     atom   80 type  2   force =    -0.00015674    0.00084822   -0.00009860
     atom   81 type  2   force =     0.00040241   -0.00007090   -0.00009609
     atom   82 type  2   force =     0.00013321    0.00003072   -0.00009486
     atom   83 type  2   force =     0.00073187   -0.00014813   -0.00030499
     atom   84 type  2   force =    -0.00012262    0.00007925    0.00012787
     atom   85 type  2   force =     0.00008093   -0.00028701   -0.00001722
     atom   86 type  2   force =    -0.00012908    0.00034865    0.00014350
     atom   87 type  2   force =     0.00011655    0.00002618    0.00011782
     atom   88 type  2   force =     0.00000710    0.00085596    0.00042881
     atom   89 type  3   force =    -0.00045632    0.00027160    0.00007862
     atom   90 type  3   force =    -0.00033484    0.00020717    0.00049445
     atom   91 type  3   force =    -0.00016598    0.00010418    0.00000358
     atom   92 type  3   force =     0.00025004    0.00005323    0.00014243
     atom   93 type  3   force =    -0.00004395   -0.00000965   -0.00010382
     atom   94 type  3   force =     0.00012977    0.00002832    0.00054133
     atom   95 type  3   force =    -0.00020131   -0.00074234   -0.00008031
     atom   96 type  3   force =    -0.00045450   -0.00015286    0.00027627
     atom   97 type  3   force =     0.00000313    0.00018104   -0.00051289
     atom   98 type  3   force =     0.00039505   -0.00015546   -0.00028036
     atom   99 type  3   force =    -0.00005101    0.00013710   -0.00067472
     atom  100 type  3   force =     0.00041810    0.00025740   -0.00024560
     atom  101 type  3   force =     0.00032823   -0.00020913    0.00020673
     atom  102 type  3   force =     0.00042554    0.00039162    0.00040157
     atom  103 type  3   force =     0.00003956   -0.00037699   -0.00062890
     atom  104 type  3   force =    -0.00039354   -0.00070689   -0.00024683
     atom  105 type  4   force =     0.00018753    0.00091412    0.00032370
     atom  106 type  4   force =     0.00038798   -0.00056362   -0.00015521
     atom  107 type  4   force =    -0.00064176   -0.00000001   -0.00014533
     atom  108 type  4   force =    -0.00032741   -0.00050123   -0.00020273
     atom  109 type  5   force =    -0.00031324    0.00022969    0.00028932
     atom  110 type  5   force =    -0.00047282    0.00025036   -0.00024033
     atom  111 type  5   force =     0.00007694    0.00021875   -0.00011919
     atom  112 type  5   force =    -0.00045746   -0.00035059   -0.00022780
     atom  113 type  5   force =    -0.00048573   -0.00004836    0.00020575
     atom  114 type  5   force =     0.00022444   -0.00028227    0.00022742
     atom  115 type  5   force =    -0.00022563    0.00035408   -0.00035243
     atom  116 type  5   force =    -0.00040004    0.00053194    0.00029300
     atom  117 type  5   force =    -0.00007921    0.00058565    0.00049993
     atom  118 type  5   force =     0.00032534   -0.00003899    0.00025599
     atom  119 type  5   force =    -0.00010428    0.00003496   -0.00001360
     atom  120 type  5   force =    -0.00012657   -0.00002055   -0.00048078
     atom  121 type  5   force =     0.00012815    0.00035267    0.00006928
     atom  122 type  5   force =     0.00003337   -0.00012381    0.00007589
     atom  123 type  5   force =    -0.00000266   -0.00017849   -0.00040954
     atom  124 type  5   force =    -0.00000205   -0.00010732    0.00027537

     Total force =     0.005656     Total SCF correction =     0.000198

     bfgs converged in  99 scf cycles and  98 bfgs steps
     (criteria: energy <  1.0E-04 Ry, force <  1.0E-03 Ry/Bohr)

     End of BFGS Geometry Optimization

     Final energy   =   -1791.3585110981 Ry
Begin final coordinates

ATOMIC_POSITIONS (crystal)
C             0.2810538451        0.9775939940        0.5371645666
C             0.0265400893        0.0133335216        0.0374273979
C             0.3924994751        0.0042119489        0.5398857820
C             0.1344467716        0.9852595235        0.0433327186
C             0.4581036928        0.9440738012        0.6226790304
C             0.2020448101        0.0431845293        0.1321162603
C             0.2164989007        0.5306616607        0.5335547698
C             0.4613073322        0.4643028875        0.0236109001
C             0.2483872070        0.6156377007        0.6175543904
C             0.4969908408        0.3793081353        0.1058927889
C             0.2431836526        0.8951876917        0.6201549577
C            -0.0123000970        0.0950368432        0.1165893617
C             0.4143539921        0.8649242423        0.7018983843
C             0.1575761310        0.1300800353        0.2017622031
C             0.0865935572        0.6094357440        0.7245198796
C             0.3315335008        0.3686655804        0.2012910101
C             0.0497574739        0.5258975951        0.6447053033
C             0.2908156300        0.4531500526        0.1261369428
C             0.1133198479        0.4838394066        0.5477144100
C             0.3553341549        0.5050059356        0.0375498604
C             0.4348252387        0.0938428420        0.4641456626
C             0.1773461609        0.8980936442        0.9652406590
C             0.0755446052        0.3948619586        0.4658808413
C             0.3159635351        0.5985431759        0.9648725755
C             0.7831859424        0.9774881104        0.5239904732
C             0.5460457054        0.0405250655        0.0175364244
C             0.8823165986        0.0249253262        0.5488759551
C             0.6463426204        0.9897155301        0.0444679794
C             0.9439801111        0.9834234638        0.6564549458
C             0.7048872179        0.0260906592        0.1523108977
C             0.7180553397        0.5083318848        0.5519846343
C             0.9670316709        0.4844798664        0.0322360143
C             0.7561172574        0.5946547658        0.6310360056
C             1.0050217776        0.3997932950        0.1093231433
C             0.7479274976        0.8928209681        0.6010790466
C             0.5113067226        0.1232007345        0.1011774821
C             0.9031949018        0.8959236744        0.7289781077
C             0.6637532608        0.1060791711        0.2324327851
C             0.5834553707        0.6347098831        0.6927336519
C             0.8410731189        0.3800126263        0.2079805244
C             0.5398132902        0.5521389667        0.6167419817
C             0.7982915634        0.4697335104        0.1395118641
C             0.6053668034        0.4877047260        0.5425555786
C             0.8627920957        0.5217328571        0.0453030123
C             0.9240835777        0.1107725718        0.4669566043
C             0.6855759077        0.9017366596        0.9642127229
C             0.5626544113        0.3990330615        0.4633860260
C             0.8204830847        0.6100239236        0.9659296988
H             0.0209102664        0.5220566712        0.9645254495
H             0.3266987466        0.6527560586        0.6079702734
H             0.0862123160        0.3698787302        0.1023185567
H             0.1586589104        0.8741122566        0.6191518445
H             0.4357002755        0.1636509563        0.0805416571
H             0.4634777060        0.8196029271        0.7704871132
H             0.2088854855        0.1803191506        0.2629885159
H             0.0378861299        0.6423669334        0.8010846439
H             0.2825264010        0.3266458817        0.2705608023
H             0.4543497575        0.5367077098        0.6210148013
H             0.2095264624        0.4804063299        0.1407581813
H             0.7315316065        1.0053377354        0.4447845562
H             0.9696773132       -0.0304003468        0.9762435485
H             0.5432380302        0.9608885759        0.6307496594
H             0.7819306193        0.9907637823        0.1774089946
H             0.8414206490        0.6118628599        0.6394975730
H             0.5779012572        0.3480475743        0.0975801614
H             0.6713428785        0.8540872808        0.5827827767
H             0.9033921492        0.1159248992        0.1175451682
H             0.9505784183        0.8625107312        0.8094821064
H             0.7080623653        0.1346250585        0.3175499554
H             0.5334668754        0.6848319454        0.7523347540
H             0.7905562058        0.3337857100        0.2719867360
H             0.9715201312        0.4921927160        0.6634280349
H             0.1303666363        1.0270432313        0.4697822821
H             0.2425890270        0.0943677070        0.4116405444
H             0.3453367738        0.0567895232        0.2299402092
H             0.3330349722        0.9518770808        0.1078763958
H             0.3614787871        0.5204305788        0.4436572231
H             0.2614077277        0.4304846765        0.3913247974
H             0.6063266555        0.4840767282        0.9349335425
H             0.5012667135        0.5708346030        0.8855173262
H             0.0786571547        0.9849605217        0.7707389869
H             0.0681765289        0.0875040523        0.6468407125
H             0.4094060990        0.0446829995        0.9027777314
H             0.5079072024        0.9491605143        0.8614020006
H             0.8691640664        0.4447123240        0.5042919930
H             0.7536622940        0.3811056156        0.4440228874
H             0.6596072509        0.4622474155        0.2404628844
H             0.6697094920        0.5671923469        0.1195391023
N             0.3081392897        0.8434830254        0.7036285941
N             0.0532465777        0.1516535980        0.1982500764
N             0.1854611233        0.6520611019        0.7107023925
N             0.4347507445        0.3361756373        0.1959715349
N             0.8073361996        0.8540283899        0.7027707730
N             0.5671857694        0.1520529643        0.2075941080
N             0.6901038828        0.6547066268        0.7006451536
N             0.9426043399        0.3498091415        0.1970752353
N             0.2117345694        0.0311131372        0.4620691321
N             0.3042693546        1.0180599199        0.1554090211
N             0.2837505719        0.4963625591        0.4445485179
N             0.5279300189        0.5057343309        0.9378316031
N             0.0381272433        0.0233573759        0.6963083971
N             0.4833489910        1.0121974171        0.9171152146
N             0.7868344856        0.4446115014        0.4937781543
N             0.7001031579        0.5021530095        0.1692196245
Ni            0.2471858339        0.7498288031        0.8433384766
Ni            0.4995428350        0.2449481226        0.3398317816
Ni            0.7505252353        0.7553563096        0.8350648394
Ni            1.0001649125        0.2507756704        0.3319196896
O             0.1327477197        0.3465275340        0.3814995432
O             0.3736726310        0.6497403024        0.8823603668
O             0.3776551686        0.1412796963        0.3727244366
O             0.1219669408        0.8526217770        0.8735895630
O             0.4677845866        0.3629658109        0.4742201514
O             0.2213391224        0.6356671168        0.9790184288
O             0.0233188311        0.1400576643        0.4768112936
O             0.2736863454        0.8625975215        0.9811078326
O             0.6201850746        0.3510144076        0.3765825866
O             0.8763256827        0.6600100112        0.8819284824
O             0.8685956406        0.1607337694        0.3802381620
O             0.6269674990        0.8559239911        0.8749328096
O             0.9790346153        0.3603329872        0.4742852431
O             0.7225237109        0.6420070951        0.9740258696
O             0.5282743293        0.1321697187        0.4823765977
O             0.7805214318        0.8644431573        0.9777726139
End final coordinates



     Writing output data file ./QE_relaxation_results/pbesol_relax/NiPyC2_relax_sc211_meta_functionalized_NH2_pbesol_relax.save/
 
     init_run     :     40.76s CPU     42.61s WALL (       1 calls)
     electrons    :  72032.03s CPU  96448.65s WALL (      99 calls)
     update_pot   :    623.66s CPU    660.18s WALL (      98 calls)
     forces       :   1390.99s CPU   1720.91s WALL (      99 calls)

     Called by init_run:
     wfcinit      :     33.14s CPU     34.52s WALL (       1 calls)
     potinit      :      3.33s CPU      3.63s WALL (       1 calls)
     hinit0       :      2.72s CPU      2.83s WALL (       1 calls)

     Called by electrons:
     c_bands      :  67366.64s CPU  89270.13s WALL (    1314 calls)
     sum_band     :   2880.24s CPU   4475.67s WALL (    1314 calls)
     v_of_rho     :    874.21s CPU   1196.01s WALL (    1384 calls)
     mix_rho      :    892.55s CPU   1393.26s WALL (    1314 calls)

     Called by c_bands:
     init_us_2    :     54.87s CPU     63.62s WALL (    2629 calls)
     regterg      :  66932.24s CPU  86989.84s WALL (    1314 calls)

     Called by sum_band:

     Called by *egterg:
     h_psi        :  24046.46s CPU  32056.79s WALL (    4897 calls)
     g_psi        :     14.12s CPU     15.18s WALL (    3582 calls)
     rdiaghg      :   3502.37s CPU   3535.12s WALL (    4769 calls)

     Called by h_psi:
     h_psi:calbec :   6816.56s CPU   8976.25s WALL (    4897 calls)
     vloc_psi     :  10668.78s CPU  16476.45s WALL (    4897 calls)
     add_vuspsi   :   6504.34s CPU   6539.33s WALL (    4897 calls)

     General routines
     calbec       :   7737.10s CPU  10183.76s WALL (    5293 calls)
     fft          :    587.44s CPU    965.74s WALL (   21906 calls)
     ffts         :    611.84s CPU    980.58s WALL (   22790 calls)
     fftw         :  11552.11s CPU  18567.76s WALL (  987822 calls)
 
     Parallel routines
     fft_scatt_xy :   1945.72s CPU   2208.70s WALL ( 1032518 calls)
     fft_scatt_yz :   4555.21s CPU  11178.27s WALL ( 1032518 calls)
 
     PWSCF        :     20h35m CPU   1d 3h29m WALL

 
   This run was terminated on:   2:29:57  23Jun2020            

=------------------------------------------------------------------------------=
   JOB DONE.
=------------------------------------------------------------------------------=
QE finished Tue Jun 23 02:29:57 PDT 2020
