/apps/openmpi/3.1_intel-19/bin/mpiexec
starting QE Thu Jun 25 12:12:58 PDT 2020

     Program PWSCF v.6.5 starts on 25Jun2020 at 12:13: 0 

     This program is part of the open-source Quantum ESPRESSO suite
     for quantum simulation of materials; please cite
         "P. Giannozzi et al., J. Phys.:Condens. Matter 21 395502 (2009);
         "P. Giannozzi et al., J. Phys.:Condens. Matter 29 465901 (2017);
          URL http://www.quantum-espresso.org", 
     in publications or presentations arising from this work. More details at
     http://www.quantum-espresso.org/quote

     Parallel version (MPI), running on    32 processors

     MPI processes distributed on     1 nodes
     K-points division:     npool     =       2
     R & G space division:  proc/nbgrp/npool/nimage =      16
     Reading input from QE_input_scripts/pw.NiPyC2_relax_sc211_meta_functionalized_N-C-O_pbesol_relax.in
Warning: card &CELL ignored
Warning: card    CELL_DYNAMICS = 'BFGS' ignored
Warning: card    CELL_DOFREE = 'XYZ' ignored
Warning: card / ignored

     Current dimensions of program PWSCF are:
     Max number of different atomic species (ntypx) = 10
     Max number of k-points (npk) =  40000
     Max angular momentum in pseudopotentials (lmaxx) =  3

     -------------------------------------------------
     Parameters for Dispersion (Grimme-D2) Correction:
     -------------------------------------------------
       atom      VdW radius       C_6     

        C          2.744         60.710
        H          1.892          4.857
        N          2.640         42.670
        Ni         2.952        374.666
        O          2.536         24.284

     gamma-point specific algorithms are used

     Subspace diagonalization in iterative solution of the eigenvalue problem:
     a serial algorithm will be used

 
     Parallelization info
     --------------------
     sticks:   dense  smooth     PW     G-vecs:    dense   smooth      PW
     Min        1113    1113    277                91686    91686   11456
     Max        1116    1116    280                91692    91692   11460
     Sum       17829   17829   4453              1467017  1467017  183325
 


     bravais-lattice index     =            0
     lattice parameter (alat)  =      23.6322  a.u.
     unit-cell volume          =   10858.6228 (a.u.)^3
     number of atoms/cell      =          124
     number of atomic types    =            5
     number of electrons       =       512.00 (up: 260.00, down: 252.00)
     number of Kohn-Sham states=          312
     kinetic-energy cutoff     =     100.0000  Ry
     charge density cutoff     =     400.0000  Ry
     convergence threshold     =      1.0E-06
     mixing beta               =       0.7000
     number of iterations used =            8  local-TF  mixing
     Exchange-correlation= PBESOL
                           (   1   4  10   8   0   0   0)
     nstep                     =          200


     celldm(1)=  23.632159  celldm(2)=   0.000000  celldm(3)=   0.000000
     celldm(4)=   0.000000  celldm(5)=   0.000000  celldm(6)=   0.000000

     crystal axes: (cart. coord. in units of alat)
               a(1) = (   1.000000   0.000000   0.000000 )  
               a(2) = (   0.000000   1.001423   0.000000 )  
               a(3) = (  -0.018199   0.000000   0.821574 )  

     reciprocal axes: (cart. coord. in units 2 pi/alat)
               b(1) = (  1.000000  0.000000  0.022152 )  
               b(2) = (  0.000000  0.998579  0.000000 )  
               b(3) = (  0.000000  0.000000  1.217175 )  


     PseudoPot. # 1 for C  read from file:
     ./pseudo/C.pbesol-nc.UPF
     MD5 check sum: ce26087537ded160c8d400e183a8bf42
     Pseudo is Norm-conserving, Zval =  4.0
     Generated using "atomic" code by A. Dal Corso v.6.5
     Using radial grid of 1073 points,  1 beta functions with: 
                l(1) =   1

     PseudoPot. # 2 for H  read from file:
     ./pseudo/H.pbesol-n-nc.UPF
     MD5 check sum: 7995ef24074557c85b430109caaacc09
     Pseudo is Norm-conserving, Zval =  1.0
     Generated using "atomic" code by A. Dal Corso v.6.5
     Using radial grid of  929 points,  0 beta functions with: 

     PseudoPot. # 3 for N  read from file:
     ./pseudo/N.pbesol-nc.UPF
     MD5 check sum: e18cc5e4b8a5600c1a19b30c2cab1ca0
     Pseudo is Norm-conserving, Zval =  5.0
     Generated using "atomic" code by A. Dal Corso v.6.5
     Using radial grid of 1085 points,  1 beta functions with: 
                l(1) =   1

     PseudoPot. # 4 for Ni read from file:
     ./pseudo/Ni.pbesol-n-nc.UPF
     MD5 check sum: 623411631e0c2eb7c0b2b9815547d2d9
     Pseudo is Norm-conserving + core correction, Zval = 10.0
     Generated using "atomic" code by A. Dal Corso v.6.5
     Using radial grid of 1195 points,  2 beta functions with: 
                l(1) =   1
                l(2) =   2

     PseudoPot. # 5 for O  read from file:
     ./pseudo/O.pbesol-nc.UPF
     MD5 check sum: 73d10e7e91dbfcbe8a7e362101007f84
     Pseudo is Norm-conserving, Zval =  6.0
     Generated using "atomic" code by A. Dal Corso v.6.5
     Using radial grid of 1095 points,  1 beta functions with: 
                l(1) =   1

     atomic species   valence    mass     pseudopotential
        C              4.00    12.01070     C ( 1.00)
        H              1.00     1.00794     H ( 1.00)
        N              5.00    14.00670     N ( 1.00)
        Ni            10.00    58.69340     Ni( 1.00)
        O              6.00    15.99940     O ( 1.00)

     Starting magnetic structure 
     atomic species   magnetization
        C            0.000
        H            0.000
        N            0.000
        Ni           0.250
        O            0.000

     No symmetry found



   Cartesian axes

     site n.     atom                  positions (alat units)
         1           C   tau(   1) = (   0.2787122   0.9714307   0.4288486  )
         2           C   tau(   2) = (   0.0379730   0.0311503   0.0183277  )
         3           C   tau(   3) = (   0.3806882   0.0117868   0.4489838  )
         4           C   tau(   4) = (   0.1394042   0.9891499   0.0379124  )
         5           C   tau(   5) = (   0.4400787   0.9715829   0.5343281  )
         6           C   tau(   6) = (   0.1997920   0.0283934   0.1231482  )
         7           C   tau(   7) = (   0.1986011   0.5304580   0.4324635  )
         8           C   tau(   8) = (   0.4580372   0.4720800   0.0229252  )
         9           C   tau(   9) = (   0.2341003   0.6142040   0.4982314  )
        10           C   tau(  10) = (   0.4948422   0.3892302   0.0892369  )
        11           C   tau(  11) = (   0.2384981   0.8904717   0.4955761  )
        12           C   tau(  12) = (  -0.0008282   0.1123917   0.0856467  )
        13           C   tau(  13) = (   0.3947360   0.8906489   0.5977380  )
        14           C   tau(  14) = (   0.1557890   0.1097029   0.1871645  )
        15           C   tau(  15) = (   0.0756247   0.6098498   0.5975737  )
        16           C   tau(  16) = (   0.3367152   0.3921904   0.1884642  )
        17           C   tau(  17) = (   0.0350715   0.5258264   0.5351012  )
        18           C   tau(  18) = (   0.2948780   0.4753867   0.1254988  )
        19           C   tau(  19) = (   0.0981522   0.4849593   0.4519611  )
        20           C   tau(  20) = (   0.3569104   0.5163900   0.0416029  )
        21           C   tau(  21) = (   0.4248178   0.0994604   0.3833638  )
        22           C   tau(  22) = (   0.1639424   0.9010006   0.7933713  )
        23           C   tau(  23) = (   0.0588120   0.3950355   0.3866953  )
        24           C   tau(  24) = (   0.2984059   0.6050320   0.7961934  )
        25           C   tau(  25) = (   0.7787122   0.9714307   0.4288486  )
        26           C   tau(  26) = (   0.5379730   0.0311503   0.0183277  )
        27           C   tau(  27) = (   0.8806882   0.0117868   0.4489838  )
        28           C   tau(  28) = (   0.6394042   0.9891499   0.0379124  )
        29           C   tau(  29) = (   0.9400787   0.9715829   0.5343281  )
        30           C   tau(  30) = (   0.6997920   0.0283934   0.1231482  )
        31           C   tau(  31) = (   0.6986021   0.5304580   0.4324635  )
        32           C   tau(  32) = (   0.9580382   0.4720800   0.0229252  )
        33           C   tau(  33) = (   0.7341003   0.6142040   0.4982314  )
        34           C   tau(  34) = (   0.9948422   0.3892302   0.0892369  )
        35           C   tau(  35) = (   0.7384981   0.8904717   0.4955761  )
        36           C   tau(  36) = (   0.4991718   0.1123917   0.0856467  )
        37           C   tau(  37) = (   0.8947360   0.8906489   0.5977380  )
        38           C   tau(  38) = (   0.6557880   0.1097029   0.1871645  )
        39           C   tau(  39) = (   0.5756247   0.6098498   0.5975737  )
        40           C   tau(  40) = (   0.8367152   0.3921904   0.1884642  )
        41           C   tau(  41) = (   0.5350715   0.5258264   0.5351012  )
        42           C   tau(  42) = (   0.7948780   0.4753867   0.1254988  )
        43           C   tau(  43) = (   0.5981522   0.4849593   0.4519611  )
        44           C   tau(  44) = (   0.8569104   0.5163900   0.0416029  )
        45           C   tau(  45) = (   0.9248178   0.0994604   0.3833638  )
        46           C   tau(  46) = (   0.6639424   0.9010006   0.7933713  )
        47           C   tau(  47) = (   0.5588110   0.3950355   0.3866953  )
        48           C   tau(  48) = (   0.7984059   0.6050320   0.7961934  )
        49           C   tau(  49) = (   0.1222485   0.9783916   0.3221195  )
        50           C   tau(  50) = (   0.8628798   0.0271195   0.7336716  )
        51           C   tau(  51) = (   0.3536351   0.5331638   0.3236280  )
        52           C   tau(  52) = (   0.5985030   0.4761848   0.7407979  )
        53           C   tau(  53) = (   0.6253538   0.9730400   0.3174982  )
        54           C   tau(  54) = (   0.3660498   0.0324481   0.7290683  )
        55           C   tau(  55) = (   0.3699494   0.5194834   0.6275160  )
        56           C   tau(  56) = (   0.0985040   0.4761858   0.7407987  )
        57           H   tau(  57) = (   0.0198054   1.0002267   0.5533467  )
        58           H   tau(  58) = (   0.2791988   1.0000865   0.1418054  )
        59           H   tau(  59) = (   0.3118554   0.6514319   0.4868937  )
        60           H   tau(  60) = (   0.0732386   0.3533532   0.0780726  )
        61           H   tau(  61) = (   0.1594426   0.8563401   0.4835457  )
        62           H   tau(  62) = (   0.4206861   0.1479423   0.0738480  )
        63           H   tau(  63) = (   0.4386511   0.8563902   0.6644572  )
        64           H   tau(  64) = (   0.2006191   0.1433067   0.2536997  )
        65           H   tau(  65) = (   0.0290492   0.6438591   0.6626884  )
        66           H   tau(  66) = (   0.2907535   0.3580349   0.2539083  )
        67           H   tau(  67) = (   0.2157623   0.5059201   0.1439924  )
        68           H   tau(  68) = (   0.5198044   1.0002267   0.5533467  )
        69           H   tau(  69) = (   0.7791988   1.0000865   0.1418054  )
        70           H   tau(  70) = (   0.7505234   0.5016080   0.3691185  )
        71           H   tau(  71) = (   0.8118554   0.6514319   0.4868937  )
        72           H   tau(  72) = (   0.5732386   0.3533532   0.0780726  )
        73           H   tau(  73) = (   0.6594426   0.8563401   0.4835457  )
        74           H   tau(  74) = (   0.9206861   0.1479423   0.0738480  )
        75           H   tau(  75) = (   0.9386511   0.8563902   0.6644572  )
        76           H   tau(  76) = (   0.7006201   0.1433067   0.2536997  )
        77           H   tau(  77) = (   0.5290492   0.6438591   0.6626884  )
        78           H   tau(  78) = (   0.7907535   0.3580349   0.2539083  )
        79           H   tau(  79) = (   0.9564147   0.4939330   0.5533319  )
        80           H   tau(  80) = (   0.7157623   0.5059201   0.1439924  )
        81           N   tau(  81) = (   0.2956096   0.8524646   0.5790685  )
        82           N   tau(  82) = (   0.0569790   0.1490689   0.1692870  )
        83           N   tau(  83) = (   0.1736962   0.6512356   0.5798983  )
        84           N   tau(  84) = (   0.4350238   0.3514275   0.1709211  )
        85           N   tau(  85) = (   0.7956096   0.8524646   0.5790685  )
        86           N   tau(  86) = (   0.5569790   0.1490689   0.1692870  )
        87           N   tau(  87) = (   0.6736972   0.6512356   0.5798983  )
        88           N   tau(  88) = (   0.9350238   0.3514275   0.1709211  )
        89           N   tau(  89) = (   0.2158328   0.0095456   0.3412918  )
        90           N   tau(  90) = (   0.9560248   0.9944615   0.7523607  )
        91           N   tau(  91) = (   0.2641985   0.4923097   0.3464061  )
        92           N   tau(  92) = (   0.5054769   0.5110414   0.7586310  )
        93           N   tau(  93) = (   0.7160603   0.0091540   0.3409533  )
        94           N   tau(  94) = (   0.4562563   0.9948510   0.7520239  )
        95           N   tau(  95) = (   0.4308645   0.4828423   0.5558665  )
        96           N   tau(  96) = (   0.0054779   0.5110424   0.7586318  )
        97           Ni  tau(  97) = (   0.2317814   0.7525556   0.6871039  )
        98           Ni  tau(  98) = (   0.4937992   0.2483520   0.2786599  )
        99           Ni  tau(  99) = (   0.7317814   0.7525556   0.6871039  )
       100           Ni  tau( 100) = (   0.9937992   0.2483520   0.2786599  )
       101           O   tau( 101) = (   0.1158100   0.3481839   0.3145586  )
       102           O   tau( 102) = (   0.3551690   0.6519036   0.7240468  )
       103           O   tau( 103) = (   0.3707656   0.1477170   0.3098797  )
       104           O   tau( 104) = (   0.1091506   0.8535652   0.7199135  )
       105           O   tau( 105) = (   0.4642788   0.3566669   0.3968154  )
       106           O   tau( 106) = (   0.2033039   0.6423280   0.8050417  )
       107           O   tau( 107) = (   0.0200847   0.1353504   0.3952413  )
       108           O   tau( 108) = (   0.2588616   0.8639860   0.8046490  )
       109           O   tau( 109) = (   0.6158110   0.3481839   0.3145586  )
       110           O   tau( 110) = (   0.8551690   0.6519036   0.7240468  )
       111           O   tau( 111) = (   0.8707656   0.1477170   0.3098797  )
       112           O   tau( 112) = (   0.6091506   0.8535652   0.7199135  )
       113           O   tau( 113) = (   0.9642788   0.3566669   0.3968154  )
       114           O   tau( 114) = (   0.7033039   0.6423280   0.8050417  )
       115           O   tau( 115) = (   0.5200847   0.1353504   0.3952413  )
       116           O   tau( 116) = (   0.7588616   0.8639860   0.8046490  )
       117           O   tau( 117) = (   0.0335883   0.9469119   0.3047014  )
       118           O   tau( 118) = (   0.7746465   0.0600193   0.7167134  )
       119           O   tau( 119) = (   0.4383124   0.5725238   0.3027559  )
       120           O   tau( 120) = (   0.6866039   0.4425380   0.7246384  )
       121           O   tau( 121) = (   0.5394341   0.9368356   0.2959992  )
       122           O   tau( 122) = (   0.2806155   0.0700536   0.7080450  )
       123           O   tau( 123) = (   0.3128736   0.5548727   0.6956705  )
       124           O   tau( 124) = (   0.1866049   0.4425390   0.7246400  )

     number of k points=     1  Marzari-Vanderbilt smearing, width (Ry)=  0.2000
                       cart. coord. in units 2pi/alat
        k(    1) = (   0.0000000   0.0000000   0.0000000), wk =   1.0000000

     Dense  grid:   733509 G-vectors     FFT dimensions: ( 160, 160, 125)

     Estimated max dynamical RAM per process >     374.73 MB

     Estimated total dynamical RAM >      11.71 GB
     Generating pointlists ...
     new r_m :   0.0358 (alat units)  0.8461 (a.u.) for type    1
     new r_m :   0.0358 (alat units)  0.8461 (a.u.) for type    2
     new r_m :   0.0416 (alat units)  0.9839 (a.u.) for type    3
     new r_m :   0.0654 (alat units)  1.5454 (a.u.) for type    4
     new r_m :   0.0395 (alat units)  0.9327 (a.u.) for type    5

     Check: negative core charge=   -0.000145

     Initial potential from superposition of free atoms

     starting charge  511.99638, renormalised to  512.00000
     Starting wfcs are  444 randomized atomic wfcs

     total cpu time spent up to now is       42.2 secs

     Self-consistent Calculation

     iteration #  1     ecut=   100.00 Ry     beta= 0.70
     Davidson diagonalization with overlap
     ethr =  1.00E-02,  avg # of iterations =  4.0

     total cpu time spent up to now is      150.3 secs

     total energy              =   -2113.87558888 Ry
     Harris-Foulkes estimate   =   -2122.05916364 Ry
     estimated scf accuracy    <      20.80716505 Ry

     total magnetization       =     8.00 Bohr mag/cell
     absolute magnetization    =     8.61 Bohr mag/cell

     iteration #  2     ecut=   100.00 Ry     beta= 0.70
     Davidson diagonalization with overlap
     ethr =  4.06E-03,  avg # of iterations =  2.0

     total cpu time spent up to now is      215.8 secs

     total energy              =   -2116.90366474 Ry
     Harris-Foulkes estimate   =   -2120.63861802 Ry
     estimated scf accuracy    <      18.61423870 Ry

     total magnetization       =     8.00 Bohr mag/cell
     absolute magnetization    =     8.35 Bohr mag/cell

     iteration #  3     ecut=   100.00 Ry     beta= 0.70
     Davidson diagonalization with overlap
     ethr =  3.64E-03,  avg # of iterations =  1.5

     total cpu time spent up to now is      276.9 secs

     total energy              =   -2117.08116107 Ry
     Harris-Foulkes estimate   =   -2117.79027337 Ry
     estimated scf accuracy    <       2.04957687 Ry

     total magnetization       =     8.00 Bohr mag/cell
     absolute magnetization    =     8.22 Bohr mag/cell

     iteration #  4     ecut=   100.00 Ry     beta= 0.70
     Davidson diagonalization with overlap
     ethr =  4.00E-04,  avg # of iterations =  8.5

     total cpu time spent up to now is      359.2 secs

     total energy              =   -2116.96343814 Ry
     Harris-Foulkes estimate   =   -2117.62928075 Ry
     estimated scf accuracy    <       5.28655613 Ry

     total magnetization       =     8.00 Bohr mag/cell
     absolute magnetization    =     8.25 Bohr mag/cell

     iteration #  5     ecut=   100.00 Ry     beta= 0.70
     Davidson diagonalization with overlap
     ethr =  4.00E-04,  avg # of iterations =  2.0

     total cpu time spent up to now is      422.0 secs

     total energy              =   -2117.30184959 Ry
     Harris-Foulkes estimate   =   -2117.37185145 Ry
     estimated scf accuracy    <       0.73258053 Ry

     total magnetization       =     8.00 Bohr mag/cell
     absolute magnetization    =     8.25 Bohr mag/cell

     iteration #  6     ecut=   100.00 Ry     beta= 0.70
     Davidson diagonalization with overlap
     ethr =  1.43E-04,  avg # of iterations =  1.0

     total cpu time spent up to now is      481.0 secs

     total energy              =   -2117.28662207 Ry
     Harris-Foulkes estimate   =   -2117.36296946 Ry
     estimated scf accuracy    <       1.19856392 Ry

     total magnetization       =     8.00 Bohr mag/cell
     absolute magnetization    =     8.25 Bohr mag/cell

     iteration #  7     ecut=   100.00 Ry     beta= 0.70
     Davidson diagonalization with overlap
     ethr =  1.43E-04,  avg # of iterations =  1.0

     total cpu time spent up to now is      541.6 secs

     total energy              =   -2117.25265208 Ry
     Harris-Foulkes estimate   =   -2117.31309894 Ry
     estimated scf accuracy    <       0.43027930 Ry

     total magnetization       =     8.00 Bohr mag/cell
     absolute magnetization    =     8.25 Bohr mag/cell

     iteration #  8     ecut=   100.00 Ry     beta= 0.70
     Davidson diagonalization with overlap
     ethr =  8.40E-05,  avg # of iterations =  1.0

     total cpu time spent up to now is      601.5 secs

     total energy              =   -2117.26825544 Ry
     Harris-Foulkes estimate   =   -2117.28227257 Ry
     estimated scf accuracy    <       0.17934194 Ry

     total magnetization       =     8.00 Bohr mag/cell
     absolute magnetization    =     8.25 Bohr mag/cell

     iteration #  9     ecut=   100.00 Ry     beta= 0.70
     Davidson diagonalization with overlap
     ethr =  3.50E-05,  avg # of iterations =  4.5

     total cpu time spent up to now is      667.9 secs

     total energy              =   -2117.27215243 Ry
     Harris-Foulkes estimate   =   -2117.27681975 Ry
     estimated scf accuracy    <       0.05707888 Ry

     total magnetization       =     8.00 Bohr mag/cell
     absolute magnetization    =     8.25 Bohr mag/cell

     iteration # 10     ecut=   100.00 Ry     beta= 0.70
     Davidson diagonalization with overlap
     ethr =  1.11E-05,  avg # of iterations =  5.5

     total cpu time spent up to now is      739.2 secs

     total energy              =   -2117.27749240 Ry
     Harris-Foulkes estimate   =   -2117.27626555 Ry
     estimated scf accuracy    <       0.01772283 Ry

     total magnetization       =     8.00 Bohr mag/cell
     absolute magnetization    =     8.24 Bohr mag/cell

     iteration # 11     ecut=   100.00 Ry     beta= 0.70
     Davidson diagonalization with overlap
     ethr =  3.46E-06,  avg # of iterations =  4.0

     total cpu time spent up to now is      808.0 secs

     total energy              =   -2117.27858495 Ry
     Harris-Foulkes estimate   =   -2117.27856456 Ry
     estimated scf accuracy    <       0.00800757 Ry

     total magnetization       =     8.00 Bohr mag/cell
     absolute magnetization    =     8.23 Bohr mag/cell

     iteration # 12     ecut=   100.00 Ry     beta= 0.70
     Davidson diagonalization with overlap
     ethr =  1.56E-06,  avg # of iterations =  2.5

     total cpu time spent up to now is      869.3 secs

     total energy              =   -2117.27940379 Ry
     Harris-Foulkes estimate   =   -2117.27970375 Ry
     estimated scf accuracy    <       0.01617504 Ry

     total magnetization       =     8.00 Bohr mag/cell
     absolute magnetization    =     8.23 Bohr mag/cell

     iteration # 13     ecut=   100.00 Ry     beta= 0.70
     Davidson diagonalization with overlap
     ethr =  1.56E-06,  avg # of iterations =  4.0

     total cpu time spent up to now is      932.9 secs

     total energy              =   -2117.28031819 Ry
     Harris-Foulkes estimate   =   -2117.27995990 Ry
     estimated scf accuracy    <       0.00126810 Ry

     total magnetization       =     8.00 Bohr mag/cell
     absolute magnetization    =     8.22 Bohr mag/cell

     iteration # 14     ecut=   100.00 Ry     beta= 0.70
     Davidson diagonalization with overlap
     ethr =  2.48E-07,  avg # of iterations =  3.5

     total cpu time spent up to now is      998.8 secs

     total energy              =   -2117.28056810 Ry
     Harris-Foulkes estimate   =   -2117.28038586 Ry
     estimated scf accuracy    <       0.00047511 Ry

     total magnetization       =     8.00 Bohr mag/cell
     absolute magnetization    =     8.22 Bohr mag/cell

     iteration # 15     ecut=   100.00 Ry     beta= 0.70
     Davidson diagonalization with overlap
     ethr =  9.28E-08,  avg # of iterations =  3.0

     total cpu time spent up to now is     1064.5 secs

     total energy              =   -2117.28062928 Ry
     Harris-Foulkes estimate   =   -2117.28059364 Ry
     estimated scf accuracy    <       0.00016218 Ry

     total magnetization       =     8.00 Bohr mag/cell
     absolute magnetization    =     8.22 Bohr mag/cell

     iteration # 16     ecut=   100.00 Ry     beta= 0.70
     Davidson diagonalization with overlap
     ethr =  3.17E-08,  avg # of iterations =  2.5

     total cpu time spent up to now is     1125.9 secs

     total energy              =   -2117.28064535 Ry
     Harris-Foulkes estimate   =   -2117.28063751 Ry
     estimated scf accuracy    <       0.00007063 Ry

     total magnetization       =     8.00 Bohr mag/cell
     absolute magnetization    =     8.22 Bohr mag/cell

     iteration # 17     ecut=   100.00 Ry     beta= 0.70
     Davidson diagonalization with overlap
     ethr =  1.38E-08,  avg # of iterations =  2.5

     total cpu time spent up to now is     1188.6 secs

     total energy              =   -2117.28064845 Ry
     Harris-Foulkes estimate   =   -2117.28064813 Ry
     estimated scf accuracy    <       0.00003404 Ry

     total magnetization       =     8.00 Bohr mag/cell
     absolute magnetization    =     8.22 Bohr mag/cell

     iteration # 18     ecut=   100.00 Ry     beta= 0.70
     Davidson diagonalization with overlap
     ethr =  6.65E-09,  avg # of iterations =  2.5

     total cpu time spent up to now is     1249.8 secs

     total energy              =   -2117.28064981 Ry
     Harris-Foulkes estimate   =   -2117.28065035 Ry
     estimated scf accuracy    <       0.00003801 Ry

     total magnetization       =     8.00 Bohr mag/cell
     absolute magnetization    =     8.22 Bohr mag/cell

     iteration # 19     ecut=   100.00 Ry     beta= 0.70
     Davidson diagonalization with overlap
     ethr =  6.65E-09,  avg # of iterations =  1.5

     total cpu time spent up to now is     1311.5 secs

     total energy              =   -2117.28064969 Ry
     Harris-Foulkes estimate   =   -2117.28065163 Ry
     estimated scf accuracy    <       0.00003567 Ry

     total magnetization       =     8.00 Bohr mag/cell
     absolute magnetization    =     8.22 Bohr mag/cell

     iteration # 20     ecut=   100.00 Ry     beta= 0.70
     Davidson diagonalization with overlap
     ethr =  6.65E-09,  avg # of iterations =  1.5

     total cpu time spent up to now is     1371.7 secs

     total energy              =   -2117.28065041 Ry
     Harris-Foulkes estimate   =   -2117.28065130 Ry
     estimated scf accuracy    <       0.00001536 Ry

     total magnetization       =     8.00 Bohr mag/cell
     absolute magnetization    =     8.22 Bohr mag/cell

     iteration # 21     ecut=   100.00 Ry     beta= 0.70
     Davidson diagonalization with overlap
     ethr =  3.00E-09,  avg # of iterations =  2.5

     total cpu time spent up to now is     1432.6 secs

     total energy              =   -2117.28065097 Ry
     Harris-Foulkes estimate   =   -2117.28065134 Ry
     estimated scf accuracy    <       0.00000865 Ry

     total magnetization       =     8.00 Bohr mag/cell
     absolute magnetization    =     8.22 Bohr mag/cell

     iteration # 22     ecut=   100.00 Ry     beta= 0.70
     Davidson diagonalization with overlap
     ethr =  1.69E-09,  avg # of iterations =  1.5

     total cpu time spent up to now is     1494.7 secs

     total energy              =   -2117.28065097 Ry
     Harris-Foulkes estimate   =   -2117.28065148 Ry
     estimated scf accuracy    <       0.00000872 Ry

     total magnetization       =     8.00 Bohr mag/cell
     absolute magnetization    =     8.22 Bohr mag/cell

     iteration # 23     ecut=   100.00 Ry     beta= 0.70
     Davidson diagonalization with overlap
     ethr =  1.69E-09,  avg # of iterations =  1.5

     total cpu time spent up to now is     1554.4 secs

     total energy              =   -2117.28065118 Ry
     Harris-Foulkes estimate   =   -2117.28065144 Ry
     estimated scf accuracy    <       0.00000452 Ry

     total magnetization       =     8.00 Bohr mag/cell
     absolute magnetization    =     8.22 Bohr mag/cell

     iteration # 24     ecut=   100.00 Ry     beta= 0.70
     Davidson diagonalization with overlap
     ethr =  8.83E-10,  avg # of iterations =  3.0

     total cpu time spent up to now is     1615.9 secs

     total energy              =   -2117.28065141 Ry
     Harris-Foulkes estimate   =   -2117.28065149 Ry
     estimated scf accuracy    <       0.00000445 Ry

     total magnetization       =     8.00 Bohr mag/cell
     absolute magnetization    =     8.22 Bohr mag/cell

     iteration # 25     ecut=   100.00 Ry     beta= 0.70
     Davidson diagonalization with overlap
     ethr =  8.69E-10,  avg # of iterations =  1.5

     total cpu time spent up to now is     1676.0 secs

     total energy              =   -2117.28065153 Ry
     Harris-Foulkes estimate   =   -2117.28065162 Ry
     estimated scf accuracy    <       0.00000233 Ry

     total magnetization       =     8.00 Bohr mag/cell
     absolute magnetization    =     8.22 Bohr mag/cell

     iteration # 26     ecut=   100.00 Ry     beta= 0.70
     Davidson diagonalization with overlap
     ethr =  4.55E-10,  avg # of iterations =  2.5
 
     Magnetic moment per site:
     atom:    1    charge:    0.8271    magn:    0.0036    constr:    0.0000
     atom:    2    charge:    0.8275    magn:    0.0036    constr:    0.0000
     atom:    3    charge:    0.8489    magn:    0.0055    constr:    0.0000
     atom:    4    charge:    0.8484    magn:    0.0054    constr:    0.0000
     atom:    5    charge:    0.8464    magn:    0.0053    constr:    0.0000
     atom:    6    charge:    0.8476    magn:    0.0055    constr:    0.0000
     atom:    7    charge:    0.8285    magn:    0.0033    constr:    0.0000
     atom:    8    charge:    0.8303    magn:    0.0036    constr:    0.0000
     atom:    9    charge:    0.8433    magn:    0.0074    constr:    0.0000
     atom:   10    charge:    0.8398    magn:    0.0072    constr:    0.0000
     atom:   11    charge:    0.8404    magn:    0.0078    constr:    0.0000
     atom:   12    charge:    0.8401    magn:    0.0077    constr:    0.0000
     atom:   13    charge:    0.8431    magn:    0.0062    constr:    0.0000
     atom:   14    charge:    0.8429    magn:    0.0065    constr:    0.0000
     atom:   15    charge:    0.8429    magn:    0.0059    constr:    0.0000
     atom:   16    charge:    0.8425    magn:    0.0060    constr:    0.0000
     atom:   17    charge:    0.8466    magn:    0.0050    constr:    0.0000
     atom:   18    charge:    0.8462    magn:    0.0051    constr:    0.0000
     atom:   19    charge:    0.8512    magn:    0.0053    constr:    0.0000
     atom:   20    charge:    0.8538    magn:    0.0046    constr:    0.0000
     atom:   21    charge:    0.8217    magn:   -0.0018    constr:    0.0000
     atom:   22    charge:    0.8223    magn:   -0.0017    constr:    0.0000
     atom:   23    charge:    0.8225    magn:   -0.0018    constr:    0.0000
     atom:   24    charge:    0.8387    magn:    0.0009    constr:    0.0000
     atom:   25    charge:    0.8271    magn:    0.0036    constr:    0.0000
     atom:   26    charge:    0.8275    magn:    0.0036    constr:    0.0000
     atom:   27    charge:    0.8489    magn:    0.0056    constr:    0.0000
     atom:   28    charge:    0.8484    magn:    0.0056    constr:    0.0000
     atom:   29    charge:    0.8462    magn:    0.0055    constr:    0.0000
     atom:   30    charge:    0.8478    magn:    0.0056    constr:    0.0000
     atom:   31    charge:    0.8462    magn:    0.0048    constr:    0.0000
     atom:   32    charge:    0.8275    magn:    0.0035    constr:    0.0000
     atom:   33    charge:    0.8375    magn:    0.0052    constr:    0.0000
     atom:   34    charge:    0.8401    magn:    0.0076    constr:    0.0000
     atom:   35    charge:    0.8402    magn:    0.0078    constr:    0.0000
     atom:   36    charge:    0.8401    magn:    0.0077    constr:    0.0000
     atom:   37    charge:    0.8430    magn:    0.0063    constr:    0.0000
     atom:   38    charge:    0.8428    magn:    0.0065    constr:    0.0000
     atom:   39    charge:    0.8451    magn:    0.0067    constr:    0.0000
     atom:   40    charge:    0.8394    magn:    0.0054    constr:    0.0000
     atom:   41    charge:    0.8315    magn:    0.0064    constr:    0.0000
     atom:   42    charge:    0.8456    magn:    0.0050    constr:    0.0000
     atom:   43    charge:    0.8502    magn:    0.0050    constr:    0.0000
     atom:   44    charge:    0.8482    magn:    0.0057    constr:    0.0000
     atom:   45    charge:    0.8217    magn:   -0.0017    constr:    0.0000
     atom:   46    charge:    0.8224    magn:   -0.0017    constr:    0.0000
     atom:   47    charge:    0.8226    magn:   -0.0016    constr:    0.0000
     atom:   48    charge:    0.8232    magn:   -0.0018    constr:    0.0000
     atom:   49    charge:    0.8437    magn:    0.0001    constr:    0.0000
     atom:   50    charge:    0.8426    magn:    0.0000    constr:    0.0000
     atom:   51    charge:    0.8433    magn:   -0.0001    constr:    0.0000
     atom:   52    charge:    0.8435    magn:    0.0009    constr:    0.0000
     atom:   53    charge:    0.8427    magn:   -0.0001    constr:    0.0000
     atom:   54    charge:    0.8437    magn:   -0.0001    constr:    0.0000
     atom:   55    charge:    0.8637    magn:    0.0160    constr:    0.0000
     atom:   56    charge:    0.8423    magn:    0.0008    constr:    0.0000
     atom:   57    charge:    0.4856    magn:   -0.0013    constr:    0.0000
     atom:   58    charge:    0.4858    magn:   -0.0013    constr:    0.0000
     atom:   59    charge:    0.4877    magn:   -0.0009    constr:    0.0000
     atom:   60    charge:    0.4870    magn:   -0.0012    constr:    0.0000
     atom:   61    charge:    0.4867    magn:   -0.0011    constr:    0.0000
     atom:   62    charge:    0.4874    magn:   -0.0011    constr:    0.0000
     atom:   63    charge:    0.4874    magn:    0.0002    constr:    0.0000
     atom:   64    charge:    0.4856    magn:    0.0005    constr:    0.0000
     atom:   65    charge:    0.4856    magn:    0.0000    constr:    0.0000
     atom:   66    charge:    0.4853    magn:    0.0000    constr:    0.0000
     atom:   67    charge:    0.4854    magn:   -0.0013    constr:    0.0000
     atom:   68    charge:    0.4854    magn:   -0.0013    constr:    0.0000
     atom:   69    charge:    0.4859    magn:   -0.0013    constr:    0.0000
     atom:   70    charge:    0.4862    magn:   -0.0014    constr:    0.0000
     atom:   71    charge:    0.4909    magn:   -0.0011    constr:    0.0000
     atom:   72    charge:    0.4863    magn:   -0.0011    constr:    0.0000
     atom:   73    charge:    0.4868    magn:   -0.0011    constr:    0.0000
     atom:   74    charge:    0.4873    magn:   -0.0011    constr:    0.0000
     atom:   75    charge:    0.4863    magn:    0.0003    constr:    0.0000
     atom:   76    charge:    0.4854    magn:    0.0005    constr:    0.0000
     atom:   77    charge:    0.4863    magn:   -0.0003    constr:    0.0000
     atom:   78    charge:    0.4870    magn:   -0.0009    constr:    0.0000
     atom:   79    charge:    0.4850    magn:   -0.0013    constr:    0.0000
     atom:   80    charge:    0.4869    magn:   -0.0014    constr:    0.0000
     atom:   81    charge:    2.1453    magn:    0.0107    constr:    0.0000
     atom:   82    charge:    2.1441    magn:    0.0112    constr:    0.0000
     atom:   83    charge:    2.1485    magn:    0.0112    constr:    0.0000
     atom:   84    charge:    2.1447    magn:    0.0109    constr:    0.0000
     atom:   85    charge:    2.1445    magn:    0.0112    constr:    0.0000
     atom:   86    charge:    2.1440    magn:    0.0113    constr:    0.0000
     atom:   87    charge:    2.1441    magn:    0.0112    constr:    0.0000
     atom:   88    charge:    2.1436    magn:    0.0111    constr:    0.0000
     atom:   89    charge:    2.1452    magn:    0.0299    constr:    0.0000
     atom:   90    charge:    2.1428    magn:    0.0294    constr:    0.0000
     atom:   91    charge:    2.1443    magn:    0.0289    constr:    0.0000
     atom:   92    charge:    2.1543    magn:    0.0212    constr:    0.0000
     atom:   93    charge:    2.1449    magn:    0.0304    constr:    0.0000
     atom:   94    charge:    2.1432    magn:    0.0293    constr:    0.0000
     atom:   95    charge:    2.1212    magn:    0.0139    constr:    0.0000
     atom:   96    charge:    2.1420    magn:    0.0277    constr:    0.0000
     atom:   97    charge:    7.4645    magn:    1.0841    constr:    0.0000
     atom:   98    charge:    7.4334    magn:    1.0953    constr:    0.0000
     atom:   99    charge:    7.4347    magn:    1.0953    constr:    0.0000
     atom:  100    charge:    7.4332    magn:    1.0942    constr:    0.0000
     atom:  101    charge:    2.9024    magn:    0.0518    constr:    0.0000
     atom:  102    charge:    2.9673    magn:    0.0391    constr:    0.0000
     atom:  103    charge:    2.9019    magn:    0.0518    constr:    0.0000
     atom:  104    charge:    2.9038    magn:    0.0520    constr:    0.0000
     atom:  105    charge:    2.9067    magn:    0.0513    constr:    0.0000
     atom:  106    charge:    2.9158    magn:    0.0311    constr:    0.0000
     atom:  107    charge:    2.9076    magn:    0.0534    constr:    0.0000
     atom:  108    charge:    2.9098    magn:    0.0510    constr:    0.0000
     atom:  109    charge:    2.9034    magn:    0.0507    constr:    0.0000
     atom:  110    charge:    2.9019    magn:    0.0528    constr:    0.0000
     atom:  111    charge:    2.9018    magn:    0.0515    constr:    0.0000
     atom:  112    charge:    2.9046    magn:    0.0511    constr:    0.0000
     atom:  113    charge:    2.9057    magn:    0.0521    constr:    0.0000
     atom:  114    charge:    2.9072    magn:    0.0525    constr:    0.0000
     atom:  115    charge:    2.9062    magn:    0.0526    constr:    0.0000
     atom:  116    charge:    2.9100    magn:    0.0525    constr:    0.0000
     atom:  117    charge:    2.9122    magn:    0.0129    constr:    0.0000
     atom:  118    charge:    2.9106    magn:    0.0125    constr:    0.0000
     atom:  119    charge:    2.9100    magn:    0.0123    constr:    0.0000
     atom:  120    charge:    2.9101    magn:    0.0116    constr:    0.0000
     atom:  121    charge:    2.9104    magn:    0.0123    constr:    0.0000
     atom:  122    charge:    2.9103    magn:    0.0118    constr:    0.0000
     atom:  123    charge:    3.0127    magn:    0.0106    constr:    0.0000
     atom:  124    charge:    2.9221    magn:    0.0115    constr:    0.0000

     total cpu time spent up to now is     1737.4 secs

     End of self-consistent calculation

 ------ SPIN UP ------------


          k = 0.0000 0.0000 0.0000 ( 91663 PWs)   bands (ev):

   -29.3541 -21.8012 -21.4069 -21.3246 -21.2785 -21.2409 -21.2114 -21.1873
   -21.1732 -21.0604 -21.0341 -21.0110 -20.9888 -20.9340 -20.9151 -20.9070
   -19.3587 -18.4412 -18.2789 -18.2294 -18.2243 -18.2201 -18.1912 -18.1662
   -18.1098 -18.0711 -18.0614 -18.0506 -18.0435 -18.0307 -18.0212 -18.0056
   -17.7088 -17.6729 -17.6084 -17.5502 -17.5285 -17.5033 -17.4895 -17.4285
   -15.0992 -14.2977 -14.2790 -14.2662 -14.2387 -14.2318 -14.2209 -14.2008
   -13.7097 -13.2161 -13.1727 -13.0550 -13.0000 -12.9763 -12.8881 -12.8155
   -12.6831 -11.4546 -10.7109 -10.5861 -10.5817 -10.5179 -10.5131 -10.4853
   -10.4009 -10.3913 -10.3786 -10.3426 -10.2990 -10.2797 -10.2699 -10.2512
   -10.1600 -10.0089  -9.1719  -8.6081  -8.3909  -8.3390  -8.2634  -8.2327
    -8.2075  -8.1284  -8.1173  -7.7553  -7.6878  -7.6554  -7.6419  -7.5926
    -7.5777  -7.5234  -7.4289  -7.3798  -6.8387  -6.7751  -6.6375  -6.5151
    -6.4901  -6.4637  -6.4510  -6.4227  -6.3727  -6.3158  -6.3109  -6.2583
    -6.2195  -6.1973  -6.1637  -6.0946  -6.0575  -6.0219  -5.9609  -5.9303
    -5.8293  -5.8259  -5.7371  -5.6835  -5.6746  -5.6577  -5.6242  -5.5314
    -5.5185  -5.4587  -5.4281  -5.3795  -5.3749  -5.3354  -5.3009  -5.2863
    -5.2236  -5.2038  -5.1695  -5.1561  -5.1352  -5.0935  -5.0693  -5.0604
    -5.0400  -5.0207  -4.9931  -4.9569  -4.9283  -4.8740  -4.8536  -4.8198
    -4.7635  -4.6996  -4.6645  -4.6361  -4.6178  -4.5937  -4.5811  -4.5692
    -4.4362  -4.4256  -4.3848  -4.3461  -4.3014  -4.1840  -4.1271  -4.0639
    -3.9210  -3.8589  -3.7955  -3.7697  -3.7555  -3.6955  -3.6246  -3.5134
    -3.4027  -3.3601  -3.2577  -3.2346  -3.2158  -3.1742  -3.1712  -3.1343
    -3.0931  -3.0449  -3.0375  -3.0015  -2.9855  -2.8845  -2.7546  -2.6738
    -2.6551  -2.6064  -2.5744  -2.5534  -2.4754  -2.4207  -2.3973  -2.3413
    -2.3083  -2.2774  -2.2611  -2.2324  -2.1900  -2.0803  -2.0284  -1.9922
    -1.9727  -1.8074  -1.7457  -1.7187  -1.6946  -1.6478  -1.6211  -1.5709
    -1.5449  -1.5012  -1.4753  -1.4647  -1.4163  -1.3782  -1.3191  -1.3012
    -1.2695  -1.2296  -1.1839  -1.1533  -1.1264  -1.0925  -1.0769  -1.0180
    -0.9370  -0.9042  -0.8615  -0.8324  -0.7938  -0.7839  -0.7633  -0.7507
    -0.7213  -0.7142  -0.6908  -0.6588  -0.6470  -0.6178  -0.6055  -0.5390
    -0.4877  -0.4047  -0.3606  -0.3377   0.0125   0.0460   0.0948   0.1375
     0.1480   0.1773   0.2860   0.8903   1.1935   1.2070   1.2952   1.3279
     1.4763   1.4855   1.5054   1.7429   2.8124   3.0707   3.1918   3.2432
     3.2716   3.3251   3.3487   3.3862   3.7355   3.9947   4.0822   4.1260
     4.1532   4.1811   4.2962   4.4074   4.4994   4.6564   4.7744   4.8820
     4.9229   4.9322   4.9586   5.0700   5.1823   5.4506   5.7032   5.7602
     5.8702   5.9258   5.9511   5.9787   6.0105   6.0239   6.1319   6.1734
     6.2652   6.4445   6.5223   6.5321   6.5956   6.6172   6.7125   6.7306
     6.7942   6.8879   6.9142   6.9909   7.0486   7.1009   7.1707   7.2256

 ------ SPIN DOWN ----------


          k = 0.0000 0.0000 0.0000 ( 91663 PWs)   bands (ev):

   -29.2862 -21.7394 -21.3808 -21.2870 -21.2283 -21.1951 -21.1595 -21.1471
   -21.1378 -20.9640 -20.9535 -20.9261 -20.9021 -20.8415 -20.8224 -20.8171
   -19.2800 -18.3975 -18.2314 -18.1771 -18.1645 -18.1601 -18.1393 -18.1027
   -18.0376 -17.9496 -17.9407 -17.9288 -17.9203 -17.9184 -17.9118 -17.8989
   -17.6684 -17.6168 -17.5582 -17.4986 -17.4729 -17.4517 -17.4377 -17.3782
   -15.0568 -14.2609 -14.2404 -14.2283 -14.2003 -14.1944 -14.1827 -14.1634
   -13.6622 -13.1757 -13.1317 -13.0154 -12.9582 -12.9342 -12.8482 -12.7753
   -12.6404 -11.4048 -10.6685 -10.5485 -10.5432 -10.4768 -10.4700 -10.4447
   -10.3664 -10.3538 -10.3368 -10.3082 -10.2648 -10.2466 -10.2350 -10.2176
   -10.1224  -9.9378  -9.1299  -8.5769  -8.3614  -8.3068  -8.2333  -8.2047
    -8.1788  -8.0977  -8.0828  -7.7139  -7.6440  -7.6115  -7.5965  -7.5482
    -7.5328  -7.4789  -7.3872  -7.3257  -6.7981  -6.7360  -6.5838  -6.4692
    -6.4440  -6.4178  -6.4000  -6.3782  -6.3244  -6.2688  -6.2668  -6.2153
    -6.1782  -6.1487  -6.1183  -6.0608  -6.0191  -5.9899  -5.9120  -5.8787
    -5.7738  -5.7666  -5.6716  -5.6281  -5.6037  -5.5935  -5.5474  -5.4602
    -5.4402  -5.3774  -5.3411  -5.2912  -5.2773  -5.2550  -5.2278  -5.2225
    -5.1595  -5.1378  -5.0872  -5.0761  -5.0487  -5.0119  -4.9857  -4.9761
    -4.9455  -4.9229  -4.9164  -4.8814  -4.8478  -4.7956  -4.7634  -4.7520
    -4.6869  -4.6612  -4.6192  -4.5830  -4.5605  -4.5375  -4.5233  -4.5047
    -4.3787  -4.3438  -4.3269  -4.2836  -4.2454  -4.0811  -4.0251  -3.9888
    -3.8529  -3.7751  -3.7175  -3.6834  -3.6784  -3.6204  -3.5312  -3.4280
    -3.3296  -3.2648  -3.1873  -3.1412  -3.0814  -3.0636  -3.0467  -3.0224
    -3.0049  -2.9620  -2.9344  -2.8538  -2.7251  -2.6899  -2.5830  -2.4214
    -2.4092  -2.3970  -2.3831  -2.3112  -2.3040  -2.2581  -2.2346  -2.2203
    -2.1774  -2.0972  -2.0705  -2.0257  -1.9695  -1.8726  -1.8104  -1.7612
    -1.7335  -1.5519  -1.4904  -1.4029  -1.3720  -1.3215  -1.3015  -1.2506
    -1.2195  -1.1802  -1.1569  -1.1472  -1.1118  -1.1073  -1.0677  -1.0106
    -0.9881  -0.9455  -0.9220  -0.8803  -0.8247  -0.7764  -0.7583  -0.7287
    -0.6790  -0.6286  -0.5675  -0.5330  -0.4909  -0.4789  -0.3602  -0.2844
    -0.1532  -0.0835  -0.0563  -0.0073   0.0224   0.0854   0.0962   0.1166
     0.1538   0.1718   0.1877   0.2027   0.2436   0.2564   0.2762   0.2905
     0.3179   0.3982   0.4583   1.5730   1.7803   1.9513   1.9865   2.0254
     2.1511   2.1867   2.1918   2.2437   2.9213   3.1856   3.2831   3.3388
     3.3693   3.4272   3.4541   3.4876   3.8206   4.0760   4.1536   4.1985
     4.2252   4.2587   4.3720   4.4738   4.5734   4.7159   4.8259   4.9470
     4.9667   4.9789   5.0067   5.1365   5.2142   5.5296   5.7683   5.8229
     5.9276   5.9763   6.0136   6.0437   6.0789   6.0878   6.1799   6.2251
     6.3288   6.5049   6.5832   6.5916   6.6592   6.6629   6.7659   6.7797
     6.8329   6.9470   6.9713   7.0348   7.0802   7.1300   7.2076   7.2675

     the spin up/dw Fermi energies are     1.7022    1.3693 ev

!    total energy              =   -2117.28065143 Ry
     Harris-Foulkes estimate   =   -2117.28065161 Ry
     estimated scf accuracy    <       0.00000059 Ry

     The total energy is the sum of the following terms:

     one-electron contribution =   -2697.32402412 Ry
     hartree contribution      =    1546.94007565 Ry
     xc contribution           =    -609.91995638 Ry
     ewald contribution        =    -359.38641001 Ry
     Dispersion Correction     =      -0.63283667 Ry
     smearing contrib. (-TS)   =       3.04250010 Ry

     total magnetization       =     8.00 Bohr mag/cell
     absolute magnetization    =     8.22 Bohr mag/cell

     convergence has been achieved in  26 iterations

     Forces acting on atoms (cartesian axes, Ry/au):

     atom    1 type  1   force =    -0.04484465    0.02904713   -0.06045937
     atom    2 type  1   force =    -0.04519877   -0.02832882   -0.06145985
     atom    3 type  1   force =     0.02337547    0.02039302   -0.00294524
     atom    4 type  1   force =     0.02504813   -0.02101958   -0.00252812
     atom    5 type  1   force =    -0.01054105   -0.00569251   -0.02249795
     atom    6 type  1   force =    -0.01274184    0.00457779   -0.02312814
     atom    7 type  1   force =     0.05116505   -0.02755023   -0.06515578
     atom    8 type  1   force =     0.05533410    0.01626988   -0.04040138
     atom    9 type  1   force =    -0.00636635    0.01659852    0.01740803
     atom   10 type  1   force =    -0.00646369   -0.01586304    0.02707252
     atom   11 type  1   force =    -0.00148594   -0.01525530    0.02489778
     atom   12 type  1   force =    -0.00027638    0.01639415    0.02710405
     atom   13 type  1   force =     0.00290506   -0.03064373   -0.02259945
     atom   14 type  1   force =     0.00300820    0.03601148   -0.02461925
     atom   15 type  1   force =    -0.00487777    0.02611188   -0.02011412
     atom   16 type  1   force =    -0.00270652   -0.03225864   -0.02231816
     atom   17 type  1   force =     0.01191262    0.00542284   -0.01951618
     atom   18 type  1   force =     0.01618706   -0.00190520   -0.02412470
     atom   19 type  1   force =    -0.02498534   -0.02005945   -0.00375671
     atom   20 type  1   force =     0.00381920    0.02860075    0.07633887
     atom   21 type  1   force =    -0.01079589    0.00786490   -0.00294301
     atom   22 type  1   force =    -0.01232353   -0.00668889   -0.00465202
     atom   23 type  1   force =     0.00384729   -0.00230803   -0.00346055
     atom   24 type  1   force =    -0.23212473   -0.00249695    0.40704807
     atom   25 type  1   force =    -0.04426064    0.02900389   -0.06233930
     atom   26 type  1   force =    -0.04435998   -0.02736918   -0.06193175
     atom   27 type  1   force =     0.02062215    0.02305958   -0.00024399
     atom   28 type  1   force =     0.02147431   -0.02301324   -0.00035093
     atom   29 type  1   force =    -0.01224410   -0.00437068   -0.02184104
     atom   30 type  1   force =    -0.01298884    0.00508645   -0.02328959
     atom   31 type  1   force =    -0.00712284    0.00487499    0.01314952
     atom   32 type  1   force =     0.04702009    0.02825324   -0.06043013
     atom   33 type  1   force =    -0.00004969   -0.00846087   -0.00270059
     atom   34 type  1   force =    -0.00145015   -0.01829613    0.02399797
     atom   35 type  1   force =    -0.00136406   -0.01709190    0.02712231
     atom   36 type  1   force =    -0.00008694    0.01625383    0.02707488
     atom   37 type  1   force =     0.00288359   -0.03272928   -0.01975965
     atom   38 type  1   force =     0.00276280    0.03646574   -0.02424262
     atom   39 type  1   force =     0.01334658    0.04293424   -0.01104591
     atom   40 type  1   force =    -0.01131395    0.00497232    0.00038805
     atom   41 type  1   force =    -0.03998752   -0.02590666   -0.01459940
     atom   42 type  1   force =     0.01868252   -0.00783628   -0.00347902
     atom   43 type  1   force =     0.00391709   -0.02190304   -0.01853488
     atom   44 type  1   force =    -0.01983617    0.02453360   -0.00302138
     atom   45 type  1   force =    -0.01473470    0.01131308   -0.00269011
     atom   46 type  1   force =    -0.01116521   -0.00870153   -0.00151032
     atom   47 type  1   force =     0.00308634   -0.00347915   -0.00041284
     atom   48 type  1   force =     0.01334050    0.00933369   -0.00276854
     atom   49 type  1   force =    -0.06859473   -0.05058122    0.01245125
     atom   50 type  1   force =    -0.06730195    0.04973726    0.01284824
     atom   51 type  1   force =     0.06205120    0.04960899    0.01224182
     atom   52 type  1   force =     0.07163758   -0.04701759    0.00842031
     atom   53 type  1   force =    -0.07240467   -0.05404117    0.00850319
     atom   54 type  1   force =    -0.06823095    0.05261378    0.00976781
     atom   55 type  1   force =     0.18152610   -0.21063822   -0.23204448
     atom   56 type  1   force =     0.03650317   -0.03765186    0.01738689
     atom   57 type  2   force =    -0.00224657    0.00123445   -0.00174244
     atom   58 type  2   force =    -0.00178350   -0.00154056   -0.00200731
     atom   59 type  2   force =     0.00188412    0.00503199   -0.00724671
     atom   60 type  2   force =     0.00385286   -0.00075857   -0.00146589
     atom   61 type  2   force =    -0.00430938   -0.00010340   -0.00196720
     atom   62 type  2   force =    -0.00423058   -0.00045094   -0.00184932
     atom   63 type  2   force =    -0.00070271   -0.00822777   -0.01524827
     atom   64 type  2   force =    -0.00179397    0.01268869   -0.01965200
     atom   65 type  2   force =     0.00369127    0.00878780   -0.01562775
     atom   66 type  2   force =     0.00231888   -0.00775890   -0.01563990
     atom   67 type  2   force =     0.00147423    0.00324016   -0.00378514
     atom   68 type  2   force =    -0.00200811    0.00129780   -0.00201602
     atom   69 type  2   force =    -0.00167773   -0.00137342   -0.00226299
     atom   70 type  2   force =    -0.00296085   -0.00230509   -0.00051408
     atom   71 type  2   force =    -0.00116017    0.00011499    0.00241558
     atom   72 type  2   force =     0.00454363   -0.00019734   -0.00204147
     atom   73 type  2   force =    -0.00414790    0.00001013   -0.00232320
     atom   74 type  2   force =    -0.00414300   -0.00037665   -0.00194385
     atom   75 type  2   force =    -0.00187486   -0.01045462   -0.01651595
     atom   76 type  2   force =    -0.00205604    0.01195615   -0.01890193
     atom   77 type  2   force =     0.00513884    0.00999710   -0.01530736
     atom   78 type  2   force =     0.00172595    0.00006890   -0.00076894
     atom   79 type  2   force =     0.00149120   -0.00127382   -0.00310267
     atom   80 type  2   force =    -0.00015014    0.00320667   -0.00342429
     atom   81 type  3   force =    -0.00757327   -0.00523116   -0.01038783
     atom   82 type  3   force =    -0.00910963    0.00242762   -0.01470757
     atom   83 type  3   force =     0.00017713    0.00970455   -0.01588942
     atom   84 type  3   force =     0.00815271   -0.00024006   -0.01355100
     atom   85 type  3   force =    -0.00828611   -0.00005753   -0.01300703
     atom   86 type  3   force =    -0.00893826    0.00194861   -0.01429142
     atom   87 type  3   force =    -0.01059105    0.00142324   -0.00342868
     atom   88 type  3   force =     0.00781520   -0.00022963   -0.00955996
     atom   89 type  3   force =     0.01136275   -0.07928542    0.09418680
     atom   90 type  3   force =     0.00989622    0.07495150    0.08929750
     atom   91 type  3   force =    -0.01794865    0.07548214    0.08304164
     atom   92 type  3   force =    -0.01111293   -0.06504327    0.09122196
     atom   93 type  3   force =     0.01609974   -0.08160473    0.09263709
     atom   94 type  3   force =     0.01361813    0.07690946    0.08714806
     atom   95 type  3   force =    -0.01991962    0.08924761    0.07004775
     atom   96 type  3   force =    -0.00412038   -0.07489230    0.08286133
     atom   97 type  4   force =    -0.03756912    0.04766532    0.00234851
     atom   98 type  4   force =     0.00098926   -0.00329438    0.00357164
     atom   99 type  4   force =     0.01328473    0.00113967    0.00765881
     atom  100 type  4   force =    -0.00116082   -0.00197159    0.00410720
     atom  101 type  5   force =    -0.00358339   -0.00193145    0.00074202
     atom  102 type  5   force =     0.28317166    0.49723405    0.02752066
     atom  103 type  5   force =     0.00567087    0.00022867    0.00409244
     atom  104 type  5   force =     0.00490056    0.00071436    0.00407871
     atom  105 type  5   force =     0.00154005   -0.00637293   -0.00341004
     atom  106 type  5   force =     0.05164232    0.01619968    0.02008071
     atom  107 type  5   force =    -0.00323713    0.01642036    0.00825938
     atom  108 type  5   force =     0.00422891   -0.00508194    0.00450920
     atom  109 type  5   force =     0.00031846    0.00325036    0.00242177
     atom  110 type  5   force =    -0.00644019    0.00056983    0.00560637
     atom  111 type  5   force =     0.00679643   -0.00051984    0.00577465
     atom  112 type  5   force =     0.00358017   -0.00068532    0.00388367
     atom  113 type  5   force =    -0.00267104    0.00188216    0.00053170
     atom  114 type  5   force =    -0.00082786    0.01181203    0.00659452
     atom  115 type  5   force =    -0.00219620    0.00758930    0.00486621
     atom  116 type  5   force =    -0.00244903   -0.01077829    0.00644394
     atom  117 type  5   force =     0.11536168    0.01738901   -0.00146505
     atom  118 type  5   force =     0.11423710   -0.02619415   -0.00062633
     atom  119 type  5   force =    -0.09870150   -0.04338092    0.01533713
     atom  120 type  5   force =    -0.11417622    0.02306531    0.00131627
     atom  121 type  5   force =     0.10822871    0.03541216    0.01287120
     atom  122 type  5   force =     0.10586480   -0.04172184    0.01115926
     atom  123 type  5   force =    -0.15862604   -0.36058989   -0.36728708
     atom  124 type  5   force =    -0.13080126   -0.01255277    0.00702734

     Total force =     1.149606     Total SCF correction =     0.001922

     BFGS Geometry Optimization

     number of scf cycles    =   1
     number of bfgs steps    =   0

     energy   new            =   -2117.2806514344 Ry

     new trust radius        =       0.5000000000 bohr
     new conv_thr            =       0.0000010000 Ry


ATOMIC_POSITIONS (crystal)
C             0.2865063184        0.9711212544        0.5192661605
C             0.0366594214        0.0300612369        0.0195451854
C             0.3914949016        0.0125220920        0.5463596020
C             0.1411670182        0.9869688006        0.0460323530
C             0.4515072881        0.9699920611        0.6493596458
C             0.2020304921        0.0285218281        0.1488533172
C             0.2100173409        0.5286879511        0.5234550417
C             0.4605555656        0.4720090310        0.0260878303
C             0.2449161173        0.6139431512        0.6072175460
C             0.4966024292        0.3880919732        0.1098339954
C             0.2494414903        0.8886433866        0.6043222339
C             0.0010809668        0.1128366139        0.1054654126
C             0.4080658017        0.8882528632        0.7265360834
C             0.1600259585        0.1108750986        0.2267052867
C             0.0886653966        0.6099460025        0.7264478066
C             0.3407717831        0.3904433057        0.2283907282
C             0.0473489945        0.5252789935        0.6504346858
C             0.2982360895        0.4746407364        0.1516695185
C             0.1072381591        0.4835302102        0.5499471241
C             0.3580355062        0.5167107917        0.0540696736
C             0.4329088745        0.0996090565        0.4664887023
C             0.1810580569        0.8994733145        0.9654628768
C             0.0675172585        0.3943888802        0.4705204373
C             0.3078030998        0.6040799127        0.9874050973
C             0.7865263493        0.9711196598        0.5191816516
C             0.5366900136        0.0300966283        0.0195239721
C             0.8913954252        0.0126204344        0.5464810319
C             0.6410368099        0.9868952747        0.0461302248
C             0.9514449279        0.9700408101        0.6493891760
C             0.7020212379        0.0285405875        0.1488460593
C             0.7079296947        0.5298837890        0.5269751123
C             0.9602331240        0.4724509757        0.0251874748
C             0.7451329555        0.6130189642        0.6063135998
C             0.9967850756        0.3880022410        0.1096957848
C             0.7494478114        0.8885756529        0.6044222335
C             0.5010879394        0.1128314389        0.1054641014
C             0.9080673321        0.8881759485        0.7266637411
C             0.6600162032        0.1108918516        0.2267222174
C             0.5893458839        0.6105664089        0.7268554513
C             0.8404724664        0.3918163785        0.2294114439
C             0.5454362225        0.5241235658        0.6506557110
C             0.7983451433        0.4744219992        0.1525976068
C             0.6082935035        0.4834622187        0.5492827984
C             0.8570969314        0.5165607959        0.0505021796
C             0.9327636118        0.0997362250        0.4665000712
C             0.6811034070        0.8993990888        0.9656041065
C             0.5674906480        0.3943456894        0.4706574413
C             0.8165334310        0.6045162251        0.9689825452
C             0.1268608215        0.9751355713        0.3926357230
C             0.8766568916        0.0289153033        0.8935845689
C             0.3631057124        0.5342355729        0.3944623087
C             0.6175656336        0.4737739977        0.9020595197
C             0.6297198815        0.9696639688        0.3868332453
C             0.3796880612        0.0343423890        0.8878430939
C             0.3903643470        0.5109766906        0.7533658674
C             0.1162763727        0.4741204043        0.9024635958
H             0.0319786032        0.9988505263        0.6734416717
H             0.2822724890        0.9986081845        0.1725117650
H             0.3227046562        0.6506915793        0.5923092374
H             0.0751090959        0.3528230241        0.0949621037
H             0.1699932349        0.8551191868        0.5884715681
H             0.4221642416        0.1477153694        0.0898028671
H             0.4533315723        0.8548695610        0.8080755422
H             0.2061566669        0.1435709574        0.3079135807
H             0.0438525420        0.6432680930        0.8059054831
H             0.2964508465        0.3572398527        0.3083479371
H             0.2190033500        0.5053204966        0.1750938460
H             0.5319861864        0.9988528626        0.6734293737
H             0.7822761860        0.9986143483        0.1725002714
H             0.7585902283        0.5008099887        0.4492588907
H             0.8226001284        0.6505102407        0.5927435878
H             0.5751341369        0.3528437221        0.0949362296
H             0.6699989078        0.8551233738        0.5884555649
H             0.9221673988        0.1477181093        0.0897986179
H             0.9532872451        0.8547874351        0.8080185557
H             0.7061486016        0.1435439414        0.3079472987
H             0.5439062662        0.6433126918        0.8059198857
H             0.7964411142        0.3575285410        0.3090164337
H             0.9687245351        0.4931840216        0.6733625252
H             0.7189436537        0.5053192616        0.1751100672
N             0.3081488028        0.8510600757        0.7043610341
N             0.0603805273        0.1489465303        0.2053908481
N             0.1865355423        0.6506679027        0.7051237202
N             0.4391000124        0.3509191466        0.2074318398
N             0.8081203332        0.8512508783        0.7042432927
N             0.5603871971        0.1489288644        0.2054095554
N             0.6861490426        0.6503624890        0.7056838699
N             0.9390908125        0.3509195314        0.2076112496
N             0.2238897091        0.0066079642        0.4196459943
N             0.9731295467        0.9958122014        0.9197692050
N             0.2712770520        0.4943937714        0.4253699843
N             0.5219462038        0.5079162128        0.9274877153
N             0.7242833894        0.0061314285        0.4191643298
N             0.4734892471        0.9962734107        0.9192625807
N             0.4424996290        0.4854474397        0.6797358677
N             0.0221986150        0.5075539820        0.9271128787
Ni            0.2456164051        0.7532438908        0.8364315731
Ni            0.5000114578        0.2478775038        0.3393385565
Ni            0.7474989022        0.7515280311        0.8366702876
Ni            0.9999324885        0.2479262882        0.3393626316
O             0.1226462640        0.3476177685        0.3829063560
O             0.3816887128        0.6693149252        0.8825291406
O             0.3778427867        0.1475154333        0.3773619680
O             0.1252823261        0.8523783456        0.8764443509
O             0.4731230880        0.3559249671        0.4828407078
O             0.2230607011        0.6420124422        0.9807796915
O             0.0287272025        0.1357635808        0.4814492850
O             0.2768458727        0.8625705788        0.9796017029
O             0.6227927427        0.3478088730        0.3829818664
O             0.8709747354        0.6509980153        0.8815440242
O             0.8778857326        0.1474878283        0.3774375890
O             0.6252334016        0.8523267254        0.8764355831
O             0.9729707872        0.3562294137        0.4830179014
O             0.7211118203        0.6418506262        0.9801734444
O             0.5287628703        0.1354378925        0.4812967517
O             0.7766008235        0.8623604982        0.9796886753
O             0.0445973805        0.9462073043        0.3708091415
O             0.7947415331        0.0589679631        0.8723378446
O             0.4413862683        0.5701101174        0.3691964523
O             0.6984402795        0.4427596454        0.8820711703
O             0.5499986716        0.9368099956        0.3608616012
O             0.3002189664        0.0684153041        0.8623166442
O             0.3221250814        0.5407854933        0.8302422847
O             0.1978319502        0.4414470554        0.8823299010



     Writing output data file /nfs/hpc/share/gantzlen/NiPyC2_relax_sc211_meta_functionalized_N-C-O_pbesol_relax.save/
     NEW-OLD atomic charge density approx. for the potential

     Check: negative core charge=   -0.000145

     total cpu time spent up to now is     1761.7 secs

     Self-consistent Calculation

     iteration #  1     ecut=   100.00 Ry     beta= 0.70
     Davidson diagonalization with overlap
     ethr =  1.00E-06,  avg # of iterations = 16.0

     total cpu time spent up to now is     2119.6 secs

     total energy              =   -2117.42688834 Ry
     Harris-Foulkes estimate   =   -2117.72980925 Ry
     estimated scf accuracy    <       1.08001641 Ry

     total magnetization       =     8.00 Bohr mag/cell
     absolute magnetization    =     8.22 Bohr mag/cell

     iteration #  2     ecut=   100.00 Ry     beta= 0.70
     Davidson diagonalization with overlap
     ethr =  2.11E-04,  avg # of iterations =  4.0

     total cpu time spent up to now is     2185.3 secs

     total energy              =   -2117.46260073 Ry
     Harris-Foulkes estimate   =   -2117.60147610 Ry
     estimated scf accuracy    <       0.49885493 Ry

     total magnetization       =     8.00 Bohr mag/cell
     absolute magnetization    =     8.21 Bohr mag/cell

     iteration #  3     ecut=   100.00 Ry     beta= 0.70
     Davidson diagonalization with overlap
     ethr =  9.74E-05,  avg # of iterations =  2.5

     total cpu time spent up to now is     2249.5 secs

     total energy              =   -2117.51138773 Ry
     Harris-Foulkes estimate   =   -2117.56564056 Ry
     estimated scf accuracy    <       0.34854793 Ry

     total magnetization       =     8.00 Bohr mag/cell
     absolute magnetization    =     8.21 Bohr mag/cell

     iteration #  4     ecut=   100.00 Ry     beta= 0.70
     Davidson diagonalization with overlap
     ethr =  6.81E-05,  avg # of iterations =  2.0

     total cpu time spent up to now is     2311.7 secs

     total energy              =   -2117.52024132 Ry
     Harris-Foulkes estimate   =   -2117.55477856 Ry
     estimated scf accuracy    <       0.47396846 Ry

     total magnetization       =     8.00 Bohr mag/cell
     absolute magnetization    =     8.20 Bohr mag/cell

     iteration #  5     ecut=   100.00 Ry     beta= 0.70
     Davidson diagonalization with overlap
     ethr =  6.81E-05,  avg # of iterations =  1.0

     total cpu time spent up to now is     2369.9 secs

     total energy              =   -2117.52881027 Ry
     Harris-Foulkes estimate   =   -2117.53425365 Ry
     estimated scf accuracy    <       0.03816528 Ry

     total magnetization       =     8.00 Bohr mag/cell
     absolute magnetization    =     8.20 Bohr mag/cell

     iteration #  6     ecut=   100.00 Ry     beta= 0.70
     Davidson diagonalization with overlap
     ethr =  7.45E-06,  avg # of iterations =  9.5

     total cpu time spent up to now is     2444.9 secs

     total energy              =   -2117.52810257 Ry
     Harris-Foulkes estimate   =   -2117.53346904 Ry
     estimated scf accuracy    <       0.05342676 Ry

     total magnetization       =     8.00 Bohr mag/cell
     absolute magnetization    =     8.20 Bohr mag/cell

     iteration #  7     ecut=   100.00 Ry     beta= 0.70
     Davidson diagonalization with overlap
     ethr =  7.45E-06,  avg # of iterations =  1.0

     total cpu time spent up to now is     2506.4 secs

     total energy              =   -2117.52959981 Ry
     Harris-Foulkes estimate   =   -2117.53066219 Ry
     estimated scf accuracy    <       0.00632189 Ry

     total magnetization       =     8.00 Bohr mag/cell
     absolute magnetization    =     8.19 Bohr mag/cell

     iteration #  8     ecut=   100.00 Ry     beta= 0.70
     Davidson diagonalization with overlap
     ethr =  1.23E-06,  avg # of iterations =  9.5

     total cpu time spent up to now is     2583.5 secs

     total energy              =   -2117.52967537 Ry
     Harris-Foulkes estimate   =   -2117.53008845 Ry
     estimated scf accuracy    <       0.00474982 Ry

     total magnetization       =     8.00 Bohr mag/cell
     absolute magnetization    =     8.19 Bohr mag/cell

     iteration #  9     ecut=   100.00 Ry     beta= 0.70
     Davidson diagonalization with overlap
     ethr =  9.28E-07,  avg # of iterations =  1.0

     total cpu time spent up to now is     2643.0 secs

     total energy              =   -2117.52991324 Ry
     Harris-Foulkes estimate   =   -2117.53000765 Ry
     estimated scf accuracy    <       0.00254518 Ry

     total magnetization       =     8.00 Bohr mag/cell
     absolute magnetization    =     8.19 Bohr mag/cell

     iteration # 10     ecut=   100.00 Ry     beta= 0.70
     Davidson diagonalization with overlap
     ethr =  4.97E-07,  avg # of iterations =  2.0

     total cpu time spent up to now is     2703.7 secs

     total energy              =   -2117.53003406 Ry
     Harris-Foulkes estimate   =   -2117.53000423 Ry
     estimated scf accuracy    <       0.00065842 Ry

     total magnetization       =     8.00 Bohr mag/cell
     absolute magnetization    =     8.19 Bohr mag/cell

     iteration # 11     ecut=   100.00 Ry     beta= 0.70
     Davidson diagonalization with overlap
     ethr =  1.29E-07,  avg # of iterations =  2.5

     total cpu time spent up to now is     2766.0 secs

     total energy              =   -2117.53009162 Ry
     Harris-Foulkes estimate   =   -2117.53006984 Ry
     estimated scf accuracy    <       0.00021470 Ry

     total magnetization       =     8.00 Bohr mag/cell
     absolute magnetization    =     8.19 Bohr mag/cell

     iteration # 12     ecut=   100.00 Ry     beta= 0.70
     Davidson diagonalization with overlap
     ethr =  4.19E-08,  avg # of iterations =  3.0

     total cpu time spent up to now is     2830.8 secs

     total energy              =   -2117.53010006 Ry
     Harris-Foulkes estimate   =   -2117.53010874 Ry
     estimated scf accuracy    <       0.00017238 Ry

     total magnetization       =     8.00 Bohr mag/cell
     absolute magnetization    =     8.19 Bohr mag/cell

     iteration # 13     ecut=   100.00 Ry     beta= 0.70
     Davidson diagonalization with overlap
     ethr =  3.37E-08,  avg # of iterations =  1.5

     total cpu time spent up to now is     2891.0 secs

     total energy              =   -2117.53010670 Ry
     Harris-Foulkes estimate   =   -2117.53011908 Ry
     estimated scf accuracy    <       0.00022529 Ry

     total magnetization       =     8.00 Bohr mag/cell
     absolute magnetization    =     8.19 Bohr mag/cell

     iteration # 14     ecut=   100.00 Ry     beta= 0.70
     Davidson diagonalization with overlap
     ethr =  3.37E-08,  avg # of iterations =  2.0

     total cpu time spent up to now is     2952.6 secs

     total energy              =   -2117.53011643 Ry
     Harris-Foulkes estimate   =   -2117.53011829 Ry
     estimated scf accuracy    <       0.00005897 Ry

     total magnetization       =     8.00 Bohr mag/cell
     absolute magnetization    =     8.19 Bohr mag/cell

     iteration # 15     ecut=   100.00 Ry     beta= 0.70
     Davidson diagonalization with overlap
     ethr =  1.15E-08,  avg # of iterations =  2.5

     total cpu time spent up to now is     3014.3 secs

     total energy              =   -2117.53011873 Ry
     Harris-Foulkes estimate   =   -2117.53012092 Ry
     estimated scf accuracy    <       0.00003255 Ry

     total magnetization       =     8.00 Bohr mag/cell
     absolute magnetization    =     8.19 Bohr mag/cell

     iteration # 16     ecut=   100.00 Ry     beta= 0.70
     Davidson diagonalization with overlap
     ethr =  6.36E-09,  avg # of iterations =  2.5

     total cpu time spent up to now is     3076.5 secs

     total energy              =   -2117.53011990 Ry
     Harris-Foulkes estimate   =   -2117.53012129 Ry
     estimated scf accuracy    <       0.00001135 Ry

     total magnetization       =     8.00 Bohr mag/cell
     absolute magnetization    =     8.19 Bohr mag/cell

     iteration # 17     ecut=   100.00 Ry     beta= 0.70
     Davidson diagonalization with overlap
     ethr =  2.22E-09,  avg # of iterations =  3.0

     total cpu time spent up to now is     3139.3 secs

     total energy              =   -2117.53012074 Ry
     Harris-Foulkes estimate   =   -2117.53012096 Ry
     estimated scf accuracy    <       0.00000817 Ry

     total magnetization       =     8.00 Bohr mag/cell
     absolute magnetization    =     8.19 Bohr mag/cell

     iteration # 18     ecut=   100.00 Ry     beta= 0.70
     Davidson diagonalization with overlap
     ethr =  1.60E-09,  avg # of iterations =  1.5

     total cpu time spent up to now is     3199.7 secs

     total energy              =   -2117.53012107 Ry
     Harris-Foulkes estimate   =   -2117.53012143 Ry
     estimated scf accuracy    <       0.00000475 Ry

     total magnetization       =     8.00 Bohr mag/cell
     absolute magnetization    =     8.19 Bohr mag/cell

     iteration # 19     ecut=   100.00 Ry     beta= 0.70
     Davidson diagonalization with overlap
     ethr =  9.28E-10,  avg # of iterations =  1.5

     total cpu time spent up to now is     3261.4 secs

     total energy              =   -2117.53012118 Ry
     Harris-Foulkes estimate   =   -2117.53012155 Ry
     estimated scf accuracy    <       0.00000739 Ry

     total magnetization       =     8.00 Bohr mag/cell
     absolute magnetization    =     8.19 Bohr mag/cell

     iteration # 20     ecut=   100.00 Ry     beta= 0.70
     Davidson diagonalization with overlap
     ethr =  9.28E-10,  avg # of iterations =  1.5

     total cpu time spent up to now is     3322.8 secs

     total energy              =   -2117.53012152 Ry
     Harris-Foulkes estimate   =   -2117.53012151 Ry
     estimated scf accuracy    <       0.00000107 Ry

     total magnetization       =     8.00 Bohr mag/cell
     absolute magnetization    =     8.19 Bohr mag/cell

     iteration # 21     ecut=   100.00 Ry     beta= 0.70
     Davidson diagonalization with overlap
     ethr =  2.09E-10,  avg # of iterations =  3.0
 
     Magnetic moment per site:
     atom:    1    charge:    0.8310    magn:    0.0031    constr:    0.0000
     atom:    2    charge:    0.8306    magn:    0.0032    constr:    0.0000
     atom:    3    charge:    0.8472    magn:    0.0060    constr:    0.0000
     atom:    4    charge:    0.8469    magn:    0.0058    constr:    0.0000
     atom:    5    charge:    0.8462    magn:    0.0043    constr:    0.0000
     atom:    6    charge:    0.8472    magn:    0.0044    constr:    0.0000
     atom:    7    charge:    0.8325    magn:    0.0029    constr:    0.0000
     atom:    8    charge:    0.8310    magn:    0.0037    constr:    0.0000
     atom:    9    charge:    0.8402    magn:    0.0091    constr:    0.0000
     atom:   10    charge:    0.8409    magn:    0.0076    constr:    0.0000
     atom:   11    charge:    0.8387    magn:    0.0087    constr:    0.0000
     atom:   12    charge:    0.8389    magn:    0.0086    constr:    0.0000
     atom:   13    charge:    0.8422    magn:    0.0066    constr:    0.0000
     atom:   14    charge:    0.8418    magn:    0.0067    constr:    0.0000
     atom:   15    charge:    0.8429    magn:    0.0062    constr:    0.0000
     atom:   16    charge:    0.8421    magn:    0.0065    constr:    0.0000
     atom:   17    charge:    0.8464    magn:    0.0043    constr:    0.0000
     atom:   18    charge:    0.8524    magn:    0.0039    constr:    0.0000
     atom:   19    charge:    0.8482    magn:    0.0061    constr:    0.0000
     atom:   20    charge:    0.8551    magn:    0.0048    constr:    0.0000
     atom:   21    charge:    0.8253    magn:   -0.0015    constr:    0.0000
     atom:   22    charge:    0.8256    magn:   -0.0012    constr:    0.0000
     atom:   23    charge:    0.8249    magn:   -0.0017    constr:    0.0000
     atom:   24    charge:    0.7125    magn:   -0.0003    constr:    0.0000
     atom:   25    charge:    0.8311    magn:    0.0031    constr:    0.0000
     atom:   26    charge:    0.8309    magn:    0.0032    constr:    0.0000
     atom:   27    charge:    0.8472    magn:    0.0060    constr:    0.0000
     atom:   28    charge:    0.8469    magn:    0.0060    constr:    0.0000
     atom:   29    charge:    0.8457    magn:    0.0044    constr:    0.0000
     atom:   30    charge:    0.8473    magn:    0.0045    constr:    0.0000
     atom:   31    charge:    0.8471    magn:    0.0044    constr:    0.0000
     atom:   32    charge:    0.8300    magn:    0.0032    constr:    0.0000
     atom:   33    charge:    0.8382    magn:    0.0053    constr:    0.0000
     atom:   34    charge:    0.8380    magn:    0.0082    constr:    0.0000
     atom:   35    charge:    0.8388    magn:    0.0088    constr:    0.0000
     atom:   36    charge:    0.8389    magn:    0.0087    constr:    0.0000
     atom:   37    charge:    0.8421    magn:    0.0066    constr:    0.0000
     atom:   38    charge:    0.8418    magn:    0.0067    constr:    0.0000
     atom:   39    charge:    0.8430    magn:    0.0061    constr:    0.0000
     atom:   40    charge:    0.8390    magn:    0.0059    constr:    0.0000
     atom:   41    charge:    0.8272    magn:    0.0060    constr:    0.0000
     atom:   42    charge:    0.8465    magn:    0.0040    constr:    0.0000
     atom:   43    charge:    0.8506    magn:    0.0043    constr:    0.0000
     atom:   44    charge:    0.8450    magn:    0.0063    constr:    0.0000
     atom:   45    charge:    0.8253    magn:   -0.0014    constr:    0.0000
     atom:   46    charge:    0.8257    magn:   -0.0015    constr:    0.0000
     atom:   47    charge:    0.8256    magn:   -0.0012    constr:    0.0000
     atom:   48    charge:    0.8264    magn:   -0.0016    constr:    0.0000
     atom:   49    charge:    0.8655    magn:    0.0022    constr:    0.0000
     atom:   50    charge:    0.8654    magn:    0.0022    constr:    0.0000
     atom:   51    charge:    0.8650    magn:    0.0023    constr:    0.0000
     atom:   52    charge:    0.8663    magn:    0.0025    constr:    0.0000
     atom:   53    charge:    0.8640    magn:    0.0023    constr:    0.0000
     atom:   54    charge:    0.8660    magn:    0.0023    constr:    0.0000
     atom:   55    charge:    0.8861    magn:    0.0019    constr:    0.0000
     atom:   56    charge:    0.8722    magn:    0.0016    constr:    0.0000
     atom:   57    charge:    0.4802    magn:   -0.0012    constr:    0.0000
     atom:   58    charge:    0.4801    magn:   -0.0012    constr:    0.0000
     atom:   59    charge:    0.4894    magn:   -0.0011    constr:    0.0000
     atom:   60    charge:    0.4889    magn:   -0.0011    constr:    0.0000
     atom:   61    charge:    0.4889    magn:   -0.0011    constr:    0.0000
     atom:   62    charge:    0.4894    magn:   -0.0010    constr:    0.0000
     atom:   63    charge:    0.4837    magn:   -0.0001    constr:    0.0000
     atom:   64    charge:    0.4837    magn:    0.0000    constr:    0.0000
     atom:   65    charge:    0.4849    magn:   -0.0003    constr:    0.0000
     atom:   66    charge:    0.4835    magn:   -0.0003    constr:    0.0000
     atom:   67    charge:    0.4795    magn:   -0.0013    constr:    0.0000
     atom:   68    charge:    0.4804    magn:   -0.0012    constr:    0.0000
     atom:   69    charge:    0.4801    magn:   -0.0012    constr:    0.0000
     atom:   70    charge:    0.4816    magn:   -0.0014    constr:    0.0000
     atom:   71    charge:    0.4899    magn:   -0.0012    constr:    0.0000
     atom:   72    charge:    0.4870    magn:   -0.0011    constr:    0.0000
     atom:   73    charge:    0.4890    magn:   -0.0011    constr:    0.0000
     atom:   74    charge:    0.4894    magn:   -0.0010    constr:    0.0000
     atom:   75    charge:    0.4853    magn:   -0.0001    constr:    0.0000
     atom:   76    charge:    0.4836    magn:    0.0000    constr:    0.0000
     atom:   77    charge:    0.4817    magn:    0.0001    constr:    0.0000
     atom:   78    charge:    0.4879    magn:   -0.0011    constr:    0.0000
     atom:   79    charge:    0.4798    magn:   -0.0013    constr:    0.0000
     atom:   80    charge:    0.4810    magn:   -0.0013    constr:    0.0000
     atom:   81    charge:    2.1514    magn:    0.0103    constr:    0.0000
     atom:   82    charge:    2.1521    magn:    0.0099    constr:    0.0000
     atom:   83    charge:    2.1515    magn:    0.0109    constr:    0.0000
     atom:   84    charge:    2.1534    magn:    0.0103    constr:    0.0000
[...]
     atom    7 type  1   force =    -0.00003434   -0.00011929   -0.00006575
     atom    8 type  1   force =    -0.00050213   -0.00037125   -0.00000242
     atom    9 type  1   force =     0.00029902    0.00011100    0.00019036
     atom   10 type  1   force =     0.00027940    0.00011980    0.00036832
     atom   11 type  1   force =     0.00056330    0.00043163    0.00011168
     atom   12 type  1   force =    -0.00026121   -0.00056607    0.00001747
     atom   13 type  1   force =    -0.00020585    0.00037764    0.00003684
     atom   14 type  1   force =    -0.00003585   -0.00019658    0.00026037
     atom   15 type  1   force =    -0.00022351    0.00014578    0.00050286
     atom   16 type  1   force =     0.00019533    0.00018317   -0.00053376
     atom   17 type  1   force =    -0.00023383   -0.00045623   -0.00043626
     atom   18 type  1   force =    -0.00005620    0.00005648    0.00007090
     atom   19 type  1   force =     0.00009430    0.00040902   -0.00007465
     atom   20 type  1   force =     0.00003392   -0.00016705   -0.00006965
     atom   21 type  1   force =     0.00012309    0.00013569   -0.00004632
     atom   22 type  1   force =    -0.00010105   -0.00057917   -0.00005043
     atom   23 type  1   force =     0.00019821   -0.00001690   -0.00027623
     atom   24 type  1   force =     0.00034287    0.00024450   -0.00013531
     atom   25 type  1   force =     0.00042339    0.00033755   -0.00012338
     atom   26 type  1   force =     0.00000747    0.00015423   -0.00000044
     atom   27 type  1   force =    -0.00003639   -0.00047215    0.00032411
     atom   28 type  1   force =    -0.00011849   -0.00007947   -0.00019741
     atom   29 type  1   force =     0.00011820    0.00027894   -0.00008123
     atom   30 type  1   force =    -0.00003184   -0.00012410   -0.00002972
     atom   31 type  1   force =    -0.00005564   -0.00017741   -0.00022563
     atom   32 type  1   force =     0.00013121    0.00001800   -0.00056270
     atom   33 type  1   force =    -0.00026126    0.00050059    0.00003265
     atom   34 type  1   force =     0.00002832   -0.00009721   -0.00013330
     atom   35 type  1   force =    -0.00058893    0.00013600   -0.00011336
     atom   36 type  1   force =     0.00024994   -0.00014226    0.00003923
     atom   37 type  1   force =    -0.00009338   -0.00007769    0.00031048
     atom   38 type  1   force =     0.00037335   -0.00024974   -0.00016470
     atom   39 type  1   force =    -0.00061791    0.00000991    0.00008304
     atom   40 type  1   force =     0.00038773    0.00030087    0.00036329
     atom   41 type  1   force =    -0.00000065   -0.00073404   -0.00017927
     atom   42 type  1   force =    -0.00012085   -0.00044352   -0.00002170
     atom   43 type  1   force =    -0.00002491   -0.00024129   -0.00059485
     atom   44 type  1   force =    -0.00052550    0.00031440   -0.00012600
     atom   45 type  1   force =    -0.00045084   -0.00021773   -0.00001372
     atom   46 type  1   force =     0.00014688   -0.00014482    0.00012148
     atom   47 type  1   force =    -0.00036186   -0.00009496   -0.00049074
     atom   48 type  1   force =     0.00003370    0.00019417    0.00007268
     atom   49 type  1   force =    -0.00004711    0.00041913    0.00005305
     atom   50 type  1   force =    -0.00011088    0.00021212   -0.00003902
     atom   51 type  1   force =    -0.00053759   -0.00021693    0.00047747
     atom   52 type  1   force =    -0.00008186   -0.00016283    0.00036695
     atom   53 type  1   force =    -0.00007985    0.00015098   -0.00050021
     atom   54 type  1   force =     0.00003002    0.00009006   -0.00002304
     atom   55 type  1   force =    -0.00050807    0.00013272   -0.00019108
     atom   56 type  1   force =    -0.00005941   -0.00002728   -0.00011990
     atom   57 type  2   force =     0.00036320    0.00012246    0.00027313
     atom   58 type  2   force =    -0.00007988    0.00011855   -0.00001827
     atom   59 type  2   force =     0.00045255    0.00023906   -0.00024365
     atom   60 type  2   force =    -0.00046779    0.00028661   -0.00027366
     atom   61 type  2   force =     0.00008978   -0.00018999    0.00027712
     atom   62 type  2   force =    -0.00020209    0.00009734    0.00009278
     atom   63 type  2   force =     0.00019254    0.00033183   -0.00003451
     atom   64 type  2   force =     0.00007710   -0.00005813    0.00022948
     atom   65 type  2   force =    -0.00023878   -0.00006815   -0.00004185
     atom   66 type  2   force =     0.00027857   -0.00005808    0.00003774
     atom   67 type  2   force =    -0.00009839   -0.00035093   -0.00005139
     atom   68 type  2   force =     0.00003170   -0.00020874   -0.00014115
     atom   69 type  2   force =    -0.00010401    0.00014962    0.00006468
     atom   70 type  2   force =    -0.00003667    0.00024634    0.00002185
     atom   71 type  2   force =     0.00019954   -0.00005771   -0.00001994
     atom   72 type  2   force =    -0.00025573    0.00010269    0.00027910
     atom   73 type  2   force =     0.00076049   -0.00000950   -0.00036968
     atom   74 type  2   force =    -0.00050980   -0.00031592    0.00009423
     atom   75 type  2   force =    -0.00003555    0.00029081   -0.00058083
     atom   76 type  2   force =     0.00023491   -0.00019914    0.00033956
     atom   77 type  2   force =    -0.00011108   -0.00016201   -0.00003342
     atom   78 type  2   force =    -0.00042679    0.00011665   -0.00027682
     atom   79 type  2   force =     0.00040763    0.00008808    0.00025282
     atom   80 type  2   force =    -0.00021808    0.00039535    0.00011408
     atom   81 type  3   force =    -0.00012892   -0.00026490   -0.00003987
     atom   82 type  3   force =    -0.00037880   -0.00000974    0.00003234
     atom   83 type  3   force =    -0.00000730   -0.00048686   -0.00006062
     atom   84 type  3   force =    -0.00023637    0.00006717    0.00031501
     atom   85 type  3   force =     0.00010038    0.00022708    0.00009603
     atom   86 type  3   force =     0.00014964   -0.00012801    0.00010850
     atom   87 type  3   force =    -0.00003294   -0.00040907   -0.00018028
     atom   88 type  3   force =    -0.00004627   -0.00033474   -0.00027965
     atom   89 type  3   force =    -0.00006769   -0.00069797    0.00037913
     atom   90 type  3   force =     0.00061836   -0.00023950    0.00064689
     atom   91 type  3   force =    -0.00025008    0.00030574    0.00052747
     atom   92 type  3   force =     0.00031705   -0.00025647    0.00001355
     atom   93 type  3   force =    -0.00004397    0.00023227   -0.00008587
     atom   94 type  3   force =     0.00010563   -0.00007683    0.00003212
     atom   95 type  3   force =    -0.00030312   -0.00047920    0.00043253
     atom   96 type  3   force =     0.00032033   -0.00049943    0.00002513
     atom   97 type  4   force =    -0.00063553   -0.00048946    0.00048734
     atom   98 type  4   force =     0.00044691    0.00078039   -0.00006268
     atom   99 type  4   force =     0.00027436    0.00060793    0.00031645
     atom  100 type  4   force =     0.00041564    0.00071366    0.00016088
     atom  101 type  5   force =    -0.00006182   -0.00009482   -0.00025995
     atom  102 type  5   force =    -0.00008667   -0.00023492    0.00012187
     atom  103 type  5   force =    -0.00028940   -0.00010255   -0.00006621
     atom  104 type  5   force =     0.00035962   -0.00037313    0.00012007
     atom  105 type  5   force =    -0.00013508   -0.00000757   -0.00003678
     atom  106 type  5   force =     0.00005796    0.00021440    0.00006187
     atom  107 type  5   force =    -0.00017645   -0.00019084   -0.00023750
     atom  108 type  5   force =     0.00012707   -0.00025638   -0.00000060
     atom  109 type  5   force =     0.00034481    0.00008366    0.00007041
     atom  110 type  5   force =     0.00035417    0.00072250   -0.00009476
     atom  111 type  5   force =    -0.00014138   -0.00001665    0.00012848
     atom  112 type  5   force =     0.00000275    0.00011813    0.00012987
     atom  113 type  5   force =     0.00003427    0.00056649    0.00014928
     atom  114 type  5   force =    -0.00025701    0.00002120   -0.00005750
     atom  115 type  5   force =     0.00012829   -0.00005654   -0.00028035
     atom  116 type  5   force =    -0.00002589   -0.00028463    0.00018210
     atom  117 type  5   force =    -0.00036059   -0.00009613    0.00042553
     atom  118 type  5   force =     0.00023874    0.00010767   -0.00010991
     atom  119 type  5   force =     0.00017014    0.00049882   -0.00028692
     atom  120 type  5   force =    -0.00035977    0.00008431    0.00013499
     atom  121 type  5   force =     0.00032327   -0.00006419   -0.00034972
     atom  122 type  5   force =     0.00031919    0.00012289   -0.00019041
     atom  123 type  5   force =     0.00053168    0.00066693   -0.00077015
     atom  124 type  5   force =    -0.00013761    0.00001446    0.00023706

     Total force =     0.005388     Total SCF correction =     0.000171

     bfgs converged in  98 scf cycles and  91 bfgs steps
     (criteria: energy <  1.0E-04 Ry, force <  1.0E-03 Ry/Bohr)

     End of BFGS Geometry Optimization

     Final energy   =   -2118.3546986666 Ry
Begin final coordinates

ATOMIC_POSITIONS (crystal)
C             0.2822195315        0.9662381984        0.5315109554
C             0.0339947837        0.0475088150        0.0324285154
C             0.3882377386        0.0067098875        0.5429350037
C             0.1378856863        1.0025636610        0.0493532202
C             0.4553612465        0.9568561324        0.6344160004
C             0.2039786974        0.0501610286        0.1437313353
C             0.2090888140        0.5523760962        0.5283745941
C             0.4658488499        0.4710736398        0.0387255179
C             0.2431248136        0.6336383055        0.6171495111
C             0.4997157543        0.3884721263        0.1253564582
C             0.2463996113        0.8922052292        0.6263655702
C            -0.0015189893        0.1243825453        0.1244304019
C             0.4169109811        0.8768221764        0.7171417950
C             0.1659249582        0.1318784437        0.2243947265
C             0.0849401285        0.6239464878        0.7300771898
C             0.3327821835        0.3801175088        0.2182818259
C             0.0456547853        0.5446027297        0.6453865200
C             0.2955169508        0.4650529668        0.1401176297
C             0.1084382691        0.5029544637        0.5472169183
C             0.3619807433        0.5151422179        0.0515199066
C             0.4295546921        0.0956376727        0.4645250180
C             0.1774375814        0.9106631987        0.9741482185
C             0.0698914960        0.4089211980        0.4742050856
C             0.3221440204        0.6076747640        0.9758096309
C             0.7865526250        0.9627280478        0.5233839957
C             0.5358716018        0.0391373008        0.0193657494
C             0.8888182467        0.0101309871        0.5439874621
C             0.6404582502        0.9954292636        0.0333737387
C             0.9549332582        0.9633589634        0.6390192700
C             0.7072217949        0.0434993709        0.1269488809
C             0.7213506448        0.5125149951        0.5486172799
C             0.9496307280        0.4563157866        0.0277133236
C             0.7570627963        0.5974860301        0.6265372148
C             0.9875371383        0.3792704923        0.1194953055
C             0.7532601177        0.8809302513        0.6099750284
C             0.5013473354        0.1159753173        0.1117629527
C             0.9188187669        0.8787549322        0.7161133195
C             0.6701667226        0.1253057427        0.2081237276
C             0.5885807584        0.6212830421        0.7144506372
C             0.8417606762        0.4079126612        0.2504414250
C             0.5482522427        0.5331101235        0.6407926225
C             0.8058054985        0.4924786807        0.1713655467
C             0.6153571347        0.4788820704        0.5530268913
C             0.8607912459        0.5208583523        0.0597829471
C             0.9276795866        0.1037418298        0.4720915045
C             0.6811546557        0.9047658298        0.9564985478
C             0.5730501150        0.3894965210        0.4742133958
C             0.8220828653        0.6089882324        0.9764882676
C             0.1281605292        0.9524399891        0.3953650696
C             0.8825475839        0.0614029552        0.8907802096
C             0.3634922833        0.5594423473        0.4000306872
C             0.6191983344        0.4590550465        0.9118115481
C             0.6332653887        0.9500385566        0.3867011294
C             0.3800638348        0.0542017447        0.8876274126
C             0.3829796487        0.4618489147        0.7315582424
C             0.0527297779        0.3910437772        0.8578894485
H             0.0345121274        0.9948704799        0.6586240953
H             0.2853297255        1.0222560096        0.1602403274
H             0.3214564636        0.6700074648        0.6064276833
H             0.0616310604        0.3364843470        0.1016055341
H             0.1628494885        0.8674321756        0.6253059671
H             0.4188017068        0.1440158321        0.1076502136
H             0.4687072905        0.8381566882        0.7886681285
H             0.2169486211        0.1679251252        0.2986614660
H             0.0387154208        0.6519393549        0.8112880628
H             0.2823974890        0.3434296731        0.2901720902
H             0.2143204122        0.4931245886        0.1527999612
H             0.5382130336        0.9814945566        0.6464643703
H             0.7889495399        1.0158847322        0.1413054944
H             0.7789256043        0.4721839427        0.4884967625
H             0.8393404277        0.6248987349        0.6261615365
H             0.5814659198        0.3584856283        0.1214827584
H             0.6723906169        0.8487240109        0.6009119023
H             0.9163553794        0.1534548226        0.1183529786
H             0.9688138811        0.8442253854        0.7926259749
H             0.7217347580        0.1624894209        0.2811592374
H             0.5370560930        0.6625452648        0.7819235726
H             0.7971834717        0.3803262065        0.3332736193
H             0.9670774809        0.5115975410        0.6625823987
H             0.7334909355        0.5347183199        0.1973802601
N             0.3119587285        0.8507672841        0.7170714281
N             0.0624138567        0.1632036543        0.2186143884
N             0.1840439358        0.6651041486        0.7165395061
N             0.4351764307        0.3454542515        0.2123836502
N             0.8172229408        0.8422710893        0.7038994259
N             0.5662111418        0.1558071508        0.2040399435
N             0.6913925919        0.6496005859        0.7083106075
N             0.9341753705        0.3556612892        0.2263605478
N             0.2144138840       -0.0079359777        0.4324895365
N             0.9681644988        1.0225840954        0.9311959523
N             0.2741259513        0.5257902034        0.4302931104
N             0.5333904049        0.5003474930        0.9438814200
N             0.7195371172       -0.0102147247        0.4240222409
N             0.4673007884        1.0140101015        0.9207706761
N             0.4465626753        0.5011458252        0.6568693168
N            -0.0042585099        0.4597432807        0.9099114528
Ni            0.2493110270        0.7586254350        0.8529522578
Ni            0.5007905413        0.2448547237        0.3404997825
Ni            0.7535094341        0.7507678913        0.8375950546
Ni            0.9996001799        0.2558064524        0.3557458510
O             0.1242854529        0.3581108002        0.3896466106
O             0.3771211017        0.6594211491        0.8923420137
O             0.3757277664        0.1457201804        0.3756906849
O             0.1227430351        0.8598551777        0.8869880261
O             0.4772740104        0.3539939335        0.4845432642
O             0.2265764452        0.6435774387        0.9888559878
O             0.0229820907        0.1404290710        0.4916645997
O             0.2725559737        0.8734516833        0.9927947143
O             0.6280028250        0.3413779741        0.3874879192
O             0.8771511237        0.6524462910        0.8866483615
O             0.8728682577        0.1561698032        0.3865021067
O             0.6268380560        0.8526600820        0.8700740786
O             0.9762365256        0.3696565798        0.4927362079
O             0.7279934406        0.6486510372        0.9879864805
O             0.5254568947        0.1307298246        0.4815058014
O             0.7773539501        0.8703832417        0.9733315565
O             0.0492536166        0.9221195251        0.3452099664
O             0.8042846823        0.0908317306        0.8382686018
O             0.4457638204        0.5835291378        0.3574211311
O             0.6978251675        0.4264869520        0.8673287398
O             0.5537505163        0.9200942452        0.3378536537
O             0.2997940472        0.0848688056        0.8415945918
O             0.3151076065        0.4226641656        0.7917247604
O             0.1022331431        0.3322579624        0.7956192660
End final coordinates



     Writing output data file /nfs/hpc/share/gantzlen/NiPyC2_relax_sc211_meta_functionalized_N-C-O_pbesol_relax.save/
 
     init_run     :     37.93s CPU     40.88s WALL (       1 calls)
     electrons    :  83200.93s CPU 103471.93s WALL (      98 calls)
     update_pot   :    601.13s CPU    646.62s WALL (      97 calls)
     forces       :   1484.65s CPU   1775.26s WALL (      98 calls)

     Called by init_run:
     wfcinit      :     30.51s CPU     33.13s WALL (       1 calls)
     potinit      :      3.10s CPU      3.32s WALL (       1 calls)
     hinit0       :      2.72s CPU      2.81s WALL (       1 calls)

     Called by electrons:
     c_bands      :  78596.09s CPU  96894.58s WALL (    1408 calls)
     sum_band     :   2951.51s CPU   4213.55s WALL (    1408 calls)
     v_of_rho     :    821.16s CPU   1062.53s WALL (    1486 calls)
     mix_rho      :    811.72s CPU   1198.62s WALL (    1408 calls)

     Called by c_bands:
     init_us_2    :     61.40s CPU     69.12s WALL (    2817 calls)
     regterg      :  78202.83s CPU  94883.20s WALL (    1408 calls)

     Called by sum_band:

     Called by *egterg:
     h_psi        :  27449.62s CPU  33738.53s WALL (    4854 calls)
     g_psi        :     14.32s CPU     15.24s WALL (    3445 calls)
     rdiaghg      :   4944.30s CPU   4976.35s WALL (    4736 calls)

     Called by h_psi:
     h_psi:calbec :   8359.23s CPU  10229.38s WALL (    4854 calls)
     vloc_psi     :  10858.28s CPU  15238.91s WALL (    4854 calls)
     add_vuspsi   :   8172.47s CPU   8203.94s WALL (    4854 calls)

     General routines
     calbec       :   9394.51s CPU  11507.09s WALL (    5246 calls)
     fft          :    525.90s CPU    825.47s WALL (   23407 calls)
     ffts         :    557.21s CPU    835.43s WALL (   24746 calls)
     fftw         :  11783.67s CPU  17111.98s WALL ( 1201508 calls)
 
     Parallel routines
     fft_scatt_xy :   1992.33s CPU   2217.68s WALL ( 1249661 calls)
     fft_scatt_yz :   4069.60s CPU   8989.59s WALL ( 1249661 calls)
 
     PWSCF        :     23h43m CPU   1d 5h27m WALL

 
   This run was terminated on:  17:40: 8  26Jun2020            

=------------------------------------------------------------------------------=
   JOB DONE.
=------------------------------------------------------------------------------=
QE finished Fri Jun 26 17:40:08 PDT 2020
