/apps/openmpi/3.1_intel-19/bin/mpiexec
/apps/qe/6.5/bin/pw.x
starting QE Sat Aug 1 12:09:49 PDT 2020

     Program PWSCF v.6.5 starts on  1Aug2020 at 12: 9:50 

     This program is part of the open-source Quantum ESPRESSO suite
     for quantum simulation of materials; please cite
         "P. Giannozzi et al., J. Phys.:Condens. Matter 21 395502 (2009);
         "P. Giannozzi et al., J. Phys.:Condens. Matter 29 465901 (2017);
          URL http://www.quantum-espresso.org", 
     in publications or presentations arising from this work. More details at
     http://www.quantum-espresso.org/quote

     Parallel version (MPI & OpenMP), running on      16 processor cores
     Number of MPI processes:                16
     Threads/MPI process:                     1

     MPI processes distributed on     1 nodes
     K-points division:     npool     =       2
     R & G space division:  proc/nbgrp/npool/nimage =       8
     Reading input from ./QE_input_scripts/pw.NiPyC2_relax_sc211_ortho_functionalized_C-C_pbesol_relax.in
Warning: card &CELL ignored
Warning: card    CELL_DYNAMICS = 'BFGS' ignored
Warning: card    CELL_DOFREE = 'XYZ' ignored
Warning: card / ignored

     Current dimensions of program PWSCF are:
     Max number of different atomic species (ntypx) = 10
     Max number of k-points (npk) =  40000
     Max angular momentum in pseudopotentials (lmaxx) =  3

     -------------------------------------------------
     Parameters for Dispersion (Grimme-D2) Correction:
     -------------------------------------------------
       atom      VdW radius       C_6     

        C          2.744         60.710
        H          1.892          4.857
        N          2.640         42.670
        Ni         2.952        374.666
        O          2.536         24.284

     gamma-point specific algorithms are used

     Subspace diagonalization in iterative solution of the eigenvalue problem:
     a serial algorithm will be used

 
     Parallelization info
     --------------------
     sticks:   dense  smooth     PW     G-vecs:    dense   smooth      PW
     Min        2228    2228    556               183376   183376   22914
     Max        2230    2230    558               183380   183380   22917
     Sum       17829   17829   4453              1467017  1467017  183325
 


     bravais-lattice index     =            0
     lattice parameter (alat)  =      23.6322  a.u.
     unit-cell volume          =   10858.6228 (a.u.)^3
     number of atoms/cell      =          124
     number of atomic types    =            5
     number of electrons       =       464.00 (up: 236.00, down: 228.00)
     number of Kohn-Sham states=          283
     kinetic-energy cutoff     =     100.0000  Ry
     charge density cutoff     =     400.0000  Ry
     convergence threshold     =      1.0E-06
     mixing beta               =       0.7000
     number of iterations used =            8  local-TF  mixing
     Exchange-correlation= PBESOL
                           (   1   4  10   8   0   0   0)
     nstep                     =          200


     celldm(1)=  23.632159  celldm(2)=   0.000000  celldm(3)=   0.000000
     celldm(4)=   0.000000  celldm(5)=   0.000000  celldm(6)=   0.000000

     crystal axes: (cart. coord. in units of alat)
               a(1) = (   1.000000   0.000000   0.000000 )  
               a(2) = (   0.000000   1.001423   0.000000 )  
               a(3) = (  -0.018199   0.000000   0.821574 )  

     reciprocal axes: (cart. coord. in units 2 pi/alat)
               b(1) = (  1.000000  0.000000  0.022152 )  
               b(2) = (  0.000000  0.998579  0.000000 )  
               b(3) = (  0.000000  0.000000  1.217175 )  


     PseudoPot. # 1 for C  read from file:
     ./pseudo/C.pbesol-nc.UPF
     MD5 check sum: ce26087537ded160c8d400e183a8bf42
     Pseudo is Norm-conserving, Zval =  4.0
     Generated using "atomic" code by A. Dal Corso v.6.5
     Using radial grid of 1073 points,  1 beta functions with: 
                l(1) =   1

     PseudoPot. # 2 for H  read from file:
     ./pseudo/H.pbesol-n-nc.UPF
     MD5 check sum: 7995ef24074557c85b430109caaacc09
     Pseudo is Norm-conserving, Zval =  1.0
     Generated using "atomic" code by A. Dal Corso v.6.5
     Using radial grid of  929 points,  0 beta functions with: 

     PseudoPot. # 3 for N  read from file:
     ./pseudo/N.pbesol-nc.UPF
     MD5 check sum: e18cc5e4b8a5600c1a19b30c2cab1ca0
     Pseudo is Norm-conserving, Zval =  5.0
     Generated using "atomic" code by A. Dal Corso v.6.5
     Using radial grid of 1085 points,  1 beta functions with: 
                l(1) =   1

     PseudoPot. # 4 for Ni read from file:
     ./pseudo/Ni.pbesol-n-nc.UPF
     MD5 check sum: 623411631e0c2eb7c0b2b9815547d2d9
     Pseudo is Norm-conserving + core correction, Zval = 10.0
     Generated using "atomic" code by A. Dal Corso v.6.5
     Using radial grid of 1195 points,  2 beta functions with: 
                l(1) =   1
                l(2) =   2

     PseudoPot. # 5 for O  read from file:
     ./pseudo/O.pbesol-nc.UPF
     MD5 check sum: 73d10e7e91dbfcbe8a7e362101007f84
     Pseudo is Norm-conserving, Zval =  6.0
     Generated using "atomic" code by A. Dal Corso v.6.5
     Using radial grid of 1095 points,  1 beta functions with: 
                l(1) =   1

     atomic species   valence    mass     pseudopotential
        C              4.00    12.01070     C ( 1.00)
        H              1.00     1.00794     H ( 1.00)
        N              5.00    14.00670     N ( 1.00)
        Ni            10.00    58.69340     Ni( 1.00)
        O              6.00    15.99940     O ( 1.00)

     Starting magnetic structure 
     atomic species   magnetization
        C            0.000
        H            0.000
        N            0.000
        Ni           0.250
        O            0.000

     No symmetry found



   Cartesian axes

     site n.     atom                  positions (alat units)
         1           C   tau(   1) = (   0.2787122   0.9714307   0.4288486  )
         2           C   tau(   2) = (   0.0379730   0.0311503   0.0183277  )
         3           C   tau(   3) = (   0.3806882   0.0117868   0.4489838  )
         4           C   tau(   4) = (   0.1394042   0.9891499   0.0379124  )
         5           C   tau(   5) = (   0.4400787   0.9715829   0.5343281  )
         6           C   tau(   6) = (   0.1997920   0.0283934   0.1231482  )
         7           C   tau(   7) = (   0.1986011   0.5304580   0.4324635  )
         8           C   tau(   8) = (   0.4580372   0.4720800   0.0229252  )
         9           C   tau(   9) = (   0.2341003   0.6142040   0.4982314  )
        10           C   tau(  10) = (   0.4948422   0.3892302   0.0892369  )
        11           C   tau(  11) = (   0.2384981   0.8904717   0.4955761  )
        12           C   tau(  12) = (  -0.0008282   0.1123917   0.0856467  )
        13           C   tau(  13) = (   0.3947360   0.8906489   0.5977380  )
        14           C   tau(  14) = (   0.1557890   0.1097029   0.1871645  )
        15           C   tau(  15) = (   0.0756247   0.6098498   0.5975737  )
        16           C   tau(  16) = (   0.3367152   0.3921904   0.1884642  )
        17           C   tau(  17) = (   0.0350715   0.5258264   0.5351012  )
        18           C   tau(  18) = (   0.2948780   0.4753867   0.1254988  )
        19           C   tau(  19) = (   0.0981522   0.4849593   0.4519611  )
        20           C   tau(  20) = (   0.3569104   0.5163900   0.0416029  )
        21           C   tau(  21) = (   0.4248178   0.0994604   0.3833638  )
        22           C   tau(  22) = (   0.1639424   0.9010006   0.7933713  )
        23           C   tau(  23) = (   0.0588120   0.3950355   0.3866953  )
        24           C   tau(  24) = (   0.2984059   0.6050320   0.7961934  )
        25           C   tau(  25) = (   0.7787122   0.9714307   0.4288486  )
        26           C   tau(  26) = (   0.5379730   0.0311503   0.0183277  )
        27           C   tau(  27) = (   0.8806882   0.0117868   0.4489838  )
        28           C   tau(  28) = (   0.6394042   0.9891499   0.0379124  )
        29           C   tau(  29) = (   0.9400787   0.9715829   0.5343281  )
        30           C   tau(  30) = (   0.6997920   0.0283934   0.1231482  )
        31           C   tau(  31) = (   0.6986021   0.5304580   0.4324635  )
        32           C   tau(  32) = (   0.9580382   0.4720800   0.0229252  )
        33           C   tau(  33) = (   0.7341003   0.6142040   0.4982314  )
        34           C   tau(  34) = (   0.9948422   0.3892302   0.0892369  )
        35           C   tau(  35) = (   0.7384981   0.8904717   0.4955761  )
        36           C   tau(  36) = (   0.4991718   0.1123917   0.0856467  )
        37           C   tau(  37) = (   0.8947360   0.8906489   0.5977380  )
        38           C   tau(  38) = (   0.6557880   0.1097029   0.1871645  )
        39           C   tau(  39) = (   0.5756247   0.6098498   0.5975737  )
        40           C   tau(  40) = (   0.8367152   0.3921904   0.1884642  )
        41           C   tau(  41) = (   0.5350715   0.5258264   0.5351012  )
        42           C   tau(  42) = (   0.7948780   0.4753867   0.1254988  )
        43           C   tau(  43) = (   0.5981522   0.4849593   0.4519611  )
        44           C   tau(  44) = (   0.8569104   0.5163900   0.0416029  )
        45           C   tau(  45) = (   0.9248178   0.0994604   0.3833638  )
        46           C   tau(  46) = (   0.6639424   0.9010006   0.7933713  )
        47           C   tau(  47) = (   0.5588110   0.3950355   0.3866953  )
        48           C   tau(  48) = (   0.7984059   0.6050320   0.7961934  )
        49           C   tau(  49) = (   0.1372737   0.8474956   0.4766790  )
        50           C   tau(  50) = (   0.0517450   0.8103918   0.4616335  )
        51           C   tau(  51) = (   0.8988416   0.1574788   0.0667849  )
        52           C   tau(  52) = (   0.8140979   0.1963601   0.0517855  )
        53           C   tau(  53) = (   0.3334486   0.6615313   0.4801132  )
        54           C   tau(  54) = (   0.4173907   0.7023162   0.4656658  )
        55           C   tau(  55) = (   0.5951253   0.3436494   0.0714934  )
        56           C   tau(  56) = (   0.6798275   0.3043396   0.0573993  )
        57           C   tau(  57) = (   0.6375248   0.8470700   0.4763142  )
        58           C   tau(  58) = (   0.5522069   0.8096077   0.4609607  )
        59           C   tau(  59) = (   0.3988416   0.1574788   0.0667849  )
        60           C   tau(  60) = (   0.3140979   0.1963601   0.0517855  )
        61           C   tau(  61) = (   0.5140399   0.6528830   0.6801731  )
        62           C   tau(  62) = (   0.4628627   0.6900658   0.7502912  )
        63           C   tau(  63) = (   0.0951253   0.3436484   0.0714934  )
        64           C   tau(  64) = (   0.1798265   0.3043386   0.0574001  )
        65           H   tau(  65) = (   0.2290596   1.0009978   0.3640502  )
        66           H   tau(  66) = (   0.4693669   0.0026958   0.7751545  )
        67           H   tau(  67) = (   0.0198054   1.0002267   0.5533467  )
        68           H   tau(  68) = (   0.2791988   1.0000865   0.1418054  )
        69           H   tau(  69) = (   0.2505234   0.5016080   0.3691185  )
        70           H   tau(  70) = (  -0.0086584   0.5011092   0.7809458  )
        71           H   tau(  71) = (   0.4386511   0.8563902   0.6644572  )
        72           H   tau(  72) = (   0.2006191   0.1433067   0.2536997  )
        73           H   tau(  73) = (   0.0290492   0.6438591   0.6626884  )
        74           H   tau(  74) = (   0.2907535   0.3580349   0.2539083  )
        75           H   tau(  75) = (   0.4564147   0.4939330   0.5533319  )
        76           H   tau(  76) = (   0.2157623   0.5059201   0.1439924  )
        77           H   tau(  77) = (   0.7290596   1.0009978   0.3640502  )
        78           H   tau(  78) = (   0.9693669   0.0026958   0.7751545  )
        79           H   tau(  79) = (   0.5198044   1.0002267   0.5533467  )
        80           H   tau(  80) = (   0.7791988   1.0000865   0.1418054  )
        81           H   tau(  81) = (   0.7505234   0.5016080   0.3691185  )
        82           H   tau(  82) = (   0.4913416   0.5011092   0.7809458  )
        83           H   tau(  83) = (   0.8118554   0.6514319   0.4868937  )
        84           H   tau(  84) = (   0.9386511   0.8563902   0.6644572  )
        85           H   tau(  85) = (   0.7006201   0.1433067   0.2536997  )
        86           H   tau(  86) = (   0.7907535   0.3580349   0.2539083  )
        87           H   tau(  87) = (   0.9564147   0.4939330   0.5533319  )
        88           H   tau(  88) = (   0.7157623   0.5059201   0.1439924  )
        89           H   tau(  89) = (   0.9767997   0.7791865   0.4469306  )
        90           H   tau(  90) = (   0.7398199   0.2291347   0.0371122  )
        91           H   tau(  91) = (   0.4910282   0.7367221   0.4515093  )
        92           H   tau(  92) = (   0.7541093   0.2712195   0.0435475  )
        93           H   tau(  93) = (   0.4774486   0.7780849   0.4459850  )
        94           H   tau(  94) = (   0.2398199   0.2291347   0.0371122  )
        95           H   tau(  95) = (   0.4166901   0.7212772   0.8111238  )
        96           H   tau(  96) = (   0.2541093   0.2712175   0.0435484  )
        97           N   tau(  97) = (   0.2956096   0.8524646   0.5790685  )
        98           N   tau(  98) = (   0.0569790   0.1490689   0.1692870  )
        99           N   tau(  99) = (   0.1736962   0.6512356   0.5798983  )
       100           N   tau( 100) = (   0.4350238   0.3514275   0.1709211  )
       101           N   tau( 101) = (   0.7956096   0.8524646   0.5790685  )
       102           N   tau( 102) = (   0.5569790   0.1490689   0.1692870  )
       103           N   tau( 103) = (   0.6736972   0.6512356   0.5798983  )
       104           N   tau( 104) = (   0.9350238   0.3514275   0.1709211  )
       105           Ni  tau( 105) = (   0.2317814   0.7525556   0.6871039  )
       106           Ni  tau( 106) = (   0.4937992   0.2483520   0.2786599  )
       107           Ni  tau( 107) = (   0.7317814   0.7525556   0.6871039  )
       108           Ni  tau( 108) = (   0.9937992   0.2483520   0.2786599  )
       109           O   tau( 109) = (   0.1158100   0.3481839   0.3145586  )
       110           O   tau( 110) = (   0.3551690   0.6519036   0.7240468  )
       111           O   tau( 111) = (   0.3707656   0.1477170   0.3098797  )
       112           O   tau( 112) = (   0.1091506   0.8535652   0.7199135  )
       113           O   tau( 113) = (   0.4642788   0.3566669   0.3968154  )
       114           O   tau( 114) = (   0.2033039   0.6423280   0.8050417  )
       115           O   tau( 115) = (   0.0200847   0.1353504   0.3952413  )
       116           O   tau( 116) = (   0.2588616   0.8639860   0.8046490  )
       117           O   tau( 117) = (   0.6158110   0.3481839   0.3145586  )
       118           O   tau( 118) = (   0.8551690   0.6519036   0.7240468  )
       119           O   tau( 119) = (   0.8707656   0.1477170   0.3098797  )
       120           O   tau( 120) = (   0.6091506   0.8535652   0.7199135  )
       121           O   tau( 121) = (   0.9642788   0.3566669   0.3968154  )
       122           O   tau( 122) = (   0.7033039   0.6423280   0.8050417  )
       123           O   tau( 123) = (   0.5200847   0.1353504   0.3952413  )
       124           O   tau( 124) = (   0.7588616   0.8639860   0.8046490  )

     number of k points=     1  Marzari-Vanderbilt smearing, width (Ry)=  0.2000
                       cart. coord. in units 2pi/alat
        k(    1) = (   0.0000000   0.0000000   0.0000000), wk =   1.0000000

     Dense  grid:   733509 G-vectors     FFT dimensions: ( 160, 160, 125)

     Estimated max dynamical RAM per process >     652.47 MB

     Estimated total dynamical RAM >      10.19 GB
     Generating pointlists ...
     new r_m :   0.0340 (alat units)  0.8043 (a.u.) for type    1
     new r_m :   0.0181 (alat units)  0.4278 (a.u.) for type    2
     new r_m :   0.0445 (alat units)  1.0514 (a.u.) for type    3
     new r_m :   0.0654 (alat units)  1.5454 (a.u.) for type    4
     new r_m :   0.0423 (alat units)  0.9991 (a.u.) for type    5

     Check: negative core charge=   -0.000145

     Initial potential from superposition of free atoms

     starting charge  463.99604, renormalised to  464.00000
     Starting wfcs are  420 randomized atomic wfcs

     total cpu time spent up to now is       96.1 secs

     Self-consistent Calculation

     iteration #  1     ecut=   100.00 Ry     beta= 0.70
     Davidson diagonalization with overlap
     ethr =  1.00E-02,  avg # of iterations =  3.0

     total cpu time spent up to now is      324.5 secs

     total energy              =   -1795.90169228 Ry
     Harris-Foulkes estimate   =   -1806.51890422 Ry
     estimated scf accuracy    <      27.59992409 Ry

     total magnetization       =     8.00 Bohr mag/cell
     absolute magnetization    =     8.92 Bohr mag/cell

     iteration #  2     ecut=   100.00 Ry     beta= 0.70
     Davidson diagonalization with overlap
     ethr =  5.95E-03,  avg # of iterations =  2.0

     total cpu time spent up to now is      467.0 secs

     total energy              =   -1800.59473327 Ry
     Harris-Foulkes estimate   =   -1805.15970929 Ry
     estimated scf accuracy    <      20.83055377 Ry

     total magnetization       =     8.00 Bohr mag/cell
     absolute magnetization    =     8.18 Bohr mag/cell

     iteration #  3     ecut=   100.00 Ry     beta= 0.70
     Davidson diagonalization with overlap
     ethr =  4.49E-03,  avg # of iterations =  1.5

     total cpu time spent up to now is      604.7 secs

     total energy              =   -1799.80589810 Ry
     Harris-Foulkes estimate   =   -1801.34063509 Ry
     estimated scf accuracy    <       5.76594035 Ry

     total magnetization       =     8.00 Bohr mag/cell
     absolute magnetization    =     8.15 Bohr mag/cell

     iteration #  4     ecut=   100.00 Ry     beta= 0.70
     Davidson diagonalization with overlap
     ethr =  1.24E-03,  avg # of iterations =  6.5

     total cpu time spent up to now is      760.9 secs

     total energy              =   -1799.84118623 Ry
     Harris-Foulkes estimate   =   -1801.44760494 Ry
     estimated scf accuracy    <      15.02553395 Ry

     total magnetization       =     8.00 Bohr mag/cell
     absolute magnetization    =     8.19 Bohr mag/cell

     iteration #  5     ecut=   100.00 Ry     beta= 0.70
     Davidson diagonalization with overlap
     ethr =  1.24E-03,  avg # of iterations =  2.0

     total cpu time spent up to now is      899.9 secs

     total energy              =   -1800.52739803 Ry
     Harris-Foulkes estimate   =   -1800.59702330 Ry
     estimated scf accuracy    <       0.42183332 Ry

     total magnetization       =     8.00 Bohr mag/cell
     absolute magnetization    =     8.20 Bohr mag/cell

     iteration #  6     ecut=   100.00 Ry     beta= 0.70
     Davidson diagonalization with overlap
     ethr =  9.09E-05,  avg # of iterations =  7.5

     total cpu time spent up to now is     1064.9 secs

     total energy              =   -1800.53278658 Ry
     Harris-Foulkes estimate   =   -1800.61910058 Ry
     estimated scf accuracy    <       1.51928049 Ry

     total magnetization       =     8.00 Bohr mag/cell
     absolute magnetization    =     8.20 Bohr mag/cell

     iteration #  7     ecut=   100.00 Ry     beta= 0.70
     Davidson diagonalization with overlap
     ethr =  9.09E-05,  avg # of iterations =  1.0

     total cpu time spent up to now is     1201.5 secs

     total energy              =   -1800.45042613 Ry
     Harris-Foulkes estimate   =   -1800.57111146 Ry
     estimated scf accuracy    <       0.89997062 Ry

     total magnetization       =     8.00 Bohr mag/cell
     absolute magnetization    =     8.20 Bohr mag/cell

     iteration #  8     ecut=   100.00 Ry     beta= 0.70
     Davidson diagonalization with overlap
     ethr =  9.09E-05,  avg # of iterations =  1.5

     total cpu time spent up to now is     1336.4 secs

     total energy              =   -1800.49507307 Ry
     Harris-Foulkes estimate   =   -1800.51358756 Ry
     estimated scf accuracy    <       0.23557120 Ry

     total magnetization       =     8.00 Bohr mag/cell
     absolute magnetization    =     8.21 Bohr mag/cell

     iteration #  9     ecut=   100.00 Ry     beta= 0.70
     Davidson diagonalization with overlap
     ethr =  5.08E-05,  avg # of iterations =  2.5

     total cpu time spent up to now is     1473.5 secs

     total energy              =   -1800.48654302 Ry
     Harris-Foulkes estimate   =   -1800.50909576 Ry
     estimated scf accuracy    <       0.19917590 Ry

     total magnetization       =     8.00 Bohr mag/cell
     absolute magnetization    =     8.21 Bohr mag/cell

     iteration # 10     ecut=   100.00 Ry     beta= 0.70
     Davidson diagonalization with overlap
     ethr =  4.29E-05,  avg # of iterations =  1.5

     total cpu time spent up to now is     1603.1 secs

     total energy              =   -1800.50086878 Ry
     Harris-Foulkes estimate   =   -1800.50017076 Ry
     estimated scf accuracy    <       0.03385426 Ry

     total magnetization       =     8.00 Bohr mag/cell
     absolute magnetization    =     8.20 Bohr mag/cell

     iteration # 11     ecut=   100.00 Ry     beta= 0.70
     Davidson diagonalization with overlap
     ethr =  7.30E-06,  avg # of iterations = 11.5

     total cpu time spent up to now is     1768.2 secs

     total energy              =   -1800.50439421 Ry
     Harris-Foulkes estimate   =   -1800.50242758 Ry
     estimated scf accuracy    <       0.00798655 Ry

     total magnetization       =     8.00 Bohr mag/cell
     absolute magnetization    =     8.19 Bohr mag/cell

     iteration # 12     ecut=   100.00 Ry     beta= 0.70
     Davidson diagonalization with overlap
     ethr =  1.72E-06,  avg # of iterations =  3.0

     total cpu time spent up to now is     1925.2 secs

     total energy              =   -1800.50458708 Ry
     Harris-Foulkes estimate   =   -1800.50565619 Ry
     estimated scf accuracy    <       0.02204253 Ry

     total magnetization       =     8.00 Bohr mag/cell
     absolute magnetization    =     8.19 Bohr mag/cell

     iteration # 13     ecut=   100.00 Ry     beta= 0.70
     Davidson diagonalization with overlap
     ethr =  1.72E-06,  avg # of iterations =  2.0

     total cpu time spent up to now is     2058.3 secs

     total energy              =   -1800.50620616 Ry
     Harris-Foulkes estimate   =   -1800.50567593 Ry
     estimated scf accuracy    <       0.00402663 Ry

     total magnetization       =     8.00 Bohr mag/cell
     absolute magnetization    =     8.18 Bohr mag/cell

     iteration # 14     ecut=   100.00 Ry     beta= 0.70
     Davidson diagonalization with overlap
     ethr =  8.68E-07,  avg # of iterations =  3.0

     total cpu time spent up to now is     2198.6 secs

     total energy              =   -1800.50668337 Ry
     Harris-Foulkes estimate   =   -1800.50641739 Ry
     estimated scf accuracy    <       0.00078650 Ry

     total magnetization       =     8.00 Bohr mag/cell
     absolute magnetization    =     8.18 Bohr mag/cell

     iteration # 15     ecut=   100.00 Ry     beta= 0.70
     Davidson diagonalization with overlap
     ethr =  1.70E-07,  avg # of iterations =  3.5

     total cpu time spent up to now is     2343.1 secs

     total energy              =   -1800.50686217 Ry
     Harris-Foulkes estimate   =   -1800.50673531 Ry
     estimated scf accuracy    <       0.00043981 Ry

     total magnetization       =     8.00 Bohr mag/cell
     absolute magnetization    =     8.18 Bohr mag/cell

     iteration # 16     ecut=   100.00 Ry     beta= 0.70
     Davidson diagonalization with overlap
     ethr =  9.48E-08,  avg # of iterations =  3.0

     total cpu time spent up to now is     2481.9 secs

     total energy              =   -1800.50689747 Ry
     Harris-Foulkes estimate   =   -1800.50689691 Ry
     estimated scf accuracy    <       0.00027091 Ry

     total magnetization       =     8.00 Bohr mag/cell
     absolute magnetization    =     8.18 Bohr mag/cell

     iteration # 17     ecut=   100.00 Ry     beta= 0.70
     Davidson diagonalization with overlap
     ethr =  5.84E-08,  avg # of iterations =  1.5

     total cpu time spent up to now is     2617.3 secs

     total energy              =   -1800.50692830 Ry
     Harris-Foulkes estimate   =   -1800.50691532 Ry
     estimated scf accuracy    <       0.00010733 Ry

     total magnetization       =     8.00 Bohr mag/cell
     absolute magnetization    =     8.18 Bohr mag/cell

     iteration # 18     ecut=   100.00 Ry     beta= 0.70
     Davidson diagonalization with overlap
     ethr =  2.31E-08,  avg # of iterations =  3.0

     total cpu time spent up to now is     2759.1 secs

     total energy              =   -1800.50693471 Ry
     Harris-Foulkes estimate   =   -1800.50694047 Ry
     estimated scf accuracy    <       0.00011357 Ry

     total magnetization       =     8.00 Bohr mag/cell
     absolute magnetization    =     8.18 Bohr mag/cell

     iteration # 19     ecut=   100.00 Ry     beta= 0.70
     Davidson diagonalization with overlap
     ethr =  2.31E-08,  avg # of iterations =  1.0

     total cpu time spent up to now is     2895.0 secs

     total energy              =   -1800.50694121 Ry
     Harris-Foulkes estimate   =   -1800.50694066 Ry
     estimated scf accuracy    <       0.00004424 Ry

     total magnetization       =     8.00 Bohr mag/cell
     absolute magnetization    =     8.18 Bohr mag/cell

     iteration # 20     ecut=   100.00 Ry     beta= 0.70
     Davidson diagonalization with overlap
     ethr =  9.54E-09,  avg # of iterations =  2.5

     total cpu time spent up to now is     3033.5 secs

     total energy              =   -1800.50694445 Ry
     Harris-Foulkes estimate   =   -1800.50694348 Ry
     estimated scf accuracy    <       0.00000814 Ry

     total magnetization       =     8.00 Bohr mag/cell
     absolute magnetization    =     8.18 Bohr mag/cell

     iteration # 21     ecut=   100.00 Ry     beta= 0.70
     Davidson diagonalization with overlap
     ethr =  1.75E-09,  avg # of iterations =  3.0

     total cpu time spent up to now is     3180.1 secs

     total energy              =   -1800.50694471 Ry
     Harris-Foulkes estimate   =   -1800.50694487 Ry
     estimated scf accuracy    <       0.00000517 Ry

     total magnetization       =     8.00 Bohr mag/cell
     absolute magnetization    =     8.18 Bohr mag/cell

     iteration # 22     ecut=   100.00 Ry     beta= 0.70
     Davidson diagonalization with overlap
     ethr =  1.11E-09,  avg # of iterations =  2.0

     total cpu time spent up to now is     3318.1 secs

     total energy              =   -1800.50694476 Ry
     Harris-Foulkes estimate   =   -1800.50694527 Ry
     estimated scf accuracy    <       0.00000862 Ry

     total magnetization       =     8.00 Bohr mag/cell
     absolute magnetization    =     8.18 Bohr mag/cell

     iteration # 23     ecut=   100.00 Ry     beta= 0.70
     Davidson diagonalization with overlap
     ethr =  1.11E-09,  avg # of iterations =  2.0

     total cpu time spent up to now is     3456.2 secs

     total energy              =   -1800.50694500 Ry
     Harris-Foulkes estimate   =   -1800.50694526 Ry
     estimated scf accuracy    <       0.00000496 Ry

     total magnetization       =     8.00 Bohr mag/cell
     absolute magnetization    =     8.18 Bohr mag/cell

     iteration # 24     ecut=   100.00 Ry     beta= 0.70
     Davidson diagonalization with overlap
     ethr =  1.07E-09,  avg # of iterations =  2.0

     total cpu time spent up to now is     3593.8 secs

     total energy              =   -1800.50694499 Ry
     Harris-Foulkes estimate   =   -1800.50694523 Ry
     estimated scf accuracy    <       0.00000223 Ry

     total magnetization       =     8.00 Bohr mag/cell
     absolute magnetization    =     8.18 Bohr mag/cell

     iteration # 25     ecut=   100.00 Ry     beta= 0.70
     Davidson diagonalization with overlap
     ethr =  4.80E-10,  avg # of iterations =  2.5

     total cpu time spent up to now is     3733.9 secs

     total energy              =   -1800.50694506 Ry
     Harris-Foulkes estimate   =   -1800.50694511 Ry
     estimated scf accuracy    <       0.00000125 Ry

     total magnetization       =     8.00 Bohr mag/cell
     absolute magnetization    =     8.18 Bohr mag/cell

     iteration # 26     ecut=   100.00 Ry     beta= 0.70
     Davidson diagonalization with overlap
     ethr =  2.70E-10,  avg # of iterations =  1.5
 
     Magnetic moment per site:
     atom:    1    charge:    0.7327    magn:    0.0054    constr:    0.0000
     atom:    2    charge:    0.7319    magn:    0.0054    constr:    0.0000
     atom:    3    charge:    0.7341    magn:    0.0036    constr:    0.0000
     atom:    4    charge:    0.7332    magn:    0.0034    constr:    0.0000
     atom:    5    charge:    0.7317    magn:    0.0047    constr:    0.0000
     atom:    6    charge:    0.7293    magn:    0.0049    constr:    0.0000
     atom:    7    charge:    0.7325    magn:    0.0055    constr:    0.0000
     atom:    8    charge:    0.7333    magn:    0.0058    constr:    0.0000
     atom:    9    charge:    0.7320    magn:    0.0029    constr:    0.0000
     atom:   10    charge:    0.7320    magn:    0.0028    constr:    0.0000
     atom:   11    charge:    0.7318    magn:    0.0026    constr:    0.0000
     atom:   12    charge:    0.7315    magn:    0.0029    constr:    0.0000
     atom:   13    charge:    0.7270    magn:    0.0042    constr:    0.0000
     atom:   14    charge:    0.7253    magn:    0.0040    constr:    0.0000
     atom:   15    charge:    0.7263    magn:    0.0037    constr:    0.0000
     atom:   16    charge:    0.7251    magn:    0.0035    constr:    0.0000
     atom:   17    charge:    0.7331    magn:    0.0049    constr:    0.0000
     atom:   18    charge:    0.7309    magn:    0.0054    constr:    0.0000
     atom:   19    charge:    0.7325    magn:    0.0031    constr:    0.0000
     atom:   20    charge:    0.7326    magn:    0.0017    constr:    0.0000
     atom:   21    charge:    0.7110    magn:   -0.0015    constr:    0.0000
     atom:   22    charge:    0.7097    magn:   -0.0012    constr:    0.0000
     atom:   23    charge:    0.7112    magn:   -0.0013    constr:    0.0000
     atom:   24    charge:    0.7138    magn:    0.0022    constr:    0.0000
     atom:   25    charge:    0.7327    magn:    0.0053    constr:    0.0000
     atom:   26    charge:    0.7321    magn:    0.0054    constr:    0.0000
     atom:   27    charge:    0.7341    magn:    0.0034    constr:    0.0000
     atom:   28    charge:    0.7333    magn:    0.0034    constr:    0.0000
     atom:   29    charge:    0.7325    magn:    0.0048    constr:    0.0000
     atom:   30    charge:    0.7293    magn:    0.0049    constr:    0.0000
     atom:   31    charge:    0.7322    magn:    0.0046    constr:    0.0000
     atom:   32    charge:    0.7320    magn:    0.0054    constr:    0.0000
     atom:   33    charge:    0.7239    magn:    0.0037    constr:    0.0000
     atom:   34    charge:    0.7322    magn:    0.0028    constr:    0.0000
     atom:   35    charge:    0.7325    magn:    0.0028    constr:    0.0000
     atom:   36    charge:    0.7315    magn:    0.0028    constr:    0.0000
     atom:   37    charge:    0.7265    magn:    0.0038    constr:    0.0000
     atom:   38    charge:    0.7253    magn:    0.0040    constr:    0.0000
     atom:   39    charge:    0.7318    magn:    0.0021    constr:    0.0000
     atom:   40    charge:    0.7252    magn:    0.0038    constr:    0.0000
     atom:   41    charge:    0.7326    magn:    0.0059    constr:    0.0000
     atom:   42    charge:    0.7310    magn:    0.0050    constr:    0.0000
     atom:   43    charge:    0.7326    magn:    0.0033    constr:    0.0000
     atom:   44    charge:    0.7330    magn:    0.0034    constr:    0.0000
     atom:   45    charge:    0.7110    magn:   -0.0015    constr:    0.0000
     atom:   46    charge:    0.7105    magn:   -0.0013    constr:    0.0000
     atom:   47    charge:    0.7111    magn:   -0.0013    constr:    0.0000
     atom:   48    charge:    0.7091    magn:   -0.0014    constr:    0.0000
     atom:   49    charge:    0.7671    magn:    0.0071    constr:    0.0000
     atom:   50    charge:    0.7614    magn:    0.0114    constr:    0.0000
     atom:   51    charge:    0.7675    magn:    0.0081    constr:    0.0000
     atom:   52    charge:    0.7966    magn:    0.0182    constr:    0.0000
     atom:   53    charge:    0.7691    magn:    0.0079    constr:    0.0000
     atom:   54    charge:    0.7975    magn:    0.0187    constr:    0.0000
     atom:   55    charge:    0.7685    magn:    0.0083    constr:    0.0000
     atom:   56    charge:    0.7974    magn:    0.0188    constr:    0.0000
     atom:   57    charge:    0.7671    magn:    0.0080    constr:    0.0000
     atom:   58    charge:    0.7990    magn:    0.0177    constr:    0.0000
     atom:   59    charge:    0.7676    magn:    0.0081    constr:    0.0000
     atom:   60    charge:    0.7967    magn:    0.0182    constr:    0.0000
     atom:   61    charge:    0.7753    magn:    0.0239    constr:    0.0000
     atom:   62    charge:    0.7720    magn:    0.0034    constr:    0.0000
     atom:   63    charge:    0.7683    magn:    0.0083    constr:    0.0000
     atom:   64    charge:    0.7975    magn:    0.0189    constr:    0.0000
     atom:   65    charge:    0.1077    magn:   -0.0003    constr:    0.0000
     atom:   66    charge:    0.1067    magn:   -0.0003    constr:    0.0000
     atom:   67    charge:    0.1074    magn:   -0.0002    constr:    0.0000
     atom:   68    charge:    0.1083    magn:   -0.0003    constr:    0.0000
     atom:   69    charge:    0.1070    magn:   -0.0003    constr:    0.0000
     atom:   70    charge:    0.1067    magn:   -0.0003    constr:    0.0000
     atom:   71    charge:    0.1069    magn:   -0.0001    constr:    0.0000
     atom:   72    charge:    0.1072    magn:   -0.0001    constr:    0.0000
     atom:   73    charge:    0.1072    magn:   -0.0002    constr:    0.0000
     atom:   74    charge:    0.1084    magn:   -0.0002    constr:    0.0000
     atom:   75    charge:    0.1072    magn:   -0.0003    constr:    0.0000
     atom:   76    charge:    0.1076    magn:   -0.0003    constr:    0.0000
     atom:   77    charge:    0.1077    magn:   -0.0003    constr:    0.0000
     atom:   78    charge:    0.1067    magn:   -0.0003    constr:    0.0000
     atom:   79    charge:    0.1074    magn:   -0.0002    constr:    0.0000
     atom:   80    charge:    0.1082    magn:   -0.0003    constr:    0.0000
     atom:   81    charge:    0.1075    magn:   -0.0003    constr:    0.0000
     atom:   82    charge:    0.1068    magn:   -0.0002    constr:    0.0000
     atom:   83    charge:    0.1080    magn:   -0.0002    constr:    0.0000
     atom:   84    charge:    0.1065    magn:   -0.0001    constr:    0.0000
     atom:   85    charge:    0.1072    magn:   -0.0001    constr:    0.0000
     atom:   86    charge:    0.1084    magn:   -0.0002    constr:    0.0000
     atom:   87    charge:    0.1077    magn:   -0.0003    constr:    0.0000
     atom:   88    charge:    0.1078    magn:   -0.0003    constr:    0.0000
     atom:   89    charge:    0.1082    magn:   -0.0002    constr:    0.0000
     atom:   90    charge:    0.1419    magn:    0.0001    constr:    0.0000
     atom:   91    charge:    0.1440    magn:    0.0001    constr:    0.0000
     atom:   92    charge:    0.1427    magn:    0.0001    constr:    0.0000
     atom:   93    charge:    0.1409    magn:    0.0002    constr:    0.0000
     atom:   94    charge:    0.1419    magn:    0.0001    constr:    0.0000
     atom:   95    charge:    0.1113    magn:    0.0006    constr:    0.0000
     atom:   96    charge:    0.1427    magn:    0.0001    constr:    0.0000
     atom:   97    charge:    2.4513    magn:    0.0185    constr:    0.0000
     atom:   98    charge:    2.4502    magn:    0.0189    constr:    0.0000
     atom:   99    charge:    2.4542    magn:    0.0187    constr:    0.0000
     atom:  100    charge:    2.4508    magn:    0.0187    constr:    0.0000
     atom:  101    charge:    2.4519    magn:    0.0163    constr:    0.0000
     atom:  102    charge:    2.4503    magn:    0.0189    constr:    0.0000
     atom:  103    charge:    2.4539    magn:    0.0198    constr:    0.0000
     atom:  104    charge:    2.4507    magn:    0.0186    constr:    0.0000
     atom:  105    charge:    7.4582    magn:    1.0682    constr:    0.0000
     atom:  106    charge:    7.4321    magn:    1.0516    constr:    0.0000
     atom:  107    charge:    7.4357    magn:    1.0443    constr:    0.0000
     atom:  108    charge:    7.4316    magn:    1.0514    constr:    0.0000
     atom:  109    charge:    3.2584    magn:    0.0529    constr:    0.0000
     atom:  110    charge:    3.3319    magn:    0.0320    constr:    0.0000
     atom:  111    charge:    3.2590    magn:    0.0537    constr:    0.0000
     atom:  112    charge:    3.2560    magn:    0.0529    constr:    0.0000
     atom:  113    charge:    3.2559    magn:    0.0536    constr:    0.0000
     atom:  114    charge:    3.2551    magn:    0.0310    constr:    0.0000
     atom:  115    charge:    3.2574    magn:    0.0555    constr:    0.0000
     atom:  116    charge:    3.2593    magn:    0.0513    constr:    0.0000
     atom:  117    charge:    3.2583    magn:    0.0528    constr:    0.0000
     atom:  118    charge:    3.2576    magn:    0.0540    constr:    0.0000
     atom:  119    charge:    3.2590    magn:    0.0537    constr:    0.0000
     atom:  120    charge:    3.2589    magn:    0.0523    constr:    0.0000
     atom:  121    charge:    3.2555    magn:    0.0539    constr:    0.0000
     atom:  122    charge:    3.2585    magn:    0.0540    constr:    0.0000
     atom:  123    charge:    3.2575    magn:    0.0553    constr:    0.0000
     atom:  124    charge:    3.2553    magn:    0.0541    constr:    0.0000

     total cpu time spent up to now is     3854.7 secs

     End of self-consistent calculation

 ------ SPIN UP ------------


          k = 0.0000 0.0000 0.0000 ( 91663 PWs)   bands (ev):

   -23.5818 -21.4895 -21.4731 -21.4693 -21.4368 -21.3605 -21.3429 -21.3400
   -19.9316 -18.6460 -18.6060 -18.5744 -18.5418 -18.4674 -18.4564 -18.4487
   -18.4471 -18.4392 -18.4346 -18.4222 -18.4168 -18.4050 -18.3988 -18.3897
   -17.8162 -17.7242 -17.6645 -15.2879 -14.7562 -14.6191 -14.5929 -14.5693
   -14.5519 -14.5258 -14.5150 -14.4958 -14.3428 -14.3208 -14.2098 -14.1756
   -14.1537 -14.1474 -14.1205 -13.7623 -12.8888 -12.7630 -12.5468 -12.4409
   -12.2769 -12.1641 -12.0687 -11.3658 -11.0257 -10.9048 -10.8926 -10.8649
   -10.7881 -10.7520 -10.7370 -10.7316 -10.4629 -10.4422 -10.3285 -10.2870
   -10.2514 -10.2491 -10.2273 -10.1026  -9.1567  -9.0382  -8.9421  -8.8800
    -8.8327  -8.7973  -8.7813  -8.7045  -8.3023  -7.5666  -7.4331  -7.2062
    -7.0422  -7.0158  -6.9491  -6.9430  -6.9297  -6.8878  -6.8353  -6.8102
    -6.7904  -6.7112  -6.6761  -6.6673  -6.6291  -6.5203  -6.3202  -6.2395
    -6.2007  -6.1849  -6.1805  -6.1577  -6.1432  -6.0948  -6.0773  -5.8445
    -5.8076  -5.7858  -5.7623  -5.7415  -5.7176  -5.7114  -5.6707  -5.6026
    -5.5868  -5.5374  -5.5228  -5.4849  -5.4425  -5.4262  -5.3879  -5.3688
    -5.3331  -5.3154  -5.2400  -5.2177  -5.0932  -5.0203  -4.9674  -4.9478
    -4.9417  -4.9021  -4.8695  -4.8272  -4.8135  -4.7361  -4.7042  -4.6600
    -4.6055  -4.5833  -4.5645  -4.5249  -4.4186  -4.2675  -3.7454  -3.6344
    -3.5449  -3.5314  -3.4807  -3.4543  -3.3973  -3.3552  -3.3443  -3.2992
    -3.2806  -3.2220  -3.1919  -3.1437  -3.0969  -3.0282  -2.9706  -2.9536
    -2.9203  -2.8842  -2.8290  -2.7470  -2.7169  -2.6741  -2.6431  -2.5341
    -2.4806  -2.4656  -2.4245  -2.4204  -2.3182  -2.2911  -2.2589  -2.2349
    -2.2021  -2.1659  -2.1438  -2.1185  -2.0965  -2.0387  -1.9739  -1.9639
    -1.9117  -1.8758  -1.8117  -1.7513  -1.7156  -1.6835  -1.6507  -1.6450
    -1.6202  -1.5780  -1.5405  -1.5168  -1.4914  -1.4380  -1.4298  -1.4095
    -1.3341  -1.3251  -1.3086  -1.2479  -1.2249  -1.1856  -1.1684  -1.1349
    -1.1102  -1.0871  -1.0677  -1.0293  -1.0074  -1.0018  -0.9883  -0.9684
    -0.9332  -0.8927  -0.8532  -0.8490  -0.8256  -0.8109  -0.7555  -0.4567
    -0.1634   0.2019   0.3213   0.3583   0.7648   0.7910   0.8524   0.9883
     1.0641   1.0938   1.1097   1.1364   2.2505   2.4608   2.4977   2.6031
     2.7861   2.8715   2.9950   3.0299   3.0562   3.3704   3.4345   3.5235
     3.5631   3.6208   3.6953   3.7561   4.1736   4.4994   4.6112   4.7297
     4.8791   4.9605   5.0454   5.1109   5.1735   5.2473   5.3630   5.3793
     5.5492   5.6678   5.7010   5.7511   5.7769   5.8433   5.8588   6.1299
     6.1367   6.3181   6.4251   6.5106   6.6572   6.7612   6.8433   6.9057
     7.0014   7.1298   7.1980

 ------ SPIN DOWN ----------


          k = 0.0000 0.0000 0.0000 ( 91663 PWs)   bands (ev):

   -23.5179 -21.3897 -21.3727 -21.3685 -21.3400 -21.2611 -21.2429 -21.2398
   -19.8605 -18.6004 -18.5622 -18.5336 -18.5021 -18.4097 -18.3826 -18.3685
   -18.3560 -18.3296 -18.3266 -18.3142 -18.3099 -18.3018 -18.2885 -18.2858
   -17.7192 -17.6230 -17.5655 -15.1936 -14.7227 -14.5808 -14.5552 -14.5310
   -14.5145 -14.4879 -14.4770 -14.4588 -14.2974 -14.2746 -14.1647 -14.1319
   -14.1112 -14.1057 -14.0797 -13.7207 -12.8243 -12.6918 -12.4763 -12.3665
   -12.2118 -12.0996 -12.0022 -11.3077 -10.9839 -10.8646 -10.8499 -10.8215
   -10.7488 -10.7105 -10.6954 -10.6880 -10.4283 -10.4093 -10.2938 -10.2527
   -10.2157 -10.2129 -10.1904 -10.0568  -9.1184  -9.0049  -8.9051  -8.8447
    -8.7981  -8.7636  -8.7486  -8.6711  -8.2409  -7.5316  -7.3668  -7.1498
    -6.9730  -6.9579  -6.8978  -6.8898  -6.8772  -6.8403  -6.7880  -6.7726
    -6.7509  -6.6655  -6.6207  -6.6114  -6.5637  -6.4529  -6.2626  -6.1967
    -6.1559  -6.1457  -6.1368  -6.1177  -6.1051  -6.0634  -6.0310  -5.7477
    -5.7050  -5.6842  -5.6677  -5.6571  -5.6131  -5.6114  -5.5735  -5.5077
    -5.4938  -5.4457  -5.4323  -5.3973  -5.3473  -5.3336  -5.2938  -5.2753
    -5.2401  -5.2270  -5.1596  -5.1193  -5.0262  -4.9429  -4.9121  -4.8940
    -4.8821  -4.8359  -4.7876  -4.7767  -4.7441  -4.6696  -4.6429  -4.6049
    -4.5527  -4.5153  -4.4823  -4.4512  -4.3181  -4.1760  -3.5978  -3.4711
    -3.4022  -3.3844  -3.3388  -3.2920  -3.2615  -3.2258  -3.2065  -3.1916
    -3.1650  -3.1467  -3.0538  -3.0469  -2.9874  -2.8417  -2.7725  -2.6936
    -2.6840  -2.6592  -2.6278  -2.5749  -2.5291  -2.4637  -2.4129  -2.3495
    -2.3108  -2.2606  -2.2240  -2.1394  -2.0698  -2.0465  -2.0235  -1.9805
    -1.9557  -1.9471  -1.8929  -1.8806  -1.8717  -1.7984  -1.7810  -1.6791
    -1.5855  -1.5545  -1.5491  -1.4701  -1.4646  -1.4423  -1.4008  -1.3746
    -1.3597  -1.3318  -1.3008  -1.2316  -1.2081  -1.1603  -1.1338  -1.0940
    -1.0750  -1.0471  -1.0053  -0.9629  -0.9340  -0.9025  -0.8449  -0.7732
    -0.7501  -0.7215  -0.7028  -0.6212  -0.4546  -0.3943  -0.3481  -0.3433
    -0.3065  -0.2863  -0.2710  -0.2473  -0.2422  -0.1996  -0.1672  -0.1504
    -0.0508   0.3093   0.4448   0.9224   1.4568   1.5093   1.5391   1.5796
     1.7246   1.7656   1.7813   1.7841   2.3631   2.5745   2.6026   2.7127
     2.8900   2.9738   3.0950   3.1334   3.1532   3.4617   3.5225   3.6120
     3.6525   3.7083   3.7851   3.8429   4.2535   4.5808   4.6791   4.7817
     4.9600   5.0385   5.1233   5.1826   5.2518   5.3188   5.4348   5.4436
     5.6148   5.7418   5.7845   5.8126   5.8424   5.9158   5.9168   6.1753
     6.1853   6.3590   6.4622   6.5490   6.6937   6.8209   6.8856   6.9504
     7.0602   7.2003   7.2648

     the spin up/dw Fermi energies are     1.2720    0.9596 ev

!    total energy              =   -1800.50694464 Ry
     Harris-Foulkes estimate   =   -1800.50694515 Ry
     estimated scf accuracy    <       0.00000086 Ry

     The total energy is the sum of the following terms:

     one-electron contribution =   -2531.78426521 Ry
     hartree contribution      =    1439.70411814 Ry
     xc contribution           =    -549.60711564 Ry
     ewald contribution        =    -161.04627847 Ry
     Dispersion Correction     =      -0.64276520 Ry
     smearing contrib. (-TS)   =       2.86936174 Ry

     total magnetization       =     8.00 Bohr mag/cell
     absolute magnetization    =     8.18 Bohr mag/cell

     convergence has been achieved in  26 iterations

     Forces acting on atoms (cartesian axes, Ry/au):

     atom    1 type  1   force =     0.01582194    0.01931583   -0.01077456
     atom    2 type  1   force =     0.01434550   -0.01992278   -0.01180872
     atom    3 type  1   force =    -0.00917419    0.00218231   -0.00505484
     atom    4 type  1   force =    -0.00626404   -0.00213737   -0.00337196
     atom    5 type  1   force =     0.00448956   -0.00129627    0.00073561
     atom    6 type  1   force =     0.00039410    0.00026737   -0.00155841
     atom    7 type  1   force =    -0.01210770   -0.02037979   -0.01058959
     atom    8 type  1   force =    -0.01124089    0.01032638   -0.00863607
     atom    9 type  1   force =     0.01211239   -0.00348156   -0.01492582
     atom   10 type  1   force =     0.01724128    0.00190377   -0.01434390
     atom   11 type  1   force =    -0.01828863    0.00698161   -0.01589788
     atom   12 type  1   force =    -0.01560614   -0.00328331   -0.01486391
     atom   13 type  1   force =    -0.01731086    0.00774416   -0.00343469
     atom   14 type  1   force =    -0.01267120   -0.00200510    0.00005135
     atom   15 type  1   force =     0.00700937   -0.00672313   -0.00842685
     atom   16 type  1   force =     0.01185767    0.00351255   -0.00244067
     atom   17 type  1   force =     0.00213843    0.00430893    0.00027659
     atom   18 type  1   force =    -0.00489249   -0.00047442    0.00288594
     atom   19 type  1   force =     0.00351804    0.00215744   -0.00015111
     atom   20 type  1   force =     0.01041800    0.02291234   -0.02010430
     atom   21 type  1   force =    -0.00082570    0.00186261    0.00003494
     atom   22 type  1   force =    -0.00689219   -0.00123213   -0.00278315
     atom   23 type  1   force =     0.00184598   -0.00152065   -0.00154522
     atom   24 type  1   force =    -0.13622697   -0.08026695    0.13595009
     atom   25 type  1   force =     0.01509706    0.02070223   -0.01246385
     atom   26 type  1   force =     0.01479490   -0.01993235   -0.01091753
     atom   27 type  1   force =    -0.00774427    0.00121006   -0.00314528
     atom   28 type  1   force =    -0.00746173   -0.00241251   -0.00364360
     atom   29 type  1   force =     0.00466295    0.00460229   -0.00096751
     atom   30 type  1   force =     0.00078395    0.00047353   -0.00127074
     atom   31 type  1   force =     0.00387494    0.00282722    0.00192067
     atom   32 type  1   force =    -0.01315036    0.02033057   -0.01187698
     atom   33 type  1   force =    -0.01998502   -0.01237705    0.00453862
     atom   34 type  1   force =     0.01623295    0.00198185   -0.01448518
     atom   35 type  1   force =    -0.01528541    0.00194060   -0.01715990
     atom   36 type  1   force =    -0.01587413   -0.00322609   -0.01486785
     atom   37 type  1   force =    -0.01830278    0.00139080    0.00231927
     atom   38 type  1   force =    -0.01263051   -0.00212288   -0.00006586
     atom   39 type  1   force =    -0.02011181   -0.00787845    0.01655127
     atom   40 type  1   force =     0.01276197    0.00113673   -0.00016800
     atom   41 type  1   force =    -0.00202638   -0.02206845   -0.01662238
     atom   42 type  1   force =    -0.00027114    0.00226696   -0.00255109
     atom   43 type  1   force =    -0.00036657   -0.00023202    0.00158781
     atom   44 type  1   force =     0.00632826    0.00100010   -0.00306291
     atom   45 type  1   force =    -0.00074032    0.00234147   -0.00034771
     atom   46 type  1   force =     0.00395884    0.00039174    0.00369178
     atom   47 type  1   force =    -0.00028583   -0.00096588    0.00004881
     atom   48 type  1   force =     0.00390112    0.00057957   -0.00216409
     atom   49 type  1   force =     0.15103750    0.06278511    0.02093659
     atom   50 type  1   force =    -0.09854477   -0.03186569   -0.02615829
     atom   51 type  1   force =     0.19459324   -0.07923707    0.03504597
     atom   52 type  1   force =     0.17029698   -0.24719496   -0.02621655
     atom   53 type  1   force =    -0.19050433   -0.08811711    0.03100034
     atom   54 type  1   force =    -0.17673202   -0.23887116    0.00825402
     atom   55 type  1   force =    -0.19618775    0.08263548    0.03007438
     atom   56 type  1   force =    -0.16868122    0.24112068    0.01306444
     atom   57 type  1   force =     0.19484371    0.07290117    0.03492825
     atom   58 type  1   force =     0.17493190    0.24753001   -0.02271013
     atom   59 type  1   force =     0.19432018   -0.07912759    0.03499107
     atom   60 type  1   force =     0.17054716   -0.24728789   -0.02632167
     atom   61 type  1   force =     0.29184379   -0.10792347   -0.25777846
     atom   62 type  1   force =    -0.15801998    0.09150683    0.20191847
     atom   63 type  1   force =    -0.19702946    0.08283469    0.03057009
     atom   64 type  1   force =    -0.16772356    0.24065911    0.01288744
     atom   65 type  2   force =    -0.00096045   -0.00023623   -0.00049178
     atom   66 type  2   force =    -0.00083326    0.00042239   -0.00131110
     atom   67 type  2   force =    -0.00621089    0.00412220    0.00194653
     atom   68 type  2   force =    -0.00378205   -0.00178084    0.00024919
     atom   69 type  2   force =     0.00069356    0.00012494   -0.00096363
     atom   70 type  2   force =     0.00126779   -0.00004400   -0.00137200
     atom   71 type  2   force =     0.00002774    0.00296786   -0.00157820
     atom   72 type  2   force =    -0.00228924    0.00088566   -0.00045478
     atom   73 type  2   force =     0.00278121    0.00183610    0.00037980
     atom   74 type  2   force =     0.00153973   -0.00031980   -0.00033654
     atom   75 type  2   force =    -0.00000647   -0.00214529   -0.00210646
     atom   76 type  2   force =     0.00304940    0.00231578   -0.00144432
     atom   77 type  2   force =    -0.00115900   -0.00005820   -0.00093014
     atom   78 type  2   force =    -0.00057927    0.00019548   -0.00077221
     atom   79 type  2   force =    -0.00503627    0.00327119    0.00128337
     atom   80 type  2   force =    -0.00383234   -0.00193579    0.00004597
     atom   81 type  2   force =    -0.00109578   -0.00081668   -0.00039239
     atom   82 type  2   force =     0.00179666   -0.00974370    0.00273223
     atom   83 type  2   force =    -0.00028626    0.00160041    0.00399092
     atom   84 type  2   force =    -0.00149845   -0.00103941    0.00065142
     atom   85 type  2   force =    -0.00230344    0.00090354   -0.00048307
     atom   86 type  2   force =     0.00149475   -0.00072644    0.00001153
     atom   87 type  2   force =    -0.00019089   -0.00105813   -0.00184011
     atom   88 type  2   force =     0.00248370    0.00200362   -0.00095099
     atom   89 type  2   force =    -0.05656970   -0.03235575   -0.01685763
     atom   90 type  2   force =    -0.27577695   -0.77700369   -0.16255796
     atom   91 type  2   force =     0.28836336   -0.83794700    0.06761688
     atom   92 type  2   force =     0.27692199    0.78064267    0.07542023
     atom   93 type  2   force =    -0.28857351    0.83901168   -0.15616121
     atom   94 type  2   force =    -0.27605404   -0.77705753   -0.16252357
     atom   95 type  2   force =     0.08818448    0.11279273    0.13586448
     atom   96 type  2   force =     0.27675500    0.78075998    0.07545464
     atom   97 type  3   force =     0.01924100   -0.00929420    0.04833661
     atom   98 type  3   force =     0.01951407    0.00812807    0.04507845
     atom   99 type  3   force =    -0.01950606    0.00818140    0.04323427
     atom  100 type  3   force =    -0.02254342   -0.00914430    0.04378738
     atom  101 type  3   force =     0.02998043   -0.02071542    0.04244529
     atom  102 type  3   force =     0.01944381    0.00807749    0.04500409
     atom  103 type  3   force =     0.05063104    0.01927581   -0.00208773
     atom  104 type  3   force =    -0.02301548   -0.00949334    0.04411065
     atom  105 type  4   force =    -0.03552470    0.03202199   -0.00784085
     atom  106 type  4   force =     0.00051999   -0.00008884    0.00360705
     atom  107 type  4   force =     0.01087843   -0.00051431    0.00958749
     atom  108 type  4   force =     0.00016025   -0.00010718    0.00368575
     atom  109 type  5   force =    -0.00011409    0.00067801    0.00285294
     atom  110 type  5   force =    -0.11481192   -0.04283152   -0.16619253
     atom  111 type  5   force =    -0.00024067   -0.00057350    0.00254507
     atom  112 type  5   force =     0.00021778    0.00217654    0.00455354
     atom  113 type  5   force =    -0.00291871    0.00054909   -0.00041374
     atom  114 type  5   force =     0.05691451   -0.01710571   -0.02221668
     atom  115 type  5   force =    -0.00001217   -0.00111620   -0.00101011
     atom  116 type  5   force =     0.01046056   -0.00231642    0.00222200
     atom  117 type  5   force =    -0.00018828    0.00163736    0.00358063
     atom  118 type  5   force =     0.00147356   -0.00042482    0.00127474
     atom  119 type  5   force =    -0.00010301   -0.00054418    0.00259760
     atom  120 type  5   force =    -0.00090753    0.00804807   -0.00056705
     atom  121 type  5   force =    -0.00204194    0.00057710   -0.00105924
     atom  122 type  5   force =    -0.00257320   -0.00043968    0.00314875
     atom  123 type  5   force =     0.00030363   -0.00117016   -0.00078068
     atom  124 type  5   force =    -0.00040227    0.00188112   -0.00018941

     Total force =     2.377777     Total SCF correction =     0.001940

     BFGS Geometry Optimization

     number of scf cycles    =   1
     number of bfgs steps    =   0

     energy   new            =   -1800.5069446367 Ry

     new trust radius        =       0.5000000000 bohr
     new conv_thr            =       0.0000010000 Ry


ATOMIC_POSITIONS (crystal)
C             0.2885779769        0.9705029923        0.5216760021
C             0.0387097641        0.0306387737        0.0219704399
C             0.3904159120        0.0118211794        0.5463475041
C             0.1400951332        0.9876938746        0.0460496102
C             0.4520208211        0.9701716000        0.6503920278
C             0.2025284448        0.0283592704        0.1498484517
C             0.2078911386        0.5292260558        0.5260812895
C             0.4582765121        0.4716511730        0.0276571321
C             0.2454136975        0.6132493510        0.6060083355
C             0.4972164534        0.3887216469        0.1082069699
C             0.2490382162        0.8893697318        0.6027485486
C             0.0006947531        0.1121550002        0.1038221053
C             0.4075686632        0.8895646149        0.7274538172
C             0.1596374403        0.1094999768        0.2278134679
C             0.0890222328        0.6088253301        0.7271111130
C             0.3411672106        0.3917153758        0.2293242319
C             0.0469753655        0.5251800524        0.6513199066
C             0.2975445999        0.4746998739        0.1528364964
C             0.1082465435        0.4843205959        0.5501116805
C             0.3580662103        0.5161933371        0.0500633052
C             0.4332906264        0.0993626816        0.4666219988
C             0.1813536874        0.8996911043        0.9655924417
C             0.0674205493        0.3944383380        0.4706318289
C             0.3129144025        0.6022895900        0.9729932239
C             0.7885600740        0.9705355059        0.5216277124
C             0.5387207822        0.0306385491        0.0219959151
C             0.8904504877        0.0117983782        0.5464020900
C             0.6400668638        0.9876874221        0.0460418453
C             0.9520240072        0.9703099324        0.6503433431
C             0.7025377502        0.0283641051        0.1498566751
C             0.7082740031        0.5297703036        0.5264389035
C             0.9582309817        0.4718857899        0.0275644887
C             0.7446700081        0.6130407351        0.6065647394
C             0.9971926992        0.3887234780        0.1082029313
C             0.7491080911        0.8892515107        0.6027124729
C             0.5006884573        0.1121563422        0.1038219925
C             0.9075483612        0.8894156169        0.7276182980
C             0.6596373351        0.1094972145        0.2278101174
C             0.5883982798        0.6087982356        0.7278251291
C             0.8411896305        0.3916596583        0.2293891977
C             0.5468687623        0.5245614535        0.6508368382
C             0.7976503049        0.4747641645        0.1526810753
C             0.6081562170        0.4842645587        0.5501613885
C             0.8579790274        0.5156794543        0.0505504448
C             0.9332924326        0.0993739117        0.4666110605
C             0.6816118949        0.8997291871        0.9657775319
C             0.5673703125        0.3944513483        0.4706773952
C             0.8161334928        0.6041855921        0.9690451380
C             0.1513910452        0.8477634281        0.5808004863
C             0.0596430429        0.8084926900        0.5611412479
C             0.9049093029        0.1553967428        0.0822908124
C             0.8192308280        0.1902838164        0.0622825824
C             0.3396260862        0.6585244893        0.5852681653
C             0.4235596987        0.6957160252        0.5670329468
C             0.5921171278        0.3450989564        0.0878796963
C             0.6771442764        0.3095617303        0.0702384557
C             0.6526701241        0.8475756686        0.5807564474
C             0.5665145044        0.8142620411        0.5604208158
C             0.4049028614        0.1553993101        0.0822892430
C             0.3192366487        0.1902816371        0.0622795776
C             0.5358269170        0.6494239932        0.8205212307
C             0.4758769079        0.6912310061        0.9190079741
C             0.0920976180        0.3451026281        0.0878938665
C             0.1771656751        0.3095499056        0.0702343960
H             0.2371011877        0.9995694601        0.4430989423
H             0.4865177486        0.0027019057        0.9434615213
H             0.0319181484        0.9989016732        0.6735756429
H             0.2822513072        0.9986232359        0.1726091231
H             0.2587157870        0.5008979300        0.4492544540
H             0.0086700606        0.5003959682        0.9505087805
H             0.4533698305        0.8552426019        0.8087158861
H             0.2061850001        0.1431237703        0.3087839999
H             0.0437945150        0.6429870600        0.8066188570
H             0.2964139860        0.3575185002        0.3090413798
H             0.4686707521        0.4931806890        0.6734417854
H             0.2190228645        0.5052553093        0.1752227133
H             0.7370962967        0.9995736351        0.4430864113
H             0.9865239940        0.0026965843        0.9434769258
H             0.5319443897        0.9988817155        0.6735566861
H             0.7822500204        0.9986196020        0.1726033142
H             0.7586740612        0.5008758473        0.4492707833
H             0.5086846163        0.5001684920        0.9506261026
H             0.8226363534        0.6505435327        0.5927490830
H             0.9533351474        0.8551486238        0.8087796214
H             0.7061856518        0.1431241896        0.3087831912
H             0.7964131107        0.3575089635        0.3090513297
H             0.9686665597        0.4932061848        0.6734493993
H             0.7190098355        0.5052479887        0.1752368152
H             0.9853626765        0.7773201973        0.5435111133
H             0.7340807406        0.2105868121        0.0405251723
H             0.5078374621        0.7160235777        0.5514988736
H             0.7616168183        0.2891415288        0.0551609377
H             0.4804695380        0.7966553910        0.5383780275
H             0.2340742509        0.2105855496        0.0405261553
H             0.4367997168        0.7228972002        0.9911637770
H             0.2616129145        0.2891422798        0.0551629211
N             0.3089140264        0.8510350336        0.7062097343
N             0.0612107444        0.1490476184        0.2073405975
N             0.1861063876        0.6505018690        0.7070738804
N             0.4383033422        0.3507135492        0.2092926914
N             0.8091631796        0.8507671847        0.7060413268
N             0.5612090556        0.1490464323        0.2073384718
N             0.6877309964        0.6507620537        0.7057783209
N             0.9382924240        0.3507053634        0.2093019325
Ni            0.2461636146        0.7522369756        0.8361018641
Ni            0.4999860886        0.2479969165        0.3392811099
Ni            0.7472624705        0.7514739384        0.8366000648
Ni            0.9999776809        0.2479964863        0.3392833597
O             0.1227768047        0.3477049007        0.3829545533
O             0.3684251533        0.6499725209        0.8765412756
O             0.3776256718        0.1474935503        0.3772507526
O             0.1251054836        0.8524030439        0.8763911660
O             0.4730002382        0.3561728772        0.4829821730
O             0.2224620934        0.6410138391        0.9792419213
O             0.0288391886        0.1351318231        0.4810491252
O             0.2769328248        0.8627036757        0.9794625174
O             0.6227764410        0.3477273992        0.3829753548
O             0.8712432701        0.6509670372        0.8813284392
O             0.8776289322        0.1474942379        0.3772522542
O             0.6250763914        0.8525407422        0.8762447906
O             0.9730204934        0.3561735341        0.4829637210
O             0.7210782058        0.6414046888        0.9799670092
O             0.5288467246        0.1351305575        0.4810556839
O             0.7766764540        0.8628021157        0.9793935855



     Writing output data file /nfs/hpc/share/gantzlen/NiPyC2_relax_sc211_ortho_functionalized_C-C_pbesol_relax.save/
     NEW-OLD atomic charge density approx. for the potential

     Check: negative core charge=   -0.000145

     total cpu time spent up to now is     3907.8 secs

     Self-consistent Calculation

     iteration #  1     ecut=   100.00 Ry     beta= 0.70
     Davidson diagonalization with overlap
     ethr =  1.00E-06,  avg # of iterations = 12.5

     total cpu time spent up to now is     4569.7 secs

     total energy              =   -1801.70196887 Ry
     Harris-Foulkes estimate   =   -1802.00056445 Ry
     estimated scf accuracy    <       0.85335816 Ry

     total magnetization       =     8.00 Bohr mag/cell
     absolute magnetization    =     8.19 Bohr mag/cell

     iteration #  2     ecut=   100.00 Ry     beta= 0.70
     Davidson diagonalization with overlap
     ethr =  1.84E-04,  avg # of iterations =  3.0

     total cpu time spent up to now is     4726.6 secs

     total energy              =   -1801.77137259 Ry
     Harris-Foulkes estimate   =   -1801.84157558 Ry
     estimated scf accuracy    <       0.27450119 Ry

     total magnetization       =     8.00 Bohr mag/cell
     absolute magnetization    =     8.19 Bohr mag/cell

     iteration #  3     ecut=   100.00 Ry     beta= 0.70
     Davidson diagonalization with overlap
     ethr =  5.92E-05,  avg # of iterations =  2.0

     total cpu time spent up to now is     4872.0 secs

     total energy              =   -1801.77637801 Ry
     Harris-Foulkes estimate   =   -1801.85911529 Ry
     estimated scf accuracy    <       0.72507992 Ry

     total magnetization       =     8.00 Bohr mag/cell
     absolute magnetization    =     8.17 Bohr mag/cell

     iteration #  4     ecut=   100.00 Ry     beta= 0.70
     Davidson diagonalization with overlap
     ethr =  5.92E-05,  avg # of iterations =  1.5

     total cpu time spent up to now is     5011.1 secs

     total energy              =   -1801.81453166 Ry
     Harris-Foulkes estimate   =   -1801.81881646 Ry
     estimated scf accuracy    <       0.02022640 Ry

     total magnetization       =     8.00 Bohr mag/cell
     absolute magnetization    =     8.19 Bohr mag/cell

     iteration #  5     ecut=   100.00 Ry     beta= 0.70
     Davidson diagonalization with overlap
     ethr =  4.36E-06,  avg # of iterations =  5.5

     total cpu time spent up to now is     5156.2 secs

     total energy              =   -1801.81355105 Ry
     Harris-Foulkes estimate   =   -1801.82017889 Ry
     estimated scf accuracy    <       0.09030908 Ry

     total magnetization       =     8.00 Bohr mag/cell
     absolute magnetization    =     8.19 Bohr mag/cell

     iteration #  6     ecut=   100.00 Ry     beta= 0.70
     Davidson diagonalization with overlap
     ethr =  4.36E-06,  avg # of iterations =  2.0

     total cpu time spent up to now is     5294.8 secs

     total energy              =   -1801.81694770 Ry
     Harris-Foulkes estimate   =   -1801.81718360 Ry
     estimated scf accuracy    <       0.00167908 Ry

     total magnetization       =     8.00 Bohr mag/cell
     absolute magnetization    =     8.18 Bohr mag/cell

     iteration #  7     ecut=   100.00 Ry     beta= 0.70
     Davidson diagonalization with overlap
     ethr =  3.62E-07,  avg # of iterations =  5.5

     total cpu time spent up to now is     5444.6 secs

     total energy              =   -1801.81704006 Ry
     Harris-Foulkes estimate   =   -1801.81708935 Ry
     estimated scf accuracy    <       0.00035546 Ry

     total magnetization       =     8.00 Bohr mag/cell
     absolute magnetization    =     8.19 Bohr mag/cell

     iteration #  8     ecut=   100.00 Ry     beta= 0.70
     Davidson diagonalization with overlap
     ethr =  7.66E-08,  avg # of iterations =  2.0

     total cpu time spent up to now is     5584.5 secs

     total energy              =   -1801.81704606 Ry
     Harris-Foulkes estimate   =   -1801.81710552 Ry
     estimated scf accuracy    <       0.00075834 Ry

     total magnetization       =     8.00 Bohr mag/cell
     absolute magnetization    =     8.19 Bohr mag/cell

     iteration #  9     ecut=   100.00 Ry     beta= 0.70
     Davidson diagonalization with overlap
     ethr =  7.66E-08,  avg # of iterations =  1.0

     total cpu time spent up to now is     5720.5 secs

     total energy              =   -1801.81707374 Ry
     Harris-Foulkes estimate   =   -1801.81707889 Ry
     estimated scf accuracy    <       0.00006138 Ry

     total magnetization       =     8.00 Bohr mag/cell
     absolute magnetization    =     8.19 Bohr mag/cell

     iteration # 10     ecut=   100.00 Ry     beta= 0.70
     Davidson diagonalization with overlap
     ethr =  1.32E-08,  avg # of iterations =  3.0

     total cpu time spent up to now is     5860.8 secs

     total energy              =   -1801.81707573 Ry
     Harris-Foulkes estimate   =   -1801.81707712 Ry
     estimated scf accuracy    <       0.00001683 Ry

     total magnetization       =     8.00 Bohr mag/cell
     absolute magnetization    =     8.19 Bohr mag/cell

     iteration # 11     ecut=   100.00 Ry     beta= 0.70
     Davidson diagonalization with overlap
     ethr =  3.63E-09,  avg # of iterations =  3.0

     total cpu time spent up to now is     6002.5 secs

     total energy              =   -1801.81707581 Ry
     Harris-Foulkes estimate   =   -1801.81707705 Ry
     estimated scf accuracy    <       0.00001605 Ry

     total magnetization       =     8.00 Bohr mag/cell
     absolute magnetization    =     8.19 Bohr mag/cell

     iteration # 12     ecut=   100.00 Ry     beta= 0.70
     Davidson diagonalization with overlap
     ethr =  3.46E-09,  avg # of iterations =  1.5

     total cpu time spent up to now is     6138.4 secs

     total energy              =   -1801.81707562 Ry
     Harris-Foulkes estimate   =   -1801.81707773 Ry
     estimated scf accuracy    <       0.00003219 Ry

     total magnetization       =     8.00 Bohr mag/cell
     absolute magnetization    =     8.19 Bohr mag/cell

     iteration # 13     ecut=   100.00 Ry     beta= 0.70
     Davidson diagonalization with overlap
     ethr =  3.46E-09,  avg # of iterations =  1.0

     total cpu time spent up to now is     6276.7 secs

     total energy              =   -1801.81707645 Ry
     Harris-Foulkes estimate   =   -1801.81707677 Ry
     estimated scf accuracy    <       0.00000522 Ry

     total magnetization       =     8.00 Bohr mag/cell
     absolute magnetization    =     8.19 Bohr mag/cell

     iteration # 14     ecut=   100.00 Ry     beta= 0.70
     Davidson diagonalization with overlap
     ethr =  1.12E-09,  avg # of iterations =  2.5

     total cpu time spent up to now is     6407.6 secs

     total energy              =   -1801.81707647 Ry
     Harris-Foulkes estimate   =   -1801.81707673 Ry
     estimated scf accuracy    <       0.00000333 Ry

     total magnetization       =     8.00 Bohr mag/cell
     absolute magnetization    =     8.19 Bohr mag/cell

     iteration # 15     ecut=   100.00 Ry     beta= 0.70
     Davidson diagonalization with overlap
     ethr =  7.17E-10,  avg # of iterations =  1.5

     total cpu time spent up to now is     6540.6 secs

     total energy              =   -1801.81707656 Ry
     Harris-Foulkes estimate   =   -1801.81707670 Ry
     estimated scf accuracy    <       0.00000179 Ry

     total magnetization       =     8.00 Bohr mag/cell
     absolute magnetization    =     8.19 Bohr mag/cell

     iteration # 16     ecut=   100.00 Ry     beta= 0.70
     Davidson diagonalization with overlap
     ethr =  3.86E-10,  avg # of iterations =  2.0
 
     Magnetic moment per site:
     atom:    1    charge:    0.7331    magn:    0.0055    constr:    0.0000
     atom:    2    charge:    0.7322    magn:    0.0057    constr:    0.0000
     atom:    3    charge:    0.7351    magn:    0.0035    constr:    0.0000
     atom:    4    charge:    0.7345    magn:    0.0032    constr:    0.0000
     atom:    5    charge:    0.7318    magn:    0.0053    constr:    0.0000
     atom:    6    charge:    0.7292    magn:    0.0055    constr:    0.0000
     atom:    7    charge:    0.7329    magn:    0.0057    constr:    0.0000
     atom:    8    charge:    0.7332    magn:    0.0062    constr:    0.0000
     atom:    9    charge:    0.7423    magn:    0.0028    constr:    0.0000
     atom:   10    charge:    0.7429    magn:    0.0027    constr:    0.0000
     atom:   11    charge:    0.7386    magn:    0.0025    constr:    0.0000
     atom:   12    charge:    0.7417    magn:    0.0029    constr:    0.0000
     atom:   13    charge:    0.7292    magn:    0.0038    constr:    0.0000
     atom:   14    charge:    0.7273    magn:    0.0036    constr:    0.0000
     atom:   15    charge:    0.7284    magn:    0.0033    constr:    0.0000
     atom:   16    charge:    0.7275    magn:    0.0031    constr:    0.0000
     atom:   17    charge:    0.7335    magn:    0.0053    constr:    0.0000
     atom:   18    charge:    0.7301    magn:    0.0060    constr:    0.0000
     atom:   19    charge:    0.7335    magn:    0.0030    constr:    0.0000
     atom:   20    charge:    0.7375    magn:    0.0015    constr:    0.0000
     atom:   21    charge:    0.7113    magn:   -0.0015    constr:    0.0000
     atom:   22    charge:    0.7094    magn:   -0.0011    constr:    0.0000
     atom:   23    charge:    0.7112    magn:   -0.0013    constr:    0.0000
     atom:   24    charge:    0.7071    magn:    0.0025    constr:    0.0000
     atom:   25    charge:    0.7331    magn:    0.0055    constr:    0.0000
     atom:   26    charge:    0.7324    magn:    0.0056    constr:    0.0000
     atom:   27    charge:    0.7352    magn:    0.0034    constr:    0.0000
     atom:   28    charge:    0.7346    magn:    0.0033    constr:    0.0000
     atom:   29    charge:    0.7316    magn:    0.0051    constr:    0.0000
     atom:   30    charge:    0.7292    magn:    0.0055    constr:    0.0000
     atom:   31    charge:    0.7330    magn:    0.0053    constr:    0.0000
     atom:   32    charge:    0.7322    magn:    0.0057    constr:    0.0000
     atom:   33    charge:    0.7259    magn:    0.0029    constr:    0.0000
     atom:   34    charge:    0.7426    magn:    0.0028    constr:    0.0000
     atom:   35    charge:    0.7420    magn:    0.0028    constr:    0.0000
     atom:   36    charge:    0.7417    magn:    0.0029    constr:    0.0000
     atom:   37    charge:    0.7284    magn:    0.0033    constr:    0.0000
     atom:   38    charge:    0.7274    magn:    0.0036    constr:    0.0000
     atom:   39    charge:    0.7574    magn:    0.0003    constr:    0.0000
     atom:   40    charge:    0.7273    magn:    0.0035    constr:    0.0000
     atom:   41    charge:    0.7327    magn:    0.0078    constr:    0.0000
     atom:   42    charge:    0.7309    magn:    0.0056    constr:    0.0000
     atom:   43    charge:    0.7335    magn:    0.0030    constr:    0.0000
     atom:   44    charge:    0.7343    magn:    0.0032    constr:    0.0000
     atom:   45    charge:    0.7113    magn:   -0.0015    constr:    0.0000
     atom:   46    charge:    0.7109    magn:   -0.0012    constr:    0.0000
     atom:   47    charge:    0.7112    magn:   -0.0013    constr:    0.0000
     atom:   48    charge:    0.7090    magn:   -0.0013    constr:    0.0000
     atom:   49    charge:    0.7484    magn:    0.0076    constr:    0.0000
     atom:   50    charge:    0.7337    magn:    0.0148    constr:    0.0000
     atom:   51    charge:    0.8057    magn:    0.0078    constr:    0.0000
     atom:   52    charge:    0.7481    magn:    0.0163    constr:    0.0000
     atom:   53    charge:    0.8089    magn:    0.0075    constr:    0.0000
     atom:   54    charge:    0.7525    magn:    0.0163    constr:    0.0000
     atom:   55    charge:    0.8073    magn:    0.0079    constr:    0.0000
     atom:   56    charge:    0.7521    magn:    0.0165    constr:    0.0000
     atom:   57    charge:    0.8057    magn:    0.0077    constr:    0.0000
     atom:   58    charge:    0.7489    magn:    0.0160    constr:    0.0000
     atom:   59    charge:    0.8058    magn:    0.0078    constr:    0.0000
     atom:   60    charge:    0.7481    magn:    0.0163    constr:    0.0000
     atom:   61    charge:    0.7183    magn:    0.0286    constr:    0.0000
     atom:   62    charge:    0.7044    magn:    0.0089    constr:    0.0000
     atom:   63    charge:    0.8067    magn:    0.0078    constr:    0.0000
     atom:   64    charge:    0.7522    magn:    0.0166    constr:    0.0000
     atom:   65    charge:    0.1079    magn:   -0.0003    constr:    0.0000
     atom:   66    charge:    0.1070    magn:   -0.0003    constr:    0.0000
     atom:   67    charge:    0.1075    magn:   -0.0002    constr:    0.0000
     atom:   68    charge:    0.1082    magn:   -0.0003    constr:    0.0000
     atom:   69    charge:    0.1072    magn:   -0.0003    constr:    0.0000
     atom:   70    charge:    0.1070    magn:   -0.0003    constr:    0.0000
     atom:   71    charge:    0.1063    magn:   -0.0001    constr:    0.0000
     atom:   72    charge:    0.1070    magn:   -0.0001    constr:    0.0000
     atom:   73    charge:    0.1069    magn:   -0.0001    constr:    0.0000
     atom:   74    charge:    0.1082    magn:   -0.0001    constr:    0.0000
     atom:   75    charge:    0.1073    magn:   -0.0003    constr:    0.0000
     atom:   76    charge:    0.1077    magn:   -0.0003    constr:    0.0000
     atom:   77    charge:    0.1080    magn:   -0.0003    constr:    0.0000
     atom:   78    charge:    0.1070    magn:   -0.0003    constr:    0.0000
     atom:   79    charge:    0.1074    magn:   -0.0003    constr:    0.0000
     atom:   80    charge:    0.1082    magn:   -0.0003    constr:    0.0000
     atom:   81    charge:    0.1074    magn:   -0.0004    constr:    0.0000
     atom:   82    charge:    0.1068    magn:   -0.0002    constr:    0.0000
     atom:   83    charge:    0.1072    magn:   -0.0002    constr:    0.0000
     atom:   84    charge:    0.1063    magn:   -0.0001    constr:    0.0000
     atom:   85    charge:    0.1070    magn:   -0.0001    constr:    0.0000
     atom:   86    charge:    0.1083    magn:   -0.0001    constr:    0.0000
     atom:   87    charge:    0.1075    magn:   -0.0003    constr:    0.0000
     atom:   88    charge:    0.1077    magn:   -0.0003    constr:    0.0000
     atom:   89    charge:    0.1125    magn:   -0.0003    constr:    0.0000
     atom:   90    charge:    0.0803    magn:   -0.0001    constr:    0.0000
     atom:   91    charge:    0.0776    magn:   -0.0001    constr:    0.0000
     atom:   92    charge:    0.0812    magn:   -0.0001    constr:    0.0000
     atom:   93    charge:    0.0756    magn:   -0.0000    constr:    0.0000
     atom:   94    charge:    0.0803    magn:   -0.0001    constr:    0.0000
     atom:   95    charge:    0.1231    magn:    0.0000    constr:    0.0000
     atom:   96    charge:    0.0812    magn:   -0.0001    constr:    0.0000
     atom:   97    charge:    2.4474    magn:    0.0195    constr:    0.0000
     atom:   98    charge:    2.4468    magn:    0.0195    constr:    0.0000
     atom:   99    charge:    2.4508    magn:    0.0199    constr:    0.0000
     atom:  100    charge:    2.4473    magn:    0.0194    constr:    0.0000
     atom:  101    charge:    2.4489    magn:    0.0172    constr:    0.0000
     atom:  102    charge:    2.4469    magn:    0.0195    constr:    0.0000
     atom:  103    charge:    2.4501    magn:    0.0254    constr:    0.0000
     atom:  104    charge:    2.4474    magn:    0.0191    constr:    0.0000
     atom:  105    charge:    7.4575    magn:    1.0534    constr:    0.0000
     atom:  106    charge:    7.4323    magn:    1.0511    constr:    0.0000
     atom:  107    charge:    7.4364    magn:    1.0408    constr:    0.0000
     atom:  108    charge:    7.4323    magn:    1.0506    constr:    0.0000
     atom:  109    charge:    3.2590    magn:    0.0535    constr:    0.0000
     atom:  110    charge:    3.2723    magn:    0.0262    constr:    0.0000
     atom:  111    charge:    3.2594    magn:    0.0544    constr:    0.0000
     atom:  112    charge:    3.2583    magn:    0.0512    constr:    0.0000
     atom:  113    charge:    3.2561    magn:    0.0544    constr:    0.0000
     atom:  114    charge:    3.2755    magn:    0.0258    constr:    0.0000
     atom:  115    charge:    3.2577    magn:    0.0561    constr:    0.0000
     atom:  116    charge:    3.2582    magn:    0.0518    constr:    0.0000
     atom:  117    charge:    3.2585    magn:    0.0531    constr:    0.0000
     atom:  118    charge:    3.2584    magn:    0.0542    constr:    0.0000
     atom:  119    charge:    3.2594    magn:    0.0544    constr:    0.0000
     atom:  120    charge:    3.2583    magn:    0.0529    constr:    0.0000
[...]
     atom    7 type  1   force =     0.00014729    0.00026109   -0.00014841
     atom    8 type  1   force =     0.00013050    0.00011132    0.00093245
     atom    9 type  1   force =     0.00045665    0.00016491    0.00017759
     atom   10 type  1   force =    -0.00030050   -0.00081185   -0.00024308
     atom   11 type  1   force =     0.00032673    0.00007473    0.00007025
     atom   12 type  1   force =    -0.00034698   -0.00022560    0.00053633
     atom   13 type  1   force =     0.00023991    0.00043434    0.00025362
     atom   14 type  1   force =    -0.00007697   -0.00016246    0.00022597
     atom   15 type  1   force =     0.00002431    0.00032255    0.00023913
     atom   16 type  1   force =     0.00023596    0.00053129    0.00001377
     atom   17 type  1   force =    -0.00001764    0.00024058    0.00003247
     atom   18 type  1   force =    -0.00019088   -0.00036067    0.00004722
     atom   19 type  1   force =    -0.00023827    0.00010385    0.00018546
     atom   20 type  1   force =     0.00035977   -0.00027408   -0.00034459
     atom   21 type  1   force =    -0.00004587   -0.00013594    0.00031431
     atom   22 type  1   force =    -0.00064914    0.00046716    0.00034780
     atom   23 type  1   force =    -0.00014939    0.00006985    0.00005684
     atom   24 type  1   force =    -0.00058115   -0.00031265    0.00009979
     atom   25 type  1   force =     0.00027478   -0.00000246    0.00012724
     atom   26 type  1   force =     0.00037627    0.00002202    0.00044891
     atom   27 type  1   force =    -0.00012437   -0.00008272   -0.00054530
     atom   28 type  1   force =    -0.00033790   -0.00006819   -0.00028262
     atom   29 type  1   force =     0.00029569    0.00008545   -0.00035290
     atom   30 type  1   force =    -0.00004984    0.00012618    0.00019866
     atom   31 type  1   force =     0.00051425    0.00014418    0.00022725
     atom   32 type  1   force =    -0.00013359    0.00011156   -0.00097438
     atom   33 type  1   force =     0.00001105   -0.00054475   -0.00019190
     atom   34 type  1   force =    -0.00018237    0.00011163    0.00030690
     atom   35 type  1   force =    -0.00000101    0.00017842    0.00045980
     atom   36 type  1   force =    -0.00017601   -0.00034422    0.00009282
     atom   37 type  1   force =     0.00000109   -0.00016184    0.00006729
     atom   38 type  1   force =     0.00015121   -0.00020869    0.00008228
     atom   39 type  1   force =    -0.00006129    0.00003212    0.00040491
     atom   40 type  1   force =     0.00018765   -0.00027377    0.00009457
     atom   41 type  1   force =     0.00045274    0.00006550    0.00050656
     atom   42 type  1   force =    -0.00080492   -0.00003401   -0.00012794
     atom   43 type  1   force =     0.00016599    0.00027073   -0.00014065
     atom   44 type  1   force =     0.00035484   -0.00029685   -0.00058655
     atom   45 type  1   force =     0.00028300   -0.00010340   -0.00013661
     atom   46 type  1   force =    -0.00028098    0.00010415   -0.00009382
     atom   47 type  1   force =    -0.00000082    0.00046192   -0.00023424
     atom   48 type  1   force =     0.00015928   -0.00056127    0.00002683
     atom   49 type  1   force =     0.00013060   -0.00008749   -0.00000633
     atom   50 type  1   force =    -0.00038271    0.00016141    0.00049100
     atom   51 type  1   force =     0.00003434   -0.00007562   -0.00012784
     atom   52 type  1   force =     0.00000117    0.00002588    0.00029139
     atom   53 type  1   force =    -0.00006250   -0.00021949   -0.00014778
     atom   54 type  1   force =     0.00039171   -0.00006240    0.00042335
     atom   55 type  1   force =    -0.00015452    0.00019561    0.00001208
     atom   56 type  1   force =    -0.00006769   -0.00009482   -0.00003857
     atom   57 type  1   force =    -0.00052461   -0.00005474   -0.00014914
     atom   58 type  1   force =    -0.00004534   -0.00008258    0.00025072
     atom   59 type  1   force =     0.00046855    0.00010738   -0.00001204
     atom   60 type  1   force =    -0.00054090    0.00005675   -0.00007010
     atom   61 type  1   force =    -0.00010325   -0.00071630    0.00000729
     atom   62 type  1   force =    -0.00015478    0.00070044   -0.00000246
     atom   63 type  1   force =    -0.00068762   -0.00053258    0.00000736
     atom   64 type  1   force =    -0.00062369   -0.00028867    0.00030940
     atom   65 type  2   force =    -0.00027025   -0.00004324    0.00022795
     atom   66 type  2   force =     0.00016213    0.00037754    0.00025759
     atom   67 type  2   force =     0.00004623   -0.00016101    0.00022145
     atom   68 type  2   force =     0.00024994   -0.00048860   -0.00006345
     atom   69 type  2   force =     0.00001044    0.00029600    0.00006316
     atom   70 type  2   force =     0.00034996    0.00047094   -0.00087159
     atom   71 type  2   force =    -0.00004070   -0.00010550    0.00019426
     atom   72 type  2   force =     0.00038393   -0.00013488   -0.00009543
     atom   73 type  2   force =    -0.00018709    0.00006481   -0.00043448
     atom   74 type  2   force =     0.00023827    0.00088297   -0.00049303
     atom   75 type  2   force =     0.00017409    0.00030545    0.00009415
     atom   76 type  2   force =     0.00034362    0.00009066   -0.00032474
     atom   77 type  2   force =    -0.00044023    0.00016393   -0.00007212
     atom   78 type  2   force =    -0.00011121    0.00038106    0.00019341
     atom   79 type  2   force =    -0.00033555   -0.00002837   -0.00020323
     atom   80 type  2   force =    -0.00045883    0.00068272   -0.00005350
     atom   81 type  2   force =    -0.00011461   -0.00010577   -0.00078587
     atom   82 type  2   force =    -0.00033774   -0.00031711   -0.00088668
     atom   83 type  2   force =     0.00014981   -0.00002478   -0.00080014
     atom   84 type  2   force =    -0.00008767    0.00008359   -0.00019730
     atom   85 type  2   force =     0.00035461    0.00052644    0.00007607
     atom   86 type  2   force =    -0.00009628   -0.00016510    0.00051660
     atom   87 type  2   force =    -0.00023839   -0.00042088    0.00019109
     atom   88 type  2   force =     0.00016419   -0.00001966    0.00003196
     atom   89 type  2   force =     0.00008512   -0.00013113   -0.00012043
     atom   90 type  2   force =    -0.00000149   -0.00008367    0.00014056
     atom   91 type  2   force =     0.00029156    0.00003860    0.00028442
     atom   92 type  2   force =    -0.00050175    0.00007213   -0.00011674
     atom   93 type  2   force =    -0.00025065   -0.00070622   -0.00015792
     atom   94 type  2   force =    -0.00016893    0.00031426    0.00000870
     atom   95 type  2   force =     0.00013261    0.00005139    0.00027122
     atom   96 type  2   force =     0.00093918    0.00049413    0.00023567
     atom   97 type  3   force =     0.00055340    0.00049061    0.00003310
     atom   98 type  3   force =     0.00010405   -0.00022804    0.00009511
     atom   99 type  3   force =     0.00046411   -0.00014077    0.00030076
     atom  100 type  3   force =     0.00077919   -0.00031343    0.00042510
     atom  101 type  3   force =     0.00006294   -0.00003475   -0.00000801
     atom  102 type  3   force =     0.00022261   -0.00041493    0.00010358
     atom  103 type  3   force =     0.00014217    0.00026267   -0.00019726
     atom  104 type  3   force =    -0.00079813    0.00073332    0.00073196
     atom  105 type  4   force =     0.00059553   -0.00004061   -0.00008969
     atom  106 type  4   force =    -0.00022909    0.00036314    0.00007892
     atom  107 type  4   force =    -0.00096768   -0.00004952    0.00022474
     atom  108 type  4   force =     0.00044085   -0.00027391    0.00007510
     atom  109 type  5   force =     0.00004441   -0.00002133    0.00014693
     atom  110 type  5   force =     0.00012221   -0.00055678    0.00049299
     atom  111 type  5   force =    -0.00025367    0.00013242    0.00023850
     atom  112 type  5   force =    -0.00013476   -0.00004515   -0.00020990
     atom  113 type  5   force =     0.00040729   -0.00066651   -0.00067415
     atom  114 type  5   force =    -0.00024397    0.00041868   -0.00078086
     atom  115 type  5   force =    -0.00002261    0.00002578    0.00031750
     atom  116 type  5   force =    -0.00026839    0.00034730    0.00024802
     atom  117 type  5   force =    -0.00037420   -0.00043094    0.00015822
     atom  118 type  5   force =     0.00025128    0.00016614   -0.00021939
     atom  119 type  5   force =    -0.00021690   -0.00047720   -0.00029867
     atom  120 type  5   force =    -0.00005843   -0.00041599    0.00006623
     atom  121 type  5   force =     0.00029972   -0.00009256   -0.00028935
     atom  122 type  5   force =     0.00013805   -0.00019126   -0.00072666
     atom  123 type  5   force =     0.00026977    0.00017201    0.00005525
     atom  124 type  5   force =    -0.00052155   -0.00027508    0.00002479

     Total force =     0.006278     Total SCF correction =     0.000117

     bfgs converged in  91 scf cycles and  87 bfgs steps
     (criteria: energy <  1.0E-04 Ry, force <  1.0E-03 Ry/Bohr)

     End of BFGS Geometry Optimization

     Final energy   =   -1802.8935833949 Ry
Begin final coordinates

ATOMIC_POSITIONS (crystal)
C             0.2852217929        0.9806439926        0.5267263103
C             0.0390041979        0.0209845306        0.0334725199
C             0.3845953300        0.0241918800        0.5595408579
C             0.1391267730        0.9785860270        0.0640435236
C             0.4411314424        0.9835272402        0.6680405077
C             0.1984168127        0.0232751063        0.1678251619
C             0.2036713531        0.5199108919        0.5356689411
C             0.4398617276        0.4586843949        0.0232826840
C             0.2439656825        0.6055581883        0.6118836170
C             0.4878241660        0.3807642479        0.1050985423
C             0.2441207221        0.8963221378        0.6026524263
C            -0.0006512132        0.1072826438        0.1073262263
C             0.3951337528        0.9005670066        0.7402467356
C             0.1542232040        0.1090654883        0.2375255859
C             0.0849718129        0.6137860301        0.7263555980
C             0.3429024341        0.3824452632        0.2432850289
C             0.0395047575        0.5307945241        0.6519308919
C             0.2805245892        0.4574288353        0.1576148071
C             0.1007580960        0.4827234223        0.5559487451
C             0.3455976391        0.5083041798        0.0558107195
C             0.4313302037        0.1069745201        0.4766245904
C             0.1796501044        0.8923122503        0.9818057588
C             0.0598099676        0.3943752028        0.4754018397
C             0.3056805783        0.5985513562        0.9827057905
C             0.7923412471        0.9813033391        0.5263531036
C             0.5416089706        0.0220702110        0.0260089693
C             0.8933813363        0.0221917305        0.5549936370
C             0.6419209363        0.9797983378        0.0551140057
C             0.9524115243        0.9793945768        0.6598835929
C             0.7004510612        0.0200038358        0.1622196907
C             0.7235424835        0.5235692422        0.5279084376
C             0.9576411023        0.4905396218        0.0420952258
C             0.7586388020        0.6106710890        0.6042908065
C             0.9982497688        0.4056141945        0.1209684433
C             0.7512759529        0.8981749093        0.6039971086
C             0.5003582851        0.1042226392        0.1050124948
C             0.9071756261        0.8964485798        0.7331345221
C             0.6553438485        0.1025871409        0.2360593672
C             0.6073244748        0.6008186794        0.7319227620
C             0.8382857415        0.3951730341        0.2326908665
C             0.5671826951        0.5116803525        0.6598927672
C             0.7949676966        0.4821221523        0.1613396476
C             0.6258614508        0.4744476713        0.5551790284
C             0.8553654615        0.5290046253        0.0631266013
C             0.9354037608        0.1079905433        0.4733642787
C             0.6856244041        0.8976948335        0.9697778066
C             0.5809186091        0.3869369109        0.4746095882
C             0.8134832728        0.6158119018        0.9800239307
C             0.1461310005        0.8521486407        0.5638909051
C             0.0590365012        0.8223716167        0.5208051039
C             0.8980354270        0.1431169148        0.0689798249
C             0.8086393718        0.1512140381        0.0180912795
C             0.3461361987        0.6401682304        0.5802655976
C             0.4342011992        0.6502737953        0.5315556317
C             0.5898937072        0.3499117401        0.0695268335
C             0.6779863185        0.3481409756        0.0190561719
C             0.6484052757        0.8640650096        0.5698366016
C             0.5579201328        0.8550094275        0.5224949727
C             0.3988374036        0.1405263365        0.0677017790
C             0.3100655852        0.1521585226        0.0164819147
C             0.5534131414        0.6408458694        0.8353956929
C             0.4810769998        0.6539268644        0.9255743944
C             0.1023479488        0.3785382669        0.1041886036
C             0.2042682809        0.3796305652        0.0840052487
H             0.2378015479        1.0087545281        0.4438453502
H             0.4929758218       -0.0061031280        0.9442714571
H             0.0309622725        1.0094678048        0.6875415356
H             0.2761087712        0.9926310976        0.1981272741
H             0.2548963961        0.4849142673        0.4631345503
H             0.0093991591        0.5252047475        0.9699038268
H             0.4379324137        0.8667944624        0.8237327469
H             0.1987285292        0.1458968339        0.3177071791
H             0.0401963743        0.6519605589        0.8031094577
H             0.3039878818        0.3504884282        0.3287950802
H             0.4922957549        0.4746808340        0.6869650295
H             0.2322129692        0.5123473520        0.2146756200
H             0.7426482809        1.0118363468        0.4469326975
H             0.9890802848       -0.0105918179        0.9547621353
H             0.5181615391        1.0154314777        0.6990722485
H             0.7777558211        0.9875516423        0.1912429194
H             0.7737905670        0.4952876667        0.4503238933
H             0.4840252947        0.4790775685        0.9372124153
H             0.8347673963        0.6498759546        0.5872248182
H             0.9511410618        0.8611028837        0.8147573789
H             0.6995408281        0.1377395928        0.3175887110
H             0.7913354139        0.3560590631        0.3066497186
H             0.9585461561        0.5049866354        0.6712860858
H             0.7164449992        0.5118327367        0.1856611572
H             0.9845651510        0.7921002024        0.4817478191
H             0.7331210194        0.1639930990       -0.0311556365
H             0.5104732637        0.6643349908        0.4887721247
H             0.7533220230        0.3404705774       -0.0281911632
H             0.4806833337        0.8423226409        0.4775526747
H             0.2343799366        0.1632403871       -0.0330928111
H             0.5008495449        0.6688112331        1.0283136787
H             0.2443975510        0.3258407609        0.0169525923
N             0.2992109287        0.8578642824        0.7106406246
N             0.0572590622        0.1502343345        0.2099752285
N             0.1847268492        0.6505191938        0.7086610947
N             0.4383197113        0.3453467401        0.2164014024
N             0.8095055254        0.8565543540        0.7071781308
N             0.5580490812        0.1435256351        0.2100756054
N             0.7024664508        0.6497732918        0.7029513359
N             0.9363137429        0.3566128371        0.2139364271
Ni            0.2374111426        0.7567025498        0.8360526858
Ni            0.5050383360        0.2440430360        0.3409345549
Ni            0.7503689016        0.7563070275        0.8360325068
Ni            0.9976785860        0.2506675709        0.3396277221
O             0.1178461179        0.3484358344        0.3890724740
O             0.3744092976        0.6438669212        0.8909036430
O             0.3767982189        0.1552716784        0.3864073827
O             0.1191228588        0.8486958527        0.8928527877
O             0.4847070045        0.3538655016        0.4873702550
O             0.2156866552        0.6390521765        0.9808128679
O             0.0312016976        0.1431070894        0.4840928603
O             0.2753913432        0.8562386499        0.9877580003
O             0.6329066531        0.3393744572        0.3847408296
O             0.8707829083        0.6596413652        0.8920333833
O             0.8776505301        0.1533643308        0.3834191668
O             0.6289780586        0.8554464648        0.8765001839
O             0.9648934220        0.3577049176        0.4838048416
O             0.7180610091        0.6524203667        0.9881430962
O             0.5296057489        0.1353040107        0.4861636975
O             0.7816528691        0.8633557756        0.9806039989
End final coordinates



     Writing output data file /nfs/hpc/share/gantzlen/NiPyC2_relax_sc211_ortho_functionalized_C-C_pbesol_relax.save/
 
     init_run     :     90.54s CPU     94.20s WALL (       1 calls)
     electrons    : 181589.67s CPU 192866.18s WALL (      91 calls)
     update_pot   :   1188.67s CPU   1245.46s WALL (      90 calls)
     forces       :   3415.10s CPU   3534.58s WALL (      91 calls)

     Called by init_run:
     wfcinit      :     77.15s CPU     80.42s WALL (       1 calls)
     potinit      :      6.48s CPU      6.73s WALL (       1 calls)
     hinit0       :      5.37s CPU      5.47s WALL (       1 calls)

     Called by electrons:
     c_bands      : 168124.77s CPU 177637.32s WALL (    1190 calls)
     sum_band     :   8943.43s CPU  10047.76s WALL (    1190 calls)
     v_of_rho     :   2163.00s CPU   2383.26s WALL (    1256 calls)
     mix_rho      :   2386.82s CPU   2745.95s WALL (    1190 calls)

     Called by c_bands:
     init_us_2    :    141.58s CPU    146.16s WALL (    2381 calls)
     regterg      : 167625.77s CPU 176088.58s WALL (    1190 calls)

     Called by sum_band:

     Called by *egterg:
     h_psi        :  66536.53s CPU  71577.27s WALL (    4413 calls)
     g_psi        :     41.79s CPU     42.55s WALL (    3222 calls)
     rdiaghg      :   3932.28s CPU   3982.03s WALL (    4297 calls)

     Called by h_psi:
     h_psi:calbec :  17779.17s CPU  18508.30s WALL (    4413 calls)
     vloc_psi     :  31023.13s CPU  35283.15s WALL (    4413 calls)
     add_vuspsi   :  17593.66s CPU  17641.92s WALL (    4413 calls)

     General routines
     calbec       :  20215.17s CPU  21009.77s WALL (    4777 calls)
     fft          :   1735.94s CPU   2006.97s WALL (   19890 calls)
     ffts         :   1721.04s CPU   1980.42s WALL (   20638 calls)
     fftw         :  34252.35s CPU  39337.14s WALL (  931236 calls)
 
     Parallel routines
     fft_scatt_xy :   5633.03s CPU   5799.89s WALL (  971764 calls)
     fft_scatt_yz :   7746.33s CPU  12539.50s WALL (  971764 calls)
 
     PWSCF        :   2d 3h45m CPU   2d 6h57m WALL

 
   This run was terminated on:  19: 7: 7   3Aug2020            

=------------------------------------------------------------------------------=
   JOB DONE.
=------------------------------------------------------------------------------=
QE finished Mon Aug 3 19:07:07 PDT 2020
