/apps/openmpi/3.1_intel-19/bin/mpiexec
starting QE Sun Jun 21 23:00:24 PDT 2020

     Program PWSCF v.6.5 starts on 21Jun2020 at 23: 0:25 

     This program is part of the open-source Quantum ESPRESSO suite
     for quantum simulation of materials; please cite
         "P. Giannozzi et al., J. Phys.:Condens. Matter 21 395502 (2009);
         "P. Giannozzi et al., J. Phys.:Condens. Matter 29 465901 (2017);
          URL http://www.quantum-espresso.org", 
     in publications or presentations arising from this work. More details at
     http://www.quantum-espresso.org/quote

     Parallel version (MPI), running on    32 processors

     MPI processes distributed on     1 nodes
     K-points division:     npool     =       2
     R & G space division:  proc/nbgrp/npool/nimage =      16
     Reading input from QE_input_scripts/pw.NiPyC2_relax_sc211_meta_functionalized_OH_pbesol_relax.in
Warning: card &CELL ignored
Warning: card    CELL_DYNAMICS = 'BFGS' ignored
Warning: card    CELL_DOFREE = 'XYZ' ignored
Warning: card / ignored

     Current dimensions of program PWSCF are:
     Max number of different atomic species (ntypx) = 10
     Max number of k-points (npk) =  40000
     Max angular momentum in pseudopotentials (lmaxx) =  3

     -------------------------------------------------
     Parameters for Dispersion (Grimme-D2) Correction:
     -------------------------------------------------
       atom      VdW radius       C_6     

        C          2.744         60.710
        H          1.892          4.857
        N          2.640         42.670
        Ni         2.952        374.666
        O          2.536         24.284

     gamma-point specific algorithms are used

     Subspace diagonalization in iterative solution of the eigenvalue problem:
     a serial algorithm will be used

 
     Parallelization info
     --------------------
     sticks:   dense  smooth     PW     G-vecs:    dense   smooth      PW
     Min        1113    1113    277                91686    91686   11456
     Max        1116    1116    280                91692    91692   11460
     Sum       17829   17829   4453              1467017  1467017  183325
 


     bravais-lattice index     =            0
     lattice parameter (alat)  =      23.6322  a.u.
     unit-cell volume          =   10858.6228 (a.u.)^3
     number of atoms/cell      =          116
     number of atomic types    =            5
     number of electrons       =       448.00 (up: 228.00, down: 220.00)
     number of Kohn-Sham states=          274
     kinetic-energy cutoff     =     100.0000  Ry
     charge density cutoff     =     400.0000  Ry
     convergence threshold     =      1.0E-06
     mixing beta               =       0.7000
     number of iterations used =            8  local-TF  mixing
     Exchange-correlation= PBESOL
                           (   1   4  10   8   0   0   0)
     nstep                     =          200


     celldm(1)=  23.632159  celldm(2)=   0.000000  celldm(3)=   0.000000
     celldm(4)=   0.000000  celldm(5)=   0.000000  celldm(6)=   0.000000

     crystal axes: (cart. coord. in units of alat)
               a(1) = (   1.000000   0.000000   0.000000 )  
               a(2) = (   0.000000   1.001423   0.000000 )  
               a(3) = (  -0.018199   0.000000   0.821574 )  

     reciprocal axes: (cart. coord. in units 2 pi/alat)
               b(1) = (  1.000000  0.000000  0.022152 )  
               b(2) = (  0.000000  0.998579  0.000000 )  
               b(3) = (  0.000000  0.000000  1.217175 )  


     PseudoPot. # 1 for C  read from file:
     ./pseudo/C.pbesol-nc.UPF
     MD5 check sum: ce26087537ded160c8d400e183a8bf42
     Pseudo is Norm-conserving, Zval =  4.0
     Generated using "atomic" code by A. Dal Corso v.6.5
     Using radial grid of 1073 points,  1 beta functions with: 
                l(1) =   1

     PseudoPot. # 2 for H  read from file:
     ./pseudo/H.pbesol-n-nc.UPF
     MD5 check sum: 7995ef24074557c85b430109caaacc09
     Pseudo is Norm-conserving, Zval =  1.0
     Generated using "atomic" code by A. Dal Corso v.6.5
     Using radial grid of  929 points,  0 beta functions with: 

     PseudoPot. # 3 for N  read from file:
     ./pseudo/N.pbesol-nc.UPF
     MD5 check sum: e18cc5e4b8a5600c1a19b30c2cab1ca0
     Pseudo is Norm-conserving, Zval =  5.0
     Generated using "atomic" code by A. Dal Corso v.6.5
     Using radial grid of 1085 points,  1 beta functions with: 
                l(1) =   1

     PseudoPot. # 4 for Ni read from file:
     ./pseudo/Ni.pbesol-n-nc.UPF
     MD5 check sum: 623411631e0c2eb7c0b2b9815547d2d9
     Pseudo is Norm-conserving + core correction, Zval = 10.0
     Generated using "atomic" code by A. Dal Corso v.6.5
     Using radial grid of 1195 points,  2 beta functions with: 
                l(1) =   1
                l(2) =   2

     PseudoPot. # 5 for O  read from file:
     ./pseudo/O.pbesol-nc.UPF
     MD5 check sum: 73d10e7e91dbfcbe8a7e362101007f84
     Pseudo is Norm-conserving, Zval =  6.0
     Generated using "atomic" code by A. Dal Corso v.6.5
     Using radial grid of 1095 points,  1 beta functions with: 
                l(1) =   1

     atomic species   valence    mass     pseudopotential
        C              4.00    12.01070     C ( 1.00)
        H              1.00     1.00794     H ( 1.00)
        N              5.00    14.00670     N ( 1.00)
        Ni            10.00    58.69340     Ni( 1.00)
        O              6.00    15.99940     O ( 1.00)

     Starting magnetic structure 
     atomic species   magnetization
        C            0.000
        H            0.000
        N            0.000
        Ni           0.250
        O            0.000

     No symmetry found



   Cartesian axes

     site n.     atom                  positions (alat units)
         1           C   tau(   1) = (   0.2787122   0.9714307   0.4288486  )
         2           C   tau(   2) = (   0.0379730   0.0311503   0.0183277  )
         3           C   tau(   3) = (   0.3806882   0.0117868   0.4489838  )
         4           C   tau(   4) = (   0.1394042   0.9891499   0.0379124  )
         5           C   tau(   5) = (   0.4400787   0.9715829   0.5343281  )
         6           C   tau(   6) = (   0.1997920   0.0283934   0.1231482  )
         7           C   tau(   7) = (   0.1986011   0.5304580   0.4324635  )
         8           C   tau(   8) = (   0.4580372   0.4720800   0.0229252  )
         9           C   tau(   9) = (   0.2341003   0.6142040   0.4982314  )
        10           C   tau(  10) = (   0.4948422   0.3892302   0.0892369  )
        11           C   tau(  11) = (   0.2384981   0.8904717   0.4955761  )
        12           C   tau(  12) = (  -0.0008282   0.1123917   0.0856467  )
        13           C   tau(  13) = (   0.3947360   0.8906489   0.5977380  )
        14           C   tau(  14) = (   0.1557890   0.1097029   0.1871645  )
        15           C   tau(  15) = (   0.0756247   0.6098498   0.5975737  )
        16           C   tau(  16) = (   0.3367152   0.3921904   0.1884642  )
        17           C   tau(  17) = (   0.0350715   0.5258264   0.5351012  )
        18           C   tau(  18) = (   0.2948780   0.4753867   0.1254988  )
        19           C   tau(  19) = (   0.0981522   0.4849593   0.4519611  )
        20           C   tau(  20) = (   0.3569104   0.5163900   0.0416029  )
        21           C   tau(  21) = (   0.4248178   0.0994604   0.3833638  )
        22           C   tau(  22) = (   0.1639424   0.9010006   0.7933713  )
        23           C   tau(  23) = (   0.0588120   0.3950355   0.3866953  )
        24           C   tau(  24) = (   0.2984059   0.6050320   0.7961934  )
        25           C   tau(  25) = (   0.7787122   0.9714307   0.4288486  )
        26           C   tau(  26) = (   0.5379730   0.0311503   0.0183277  )
        27           C   tau(  27) = (   0.8806882   0.0117868   0.4489838  )
        28           C   tau(  28) = (   0.6394042   0.9891499   0.0379124  )
        29           C   tau(  29) = (   0.9400787   0.9715829   0.5343281  )
        30           C   tau(  30) = (   0.6997920   0.0283934   0.1231482  )
        31           C   tau(  31) = (   0.6986021   0.5304580   0.4324635  )
        32           C   tau(  32) = (   0.9580382   0.4720800   0.0229252  )
        33           C   tau(  33) = (   0.7341003   0.6142040   0.4982314  )
        34           C   tau(  34) = (   0.9948422   0.3892302   0.0892369  )
        35           C   tau(  35) = (   0.7384981   0.8904717   0.4955761  )
        36           C   tau(  36) = (   0.4991718   0.1123917   0.0856467  )
        37           C   tau(  37) = (   0.8947360   0.8906489   0.5977380  )
        38           C   tau(  38) = (   0.6557880   0.1097029   0.1871645  )
        39           C   tau(  39) = (   0.5756247   0.6098498   0.5975737  )
        40           C   tau(  40) = (   0.8367152   0.3921904   0.1884642  )
        41           C   tau(  41) = (   0.5350715   0.5258264   0.5351012  )
        42           C   tau(  42) = (   0.7948780   0.4753867   0.1254988  )
        43           C   tau(  43) = (   0.5981522   0.4849593   0.4519611  )
        44           C   tau(  44) = (   0.8569104   0.5163900   0.0416029  )
        45           C   tau(  45) = (   0.9248178   0.0994604   0.3833638  )
        46           C   tau(  46) = (   0.6639424   0.9010006   0.7933713  )
        47           C   tau(  47) = (   0.5588110   0.3950355   0.3866953  )
        48           C   tau(  48) = (   0.7984059   0.6050320   0.7961934  )
        49           H   tau(  49) = (   0.2290596   1.0009978   0.3640502  )
        50           H   tau(  50) = (   0.4693669   0.0026958   0.7751545  )
        51           H   tau(  51) = (   0.0198054   1.0002267   0.5533467  )
        52           H   tau(  52) = (   0.3118554   0.6514319   0.4868937  )
        53           H   tau(  53) = (   0.0732386   0.3533532   0.0780726  )
        54           H   tau(  54) = (   0.1594426   0.8563401   0.4835457  )
        55           H   tau(  55) = (   0.4206861   0.1479423   0.0738480  )
        56           H   tau(  56) = (   0.4386511   0.8563902   0.6644572  )
        57           H   tau(  57) = (   0.2006191   0.1433067   0.2536997  )
        58           H   tau(  58) = (   0.0290492   0.6438591   0.6626884  )
        59           H   tau(  59) = (   0.2907535   0.3580349   0.2539083  )
        60           H   tau(  60) = (   0.9693669   0.0026958   0.7751545  )
        61           H   tau(  61) = (   0.7505234   0.5016080   0.3691185  )
        62           H   tau(  62) = (   0.4913416   0.5011092   0.7809458  )
        63           H   tau(  63) = (   0.8118554   0.6514319   0.4868937  )
        64           H   tau(  64) = (   0.5732386   0.3533532   0.0780726  )
        65           H   tau(  65) = (   0.6594426   0.8563401   0.4835457  )
        66           H   tau(  66) = (   0.9206861   0.1479423   0.0738480  )
        67           H   tau(  67) = (   0.9386511   0.8563902   0.6644572  )
        68           H   tau(  68) = (   0.7006201   0.1433067   0.2536997  )
        69           H   tau(  69) = (   0.5290492   0.6438591   0.6626884  )
        70           H   tau(  70) = (   0.7907535   0.3580349   0.2539083  )
        71           H   tau(  71) = (   0.9564147   0.4939330   0.5533319  )
        72           H   tau(  72) = (   0.7157623   0.5059201   0.1439924  )
        73           H   tau(  73) = (   0.5811489   0.9795162   0.6152137  )
        74           H   tau(  74) = (   0.3412018   0.0184693   0.2032000  )
        75           H   tau(  75) = (   0.3309411   0.5260397   0.3376662  )
        76           H   tau(  76) = (   0.1528660   0.4865636   0.2042738  )
        77           H   tau(  77) = (   0.6481047   0.9794892   0.3317681  )
        78           H   tau(  78) = (   0.8412018   0.0184703   0.2032000  )
        79           H   tau(  79) = (   0.3927090   0.5136451   0.6129979  )
        80           H   tau(  80) = (   0.0725058   0.4778612   0.7499700  )
        81           N   tau(  81) = (   0.2956096   0.8524646   0.5790685  )
        82           N   tau(  82) = (   0.0569790   0.1490689   0.1692870  )
        83           N   tau(  83) = (   0.1736962   0.6512356   0.5798983  )
        84           N   tau(  84) = (   0.4350238   0.3514275   0.1709211  )
        85           N   tau(  85) = (   0.7956096   0.8524646   0.5790685  )
        86           N   tau(  86) = (   0.5569790   0.1490689   0.1692870  )
        87           N   tau(  87) = (   0.6736972   0.6512356   0.5798983  )
        88           N   tau(  88) = (   0.9350238   0.3514275   0.1709211  )
        89           Ni  tau(  89) = (   0.2317814   0.7525556   0.6871039  )
        90           Ni  tau(  90) = (   0.4937992   0.2483520   0.2786599  )
        91           Ni  tau(  91) = (   0.7317814   0.7525556   0.6871039  )
        92           Ni  tau(  92) = (   0.9937992   0.2483520   0.2786599  )
        93           O   tau(  93) = (   0.1158100   0.3481839   0.3145586  )
        94           O   tau(  94) = (   0.3551690   0.6519036   0.7240468  )
        95           O   tau(  95) = (   0.3707656   0.1477170   0.3098797  )
        96           O   tau(  96) = (   0.1091506   0.8535652   0.7199135  )
        97           O   tau(  97) = (   0.4642788   0.3566669   0.3968154  )
        98           O   tau(  98) = (   0.2033039   0.6423280   0.8050417  )
        99           O   tau(  99) = (   0.0200847   0.1353504   0.3952413  )
       100           O   tau( 100) = (   0.2588616   0.8639860   0.8046490  )
       101           O   tau( 101) = (   0.6158110   0.3481839   0.3145586  )
       102           O   tau( 102) = (   0.8551690   0.6519036   0.7240468  )
       103           O   tau( 103) = (   0.8707656   0.1477170   0.3098797  )
       104           O   tau( 104) = (   0.6091506   0.8535652   0.7199135  )
       105           O   tau( 105) = (   0.9642788   0.3566669   0.3968154  )
       106           O   tau( 106) = (   0.7033039   0.6423280   0.8050417  )
       107           O   tau( 107) = (   0.5200847   0.1353504   0.3952413  )
       108           O   tau( 108) = (   0.7588616   0.8639860   0.8046490  )
       109           O   tau( 109) = (   0.5393362   0.0062279   0.5564670  )
       110           O   tau( 110) = (   0.2987240   0.9924746   0.1445921  )
       111           O   tau( 111) = (   0.2613722   0.4952750   0.3519731  )
       112           O   tau( 112) = (   0.1964508   0.5142019   0.1465894  )
       113           O   tau( 113) = (   0.7186717   0.0061838   0.3466214  )
       114           O   tau( 114) = (   0.7987240   0.9924746   0.1445921  )
       115           O   tau( 115) = (   0.4369778   0.4860649   0.5558090  )
       116           O   tau( 116) = (   0.0024461   0.5076896   0.7638603  )

     number of k points=     1  Marzari-Vanderbilt smearing, width (Ry)=  0.2000
                       cart. coord. in units 2pi/alat
        k(    1) = (   0.0000000   0.0000000   0.0000000), wk =   1.0000000

     Dense  grid:   733509 G-vectors     FFT dimensions: ( 160, 160, 125)

     Estimated max dynamical RAM per process >     332.29 MB

     Estimated total dynamical RAM >      10.38 GB
     Generating pointlists ...
     new r_m :   0.0358 (alat units)  0.8461 (a.u.) for type    1
     new r_m :   0.0319 (alat units)  0.7545 (a.u.) for type    2
     new r_m :   0.0445 (alat units)  1.0514 (a.u.) for type    3
     new r_m :   0.0654 (alat units)  1.5454 (a.u.) for type    4
     new r_m :   0.0319 (alat units)  0.7545 (a.u.) for type    5

     Check: negative core charge=   -0.000145

     Initial potential from superposition of free atoms

     starting charge  447.99668, renormalised to  448.00000
     Starting wfcs are  388 randomized atomic wfcs

     total cpu time spent up to now is       19.4 secs

     Self-consistent Calculation

     iteration #  1     ecut=   100.00 Ry     beta= 0.70
     Davidson diagonalization with overlap
     ethr =  1.00E-02,  avg # of iterations =  4.0

     total cpu time spent up to now is       69.2 secs

     total energy              =   -1875.07004703 Ry
     Harris-Foulkes estimate   =   -1882.79071533 Ry
     estimated scf accuracy    <      19.36168608 Ry

     total magnetization       =     8.00 Bohr mag/cell
     absolute magnetization    =     8.62 Bohr mag/cell

     iteration #  2     ecut=   100.00 Ry     beta= 0.70
     Davidson diagonalization with overlap
     ethr =  4.32E-03,  avg # of iterations =  2.0

     total cpu time spent up to now is       99.8 secs

     total energy              =   -1877.97824589 Ry
     Harris-Foulkes estimate   =   -1881.65322781 Ry
     estimated scf accuracy    <      18.57365299 Ry

     total magnetization       =     8.00 Bohr mag/cell
     absolute magnetization    =     8.32 Bohr mag/cell

     iteration #  3     ecut=   100.00 Ry     beta= 0.70
     Davidson diagonalization with overlap
     ethr =  4.15E-03,  avg # of iterations =  1.0

     total cpu time spent up to now is      126.4 secs

     total energy              =   -1878.01300750 Ry
     Harris-Foulkes estimate   =   -1878.81587723 Ry
     estimated scf accuracy    <       2.40629793 Ry

     total magnetization       =     8.00 Bohr mag/cell
     absolute magnetization    =     8.20 Bohr mag/cell

     iteration #  4     ecut=   100.00 Ry     beta= 0.70
     Davidson diagonalization with overlap
     ethr =  5.37E-04,  avg # of iterations =  7.0

     total cpu time spent up to now is      163.7 secs

     total energy              =   -1877.89211854 Ry
     Harris-Foulkes estimate   =   -1878.68195500 Ry
     estimated scf accuracy    <       5.95226378 Ry

     total magnetization       =     8.00 Bohr mag/cell
     absolute magnetization    =     8.27 Bohr mag/cell

     iteration #  5     ecut=   100.00 Ry     beta= 0.70
     Davidson diagonalization with overlap
     ethr =  5.37E-04,  avg # of iterations =  2.0

     total cpu time spent up to now is      191.1 secs

     total energy              =   -1878.27287252 Ry
     Harris-Foulkes estimate   =   -1878.33698145 Ry
     estimated scf accuracy    <       0.56219550 Ry

     total magnetization       =     8.00 Bohr mag/cell
     absolute magnetization    =     8.25 Bohr mag/cell

     iteration #  6     ecut=   100.00 Ry     beta= 0.70
     Davidson diagonalization with overlap
     ethr =  1.25E-04,  avg # of iterations =  3.0

     total cpu time spent up to now is      218.8 secs

     total energy              =   -1878.25520175 Ry
     Harris-Foulkes estimate   =   -1878.31905670 Ry
     estimated scf accuracy    <       1.12935440 Ry

     total magnetization       =     8.00 Bohr mag/cell
     absolute magnetization    =     8.27 Bohr mag/cell

     iteration #  7     ecut=   100.00 Ry     beta= 0.70
     Davidson diagonalization with overlap
     ethr =  1.25E-04,  avg # of iterations =  1.0

     total cpu time spent up to now is      245.6 secs

     total energy              =   -1878.18155953 Ry
     Harris-Foulkes estimate   =   -1878.28034652 Ry
     estimated scf accuracy    <       0.56684329 Ry

     total magnetization       =     8.00 Bohr mag/cell
     absolute magnetization    =     8.27 Bohr mag/cell

     iteration #  8     ecut=   100.00 Ry     beta= 0.70
     Davidson diagonalization with overlap
     ethr =  1.25E-04,  avg # of iterations =  2.5

     total cpu time spent up to now is      273.0 secs

     total energy              =   -1878.22291656 Ry
     Harris-Foulkes estimate   =   -1878.23660216 Ry
     estimated scf accuracy    <       0.14267708 Ry

     total magnetization       =     8.00 Bohr mag/cell
     absolute magnetization    =     8.28 Bohr mag/cell

     iteration #  9     ecut=   100.00 Ry     beta= 0.70
     Davidson diagonalization with overlap
     ethr =  3.18E-05,  avg # of iterations =  9.5

     total cpu time spent up to now is      307.4 secs

     total energy              =   -1878.22404164 Ry
     Harris-Foulkes estimate   =   -1878.23329654 Ry
     estimated scf accuracy    <       0.13779845 Ry

     total magnetization       =     8.00 Bohr mag/cell
     absolute magnetization    =     8.28 Bohr mag/cell

     iteration # 10     ecut=   100.00 Ry     beta= 0.70
     Davidson diagonalization with overlap
     ethr =  3.08E-05,  avg # of iterations =  1.0

     total cpu time spent up to now is      334.1 secs

     total energy              =   -1878.23206081 Ry
     Harris-Foulkes estimate   =   -1878.23114683 Ry
     estimated scf accuracy    <       0.03340490 Ry

     total magnetization       =     8.00 Bohr mag/cell
     absolute magnetization    =     8.27 Bohr mag/cell

     iteration # 11     ecut=   100.00 Ry     beta= 0.70
     Davidson diagonalization with overlap
     ethr =  7.46E-06,  avg # of iterations =  4.0

     total cpu time spent up to now is      364.1 secs

     total energy              =   -1878.23605841 Ry
     Harris-Foulkes estimate   =   -1878.23401334 Ry
     estimated scf accuracy    <       0.00505073 Ry

     total magnetization       =     8.00 Bohr mag/cell
     absolute magnetization    =     8.27 Bohr mag/cell

     iteration # 12     ecut=   100.00 Ry     beta= 0.70
     Davidson diagonalization with overlap
     ethr =  1.13E-06,  avg # of iterations =  8.5

     total cpu time spent up to now is      400.8 secs

     total energy              =   -1878.23691650 Ry
     Harris-Foulkes estimate   =   -1878.23641917 Ry
     estimated scf accuracy    <       0.00175914 Ry

     total magnetization       =     8.00 Bohr mag/cell
     absolute magnetization    =     8.26 Bohr mag/cell

     iteration # 13     ecut=   100.00 Ry     beta= 0.70
     Davidson diagonalization with overlap
     ethr =  3.93E-07,  avg # of iterations =  3.5

     total cpu time spent up to now is      429.3 secs

     total energy              =   -1878.23715606 Ry
     Harris-Foulkes estimate   =   -1878.23721805 Ry
     estimated scf accuracy    <       0.00469920 Ry

     total magnetization       =     8.00 Bohr mag/cell
     absolute magnetization    =     8.26 Bohr mag/cell

     iteration # 14     ecut=   100.00 Ry     beta= 0.70
     Davidson diagonalization with overlap
     ethr =  3.93E-07,  avg # of iterations =  3.0

     total cpu time spent up to now is      457.2 secs

     total energy              =   -1878.23772696 Ry
     Harris-Foulkes estimate   =   -1878.23738234 Ry
     estimated scf accuracy    <       0.00065719 Ry

     total magnetization       =     8.00 Bohr mag/cell
     absolute magnetization    =     8.25 Bohr mag/cell

     iteration # 15     ecut=   100.00 Ry     beta= 0.70
     Davidson diagonalization with overlap
     ethr =  1.47E-07,  avg # of iterations =  4.0

     total cpu time spent up to now is      487.1 secs

     total energy              =   -1878.23779335 Ry
     Harris-Foulkes estimate   =   -1878.23776923 Ry
     estimated scf accuracy    <       0.00008976 Ry

     total magnetization       =     8.00 Bohr mag/cell
     absolute magnetization    =     8.26 Bohr mag/cell

     iteration # 16     ecut=   100.00 Ry     beta= 0.70
     Davidson diagonalization with overlap
     ethr =  2.00E-08,  avg # of iterations =  3.5

     total cpu time spent up to now is      516.2 secs

     total energy              =   -1878.23780885 Ry
     Harris-Foulkes estimate   =   -1878.23779909 Ry
     estimated scf accuracy    <       0.00004916 Ry

     total magnetization       =     8.00 Bohr mag/cell
     absolute magnetization    =     8.26 Bohr mag/cell

     iteration # 17     ecut=   100.00 Ry     beta= 0.70
     Davidson diagonalization with overlap
     ethr =  1.10E-08,  avg # of iterations =  3.0

     total cpu time spent up to now is      544.4 secs

     total energy              =   -1878.23781604 Ry
     Harris-Foulkes estimate   =   -1878.23781283 Ry
     estimated scf accuracy    <       0.00005063 Ry

     total magnetization       =     8.00 Bohr mag/cell
     absolute magnetization    =     8.26 Bohr mag/cell

     iteration # 18     ecut=   100.00 Ry     beta= 0.70
     Davidson diagonalization with overlap
     ethr =  1.10E-08,  avg # of iterations =  3.0

     total cpu time spent up to now is      572.4 secs

     total energy              =   -1878.23781986 Ry
     Harris-Foulkes estimate   =   -1878.23781824 Ry
     estimated scf accuracy    <       0.00000979 Ry

     total magnetization       =     8.00 Bohr mag/cell
     absolute magnetization    =     8.26 Bohr mag/cell

     iteration # 19     ecut=   100.00 Ry     beta= 0.70
     Davidson diagonalization with overlap
     ethr =  2.19E-09,  avg # of iterations =  4.0

     total cpu time spent up to now is      601.8 secs

     total energy              =   -1878.23782170 Ry
     Harris-Foulkes estimate   =   -1878.23782047 Ry
     estimated scf accuracy    <       0.00000454 Ry

     total magnetization       =     8.00 Bohr mag/cell
     absolute magnetization    =     8.26 Bohr mag/cell

     iteration # 20     ecut=   100.00 Ry     beta= 0.70
     Davidson diagonalization with overlap
     ethr =  1.01E-09,  avg # of iterations =  3.0

     total cpu time spent up to now is      630.7 secs

     total energy              =   -1878.23782212 Ry
     Harris-Foulkes estimate   =   -1878.23782228 Ry
     estimated scf accuracy    <       0.00000556 Ry

     total magnetization       =     8.00 Bohr mag/cell
     absolute magnetization    =     8.26 Bohr mag/cell

     iteration # 21     ecut=   100.00 Ry     beta= 0.70
     Davidson diagonalization with overlap
     ethr =  1.01E-09,  avg # of iterations =  3.0

     total cpu time spent up to now is      658.8 secs

     total energy              =   -1878.23782250 Ry
     Harris-Foulkes estimate   =   -1878.23782264 Ry
     estimated scf accuracy    <       0.00000334 Ry

     total magnetization       =     8.00 Bohr mag/cell
     absolute magnetization    =     8.26 Bohr mag/cell

     iteration # 22     ecut=   100.00 Ry     beta= 0.70
     Davidson diagonalization with overlap
     ethr =  7.45E-10,  avg # of iterations =  2.0

     total cpu time spent up to now is      686.1 secs

     total energy              =   -1878.23782268 Ry
     Harris-Foulkes estimate   =   -1878.23782272 Ry
     estimated scf accuracy    <       0.00000156 Ry

     total magnetization       =     8.00 Bohr mag/cell
     absolute magnetization    =     8.26 Bohr mag/cell

     iteration # 23     ecut=   100.00 Ry     beta= 0.70
     Davidson diagonalization with overlap
     ethr =  3.47E-10,  avg # of iterations =  2.5
 
     Magnetic moment per site:
     atom:    1    charge:    0.8449    magn:    0.0043    constr:    0.0000
     atom:    2    charge:    0.8448    magn:    0.0045    constr:    0.0000
     atom:    3    charge:    0.8512    magn:    0.0061    constr:    0.0000
     atom:    4    charge:    0.8502    magn:    0.0067    constr:    0.0000
     atom:    5    charge:    0.8282    magn:    0.0024    constr:    0.0000
     atom:    6    charge:    0.8293    magn:    0.0023    constr:    0.0000
     atom:    7    charge:    0.8299    magn:    0.0027    constr:    0.0000
     atom:    8    charge:    0.8455    magn:    0.0043    constr:    0.0000
     atom:    9    charge:    0.8440    magn:    0.0088    constr:    0.0000
     atom:   10    charge:    0.8375    magn:    0.0063    constr:    0.0000
     atom:   11    charge:    0.8381    magn:    0.0062    constr:    0.0000
     atom:   12    charge:    0.8384    magn:    0.0064    constr:    0.0000
     atom:   13    charge:    0.8457    magn:    0.0088    constr:    0.0000
     atom:   14    charge:    0.8449    magn:    0.0090    constr:    0.0000
     atom:   15    charge:    0.8413    magn:    0.0065    constr:    0.0000
     atom:   16    charge:    0.8462    magn:    0.0087    constr:    0.0000
     atom:   17    charge:    0.8456    magn:    0.0048    constr:    0.0000
     atom:   18    charge:    0.8287    magn:    0.0025    constr:    0.0000
     atom:   19    charge:    0.8529    magn:    0.0061    constr:    0.0000
     atom:   20    charge:    0.8507    magn:    0.0062    constr:    0.0000
     atom:   21    charge:    0.8222    magn:   -0.0014    constr:    0.0000
     atom:   22    charge:    0.8225    magn:   -0.0022    constr:    0.0000
     atom:   23    charge:    0.8224    magn:   -0.0015    constr:    0.0000
     atom:   24    charge:    0.8235    magn:   -0.0016    constr:    0.0000
     atom:   25    charge:    0.8280    magn:    0.0028    constr:    0.0000
     atom:   26    charge:    0.8452    magn:    0.0045    constr:    0.0000
     atom:   27    charge:    0.8509    magn:    0.0061    constr:    0.0000
     atom:   28    charge:    0.8505    magn:    0.0063    constr:    0.0000
     atom:   29    charge:    0.8450    magn:    0.0047    constr:    0.0000
     atom:   30    charge:    0.8297    magn:    0.0025    constr:    0.0000
     atom:   31    charge:    0.8461    magn:    0.0042    constr:    0.0000
     atom:   32    charge:    0.8278    magn:    0.0024    constr:    0.0000
     atom:   33    charge:    0.8382    magn:    0.0062    constr:    0.0000
     atom:   34    charge:    0.8429    magn:    0.0089    constr:    0.0000
     atom:   35    charge:    0.8436    magn:    0.0087    constr:    0.0000
     atom:   36    charge:    0.8383    magn:    0.0065    constr:    0.0000
     atom:   37    charge:    0.8404    magn:    0.0063    constr:    0.0000
     atom:   38    charge:    0.8462    magn:    0.0091    constr:    0.0000
     atom:   39    charge:    0.8452    magn:    0.0088    constr:    0.0000
     atom:   40    charge:    0.8397    magn:    0.0062    constr:    0.0000
     atom:   41    charge:    0.8287    magn:    0.0024    constr:    0.0000
     atom:   42    charge:    0.8451    magn:    0.0045    constr:    0.0000
     atom:   43    charge:    0.8528    magn:    0.0065    constr:    0.0000
     atom:   44    charge:    0.8499    magn:    0.0066    constr:    0.0000
     atom:   45    charge:    0.8218    magn:   -0.0016    constr:    0.0000
     atom:   46    charge:    0.8228    magn:   -0.0015    constr:    0.0000
     atom:   47    charge:    0.8226    magn:   -0.0019    constr:    0.0000
     atom:   48    charge:    0.8229    magn:   -0.0023    constr:    0.0000
     atom:   49    charge:    0.3838    magn:   -0.0012    constr:    0.0000
     atom:   50    charge:    0.3833    magn:   -0.0012    constr:    0.0000
     atom:   51    charge:    0.3823    magn:   -0.0013    constr:    0.0000
     atom:   52    charge:    0.3839    magn:   -0.0010    constr:    0.0000
     atom:   53    charge:    0.3837    magn:   -0.0010    constr:    0.0000
     atom:   54    charge:    0.3871    magn:   -0.0011    constr:    0.0000
     atom:   55    charge:    0.3874    magn:   -0.0010    constr:    0.0000
     atom:   56    charge:    0.3805    magn:   -0.0010    constr:    0.0000
     atom:   57    charge:    0.3802    magn:   -0.0010    constr:    0.0000
     atom:   58    charge:    0.3825    magn:   -0.0004    constr:    0.0000
     atom:   59    charge:    0.3791    magn:   -0.0007    constr:    0.0000
     atom:   60    charge:    0.3828    magn:   -0.0012    constr:    0.0000
     atom:   61    charge:    0.3825    magn:   -0.0012    constr:    0.0000
     atom:   62    charge:    0.3838    magn:   -0.0012    constr:    0.0000
     atom:   63    charge:    0.3872    magn:   -0.0011    constr:    0.0000
     atom:   64    charge:    0.3870    magn:   -0.0011    constr:    0.0000
     atom:   65    charge:    0.3839    magn:   -0.0010    constr:    0.0000
     atom:   66    charge:    0.3874    magn:   -0.0010    constr:    0.0000
     atom:   67    charge:    0.3840    magn:   -0.0008    constr:    0.0000
     atom:   68    charge:    0.3794    magn:   -0.0005    constr:    0.0000
     atom:   69    charge:    0.3803    magn:   -0.0010    constr:    0.0000
     atom:   70    charge:    0.3837    magn:   -0.0009    constr:    0.0000
     atom:   71    charge:    0.3823    magn:   -0.0012    constr:    0.0000
     atom:   72    charge:    0.3831    magn:   -0.0013    constr:    0.0000
     atom:   73    charge:    0.3846    magn:    0.0001    constr:    0.0000
     atom:   74    charge:    0.3850    magn:    0.0001    constr:    0.0000
     atom:   75    charge:    0.3877    magn:   -0.0000    constr:    0.0000
     atom:   76    charge:    0.3838    magn:    0.0001    constr:    0.0000
     atom:   77    charge:    0.3871    magn:   -0.0000    constr:    0.0000
     atom:   78    charge:    0.3837    magn:    0.0002    constr:    0.0000
     atom:   79    charge:    0.3855    magn:    0.0001    constr:    0.0000
     atom:   80    charge:    0.3876    magn:    0.0000    constr:    0.0000
     atom:   81    charge:    2.4467    magn:    0.0124    constr:    0.0000
     atom:   82    charge:    2.4469    magn:    0.0122    constr:    0.0000
     atom:   83    charge:    2.4503    magn:    0.0126    constr:    0.0000
     atom:   84    charge:    2.4469    magn:    0.0126    constr:    0.0000
     atom:   85    charge:    2.4470    magn:    0.0127    constr:    0.0000
     atom:   86    charge:    2.4473    magn:    0.0124    constr:    0.0000
     atom:   87    charge:    2.4496    magn:    0.0122    constr:    0.0000
     atom:   88    charge:    2.4469    magn:    0.0126    constr:    0.0000
     atom:   89    charge:    7.4354    magn:    1.1421    constr:    0.0000
     atom:   90    charge:    7.4352    magn:    1.1411    constr:    0.0000
     atom:   91    charge:    7.4366    magn:    1.1409    constr:    0.0000
     atom:   92    charge:    7.4356    magn:    1.1388    constr:    0.0000
     atom:   93    charge:    1.9281    magn:    0.0355    constr:    0.0000
     atom:   94    charge:    1.9276    magn:    0.0346    constr:    0.0000
     atom:   95    charge:    1.9296    magn:    0.0333    constr:    0.0000
     atom:   96    charge:    1.9244    magn:    0.0398    constr:    0.0000
     atom:   97    charge:    1.9254    magn:    0.0403    constr:    0.0000
     atom:   98    charge:    1.9267    magn:    0.0398    constr:    0.0000
     atom:   99    charge:    1.9266    magn:    0.0384    constr:    0.0000
     atom:  100    charge:    1.9245    magn:    0.0423    constr:    0.0000
     atom:  101    charge:    1.9263    magn:    0.0385    constr:    0.0000
     atom:  102    charge:    1.9240    magn:    0.0417    constr:    0.0000
     atom:  103    charge:    1.9288    magn:    0.0352    constr:    0.0000
     atom:  104    charge:    1.9279    magn:    0.0335    constr:    0.0000
     atom:  105    charge:    1.9261    magn:    0.0379    constr:    0.0000
     atom:  106    charge:    1.9276    magn:    0.0404    constr:    0.0000
     atom:  107    charge:    1.9258    magn:    0.0391    constr:    0.0000
     atom:  108    charge:    1.9243    magn:    0.0403    constr:    0.0000
     atom:  109    charge:    1.9456    magn:    0.0154    constr:    0.0000
     atom:  110    charge:    1.9451    magn:    0.0160    constr:    0.0000
     atom:  111    charge:    1.9488    magn:    0.0126    constr:    0.0000
     atom:  112    charge:    1.9464    magn:    0.0164    constr:    0.0000
     atom:  113    charge:    1.9486    magn:    0.0131    constr:    0.0000
     atom:  114    charge:    1.9450    magn:    0.0180    constr:    0.0000
     atom:  115    charge:    1.9437    magn:    0.0145    constr:    0.0000
     atom:  116    charge:    1.9450    magn:    0.0146    constr:    0.0000

     total cpu time spent up to now is      713.2 secs

     End of self-consistent calculation

 ------ SPIN UP ------------


          k = 0.0000 0.0000 0.0000 ( 91663 PWs)   bands (ev):

   -22.0099 -21.9911 -21.9727 -21.9653 -21.8870 -21.8591 -21.8250 -21.8210
   -21.5108 -21.4832 -21.3062 -21.2891 -21.2537 -21.2088 -21.1534 -21.0914
   -18.9524 -18.9343 -18.9281 -18.9231 -18.9109 -18.8811 -18.8448 -18.8375
   -18.7587 -18.7538 -18.7382 -18.7162 -18.6549 -18.6497 -18.6412 -18.6192
   -15.1001 -15.0734 -15.0533 -15.0470 -15.0252 -15.0170 -15.0108 -14.9772
   -13.7638 -13.7235 -13.6753 -13.6577 -13.6369 -13.6295 -13.5765 -13.5395
   -11.4502 -11.3710 -11.3587 -11.3149 -11.2989 -11.2748 -11.2715 -11.2515
   -11.0313 -11.0179 -10.9642 -10.9527 -10.9251 -10.9161 -10.8926 -10.8125
    -9.2485  -9.1878  -9.0755  -9.0106  -8.9810  -8.9657  -8.8942  -8.8555
    -8.7247  -8.6689  -8.6530  -8.5951  -8.5597  -8.5527  -8.5058  -8.4336
    -7.5862  -7.3328  -7.3277  -7.2972  -7.2533  -7.2466  -7.2338  -7.1916
    -7.1605  -7.1097  -7.0743  -7.0614  -6.8456  -6.8248  -6.6897  -6.6374
    -6.3353  -6.3141  -6.2977  -6.2807  -6.2621  -6.2450  -6.2152  -6.1963
    -6.1745  -6.1426  -6.0638  -5.9649  -5.9166  -5.9013  -5.8881  -5.8564
    -5.8477  -5.8193  -5.8119  -5.7787  -5.7604  -5.6957  -5.6867  -5.6065
    -5.5810  -5.5411  -5.5191  -5.4552  -5.4011  -5.3473  -5.3148  -5.2862
    -5.2557  -5.1849  -5.1724  -5.1504  -5.1326  -5.1034  -4.9259  -4.7665
    -4.4261  -4.3186  -4.2611  -4.2528  -4.2079  -4.1719  -4.1002  -4.0861
    -4.0654  -4.0482  -4.0373  -4.0051  -4.0006  -3.9891  -3.9314  -3.9130
    -3.8965  -3.8493  -3.8226  -3.7982  -3.7093  -3.6818  -3.6599  -3.6252
    -3.6071  -3.5275  -3.4773  -3.4680  -3.4093  -3.2829  -3.2575  -3.1493
    -2.9166  -2.8328  -2.7956  -2.7081  -2.6902  -2.6711  -2.6146  -2.5831
    -2.5405  -2.5145  -2.4956  -2.4803  -2.4580  -2.4248  -2.3456  -2.3266
    -2.2169  -2.2048  -2.1212  -2.0254  -1.9675  -1.9540  -1.9450  -1.8558
    -1.8434  -1.7960  -1.7869  -1.7439  -1.7087  -1.6999  -1.6563  -1.6165
    -1.5736  -1.5545  -1.5374  -1.5238  -1.5028  -1.4762  -1.4260  -1.4109
    -1.3297  -1.3159  -1.2826  -1.2067  -0.9023  -0.8431  -0.8043  -0.7660
    -0.7308  -0.6873  -0.6298  -0.4715   0.3049   0.3211   0.4093   0.4289
     0.6365   0.6505   0.7378   0.7461   2.3903   2.4096   2.4313   2.4382
     2.4480   2.5144   2.5392   2.5529   3.6455   3.7243   3.7932   3.8056
     3.8617   3.9014   3.9506   4.0151   4.0599   4.3467   4.5949   4.7006
     4.8520   4.9257   4.9480   4.9528   5.0152   5.0625   5.0940   5.1922
     5.2247   5.3286   5.5212   5.5844   5.6627   5.6912   5.8130   5.9772
     6.0569   6.1855   6.2623   6.5224   6.6898   6.7411   6.7806   6.8388
     7.0000   7.0234

 ------ SPIN DOWN ----------


          k = 0.0000 0.0000 0.0000 ( 91663 PWs)   bands (ev):

   -21.9094 -21.8879 -21.8667 -21.8581 -21.7907 -21.7531 -21.7138 -21.7103
   -21.4629 -21.4326 -21.2572 -21.2411 -21.2049 -21.1568 -21.1034 -21.0370
   -18.8190 -18.7997 -18.7929 -18.7869 -18.7775 -18.7416 -18.7229 -18.7140
   -18.7105 -18.6924 -18.6806 -18.6707 -18.6147 -18.6115 -18.6012 -18.5811
   -15.0617 -15.0349 -15.0145 -15.0093 -14.9867 -14.9778 -14.9719 -14.9374
   -13.7208 -13.6802 -13.6325 -13.6151 -13.5938 -13.5864 -13.5330 -13.4952
   -11.4038 -11.3255 -11.3134 -11.2747 -11.2569 -11.2330 -11.2290 -11.2083
   -11.0024 -10.9884 -10.9358 -10.9241 -10.8975 -10.8874 -10.8638 -10.7843
    -9.2211  -9.1617  -9.0490  -8.9852  -8.9564  -8.9391  -8.8699  -8.8291
    -8.6891  -8.6296  -8.6135  -8.5556  -8.5189  -8.5093  -8.4654  -8.3950
    -7.5292  -7.2835  -7.2816  -7.2520  -7.2096  -7.2015  -7.1871  -7.1471
    -7.1183  -7.0441  -7.0196  -7.0059  -6.7718  -6.7488  -6.6208  -6.5544
    -6.2466  -6.2028  -6.1915  -6.1723  -6.1587  -6.1384  -6.1215  -6.0972
    -6.0652  -6.0421  -5.9326  -5.8851  -5.8191  -5.7996  -5.7831  -5.7527
    -5.7321  -5.7208  -5.7032  -5.6825  -5.6298  -5.6026  -5.5712  -5.5247
    -5.5007  -5.4882  -5.4800  -5.4025  -5.3472  -5.2772  -5.2519  -5.2403
    -5.1956  -5.1091  -5.0881  -5.0616  -5.0553  -5.0122  -4.8257  -4.6689
    -4.3127  -4.2607  -4.2147  -4.1800  -4.1047  -4.0933  -4.0164  -3.9977
    -3.9846  -3.9495  -3.9329  -3.8939  -3.8811  -3.8410  -3.8164  -3.7698
    -3.7405  -3.7075  -3.6599  -3.6332  -3.6039  -3.5719  -3.5411  -3.5309
    -3.5082  -3.4301  -3.3142  -3.2564  -3.0844  -2.9790  -2.9508  -2.9097
    -2.5670  -2.5200  -2.4581  -2.4240  -2.3763  -2.3148  -2.2963  -2.2007
    -2.1669  -2.1459  -2.1257  -2.1003  -2.0900  -2.0468  -2.0127  -1.9625
    -1.9321  -1.8597  -1.8348  -1.7621  -1.7062  -1.6967  -1.6429  -1.6172
    -1.5885  -1.5351  -1.4859  -1.4405  -1.3647  -1.2575  -1.2158  -1.0841
    -0.9697  -0.8917  -0.8755  -0.8563  -0.7816  -0.7524  -0.7084  -0.6516
    -0.6475  -0.6342  -0.6273  -0.6186  -0.5837  -0.5769  -0.5596  -0.5262
    -0.5042  -0.4810  -0.4592  -0.3411   1.1067   1.1209   1.1914   1.2015
     1.3746   1.3911   1.4531   1.4569   2.5066   2.5197   2.5446   2.5507
     2.5747   2.6369   2.6512   2.6681   3.7257   3.8039   3.8562   3.8804
     3.9430   3.9875   4.0372   4.1023   4.1471   4.4097   4.6413   4.7526
     4.9026   5.0011   5.0225   5.0325   5.0863   5.1425   5.1761   5.2744
     5.2969   5.3809   5.5643   5.6325   5.7089   5.7366   5.8504   6.0167
     6.0985   6.2253   6.2988   6.5703   6.7335   6.7783   6.8288   6.8790
     7.0406   7.0606

     the spin up/dw Fermi energies are     0.9148    0.5579 ev

!    total energy              =   -1878.23782241 Ry
     Harris-Foulkes estimate   =   -1878.23782279 Ry
     estimated scf accuracy    <       0.00000079 Ry

     The total energy is the sum of the following terms:

     one-electron contribution =   -2660.84372430 Ry
     hartree contribution      =    1496.47972308 Ry
     xc contribution           =    -548.83067953 Ry
     ewald contribution        =    -167.40740117 Ry
     Dispersion Correction     =      -0.49293847 Ry
     smearing contrib. (-TS)   =       2.85719797 Ry

     total magnetization       =     8.00 Bohr mag/cell
     absolute magnetization    =     8.26 Bohr mag/cell

     convergence has been achieved in  23 iterations

     Forces acting on atoms (cartesian axes, Ry/au):

     atom    1 type  1   force =     0.01150835   -0.00706912    0.01613837
     atom    2 type  1   force =     0.01126197    0.00423157    0.01339606
     atom    3 type  1   force =    -0.00757126    0.03058123   -0.04003799
     atom    4 type  1   force =    -0.00921916   -0.02866724   -0.03766735
     atom    5 type  1   force =     0.08275105   -0.00649829    0.05650912
     atom    6 type  1   force =     0.08512485    0.00373426    0.05396370
     atom    7 type  1   force =     0.08271955    0.01356899   -0.03888073
     atom    8 type  1   force =    -0.01201644   -0.00719670    0.01613440
     atom    9 type  1   force =    -0.00610245    0.02390474    0.03354033
     atom   10 type  1   force =     0.00515903    0.00601179   -0.00661844
     atom   11 type  1   force =    -0.00293221    0.00671024   -0.00683887
     atom   12 type  1   force =    -0.00151569   -0.00460842   -0.00733429
     atom   13 type  1   force =    -0.02973218   -0.02996277    0.01584930
     atom   14 type  1   force =    -0.02837818    0.03016891    0.01706794
     atom   15 type  1   force =    -0.01054068    0.01374348   -0.00335372
     atom   16 type  1   force =     0.02771980   -0.04954257    0.01206750
     atom   17 type  1   force =     0.01934772    0.00605414   -0.01056975
     atom   18 type  1   force =    -0.08762104   -0.00132118    0.05153861
     atom   19 type  1   force =    -0.03437865   -0.03139107   -0.00993377
     atom   20 type  1   force =     0.00955139    0.03080051   -0.03946098
     atom   21 type  1   force =     0.01342331    0.00074235    0.01630626
     atom   22 type  1   force =     0.00360869   -0.00082146    0.00413774
     atom   23 type  1   force =    -0.00352415   -0.00010312    0.00487205
     atom   24 type  1   force =    -0.01432306    0.00059699    0.01389990
     atom   25 type  1   force =    -0.08338809   -0.00925267   -0.04231522
     atom   26 type  1   force =     0.01242404    0.00537044    0.01460769
     atom   27 type  1   force =     0.03539353    0.03059421   -0.00986872
     atom   28 type  1   force =    -0.00916443   -0.03006387   -0.03877809
     atom   29 type  1   force =    -0.01995234   -0.00960537   -0.00671181
     atom   30 type  1   force =     0.09379935   -0.00011026    0.05145846
     atom   31 type  1   force =    -0.01085612    0.00629930    0.01599120
     atom   32 type  1   force =     0.08947112   -0.00640676   -0.05164690
     atom   33 type  1   force =     0.00222622   -0.00692958   -0.00635066
     atom   34 type  1   force =    -0.00674879   -0.02713617    0.03566591
     atom   35 type  1   force =     0.00610764   -0.02592111    0.03432208
     atom   36 type  1   force =    -0.00439809   -0.00472939   -0.00812943
     atom   37 type  1   force =     0.01182980    0.00332959    0.00308546
     atom   38 type  1   force =    -0.02867798    0.05500563    0.01187654
     atom   39 type  1   force =     0.02799505    0.02972165    0.01395942
     atom   40 type  1   force =    -0.01251202    0.00461750    0.00164987
     atom   41 type  1   force =    -0.07913161    0.00544514    0.05250495
     atom   42 type  1   force =     0.02078613   -0.00900269   -0.00754991
     atom   43 type  1   force =     0.00877366   -0.03015027   -0.03788844
     atom   44 type  1   force =    -0.03603711    0.03102698   -0.00874705
     atom   45 type  1   force =     0.00499120    0.00129388    0.00776753
     atom   46 type  1   force =     0.02049943    0.00132820    0.01878406
     atom   47 type  1   force =    -0.00076850   -0.00108839    0.00324047
     atom   48 type  1   force =     0.00790099    0.00197911   -0.00411972
     atom   49 type  2   force =     0.00089057    0.00297907   -0.00065400
     atom   50 type  2   force =     0.00096986   -0.00282660    0.00064313
     atom   51 type  2   force =    -0.00103872    0.00276021   -0.00354201
     atom   52 type  2   force =     0.00354621   -0.00055146   -0.00352821
     atom   53 type  2   force =     0.00294621    0.00038436   -0.00362392
     atom   54 type  2   force =     0.00019631    0.00010225    0.00114261
     atom   55 type  2   force =     0.00208415   -0.00071997    0.00000452
     atom   56 type  2   force =     0.00355561    0.00184647    0.00199779
     atom   57 type  2   force =     0.00321788   -0.00194580    0.00106914
     atom   58 type  2   force =     0.00540109    0.00012591   -0.00904539
     atom   59 type  2   force =    -0.00096578    0.00153984   -0.00784128
     atom   60 type  2   force =     0.00265709   -0.00289953    0.00034848
     atom   61 type  2   force =    -0.00290446   -0.00308848   -0.00109058
     atom   62 type  2   force =    -0.00036428    0.00328423   -0.00109611
     atom   63 type  2   force =    -0.00097689   -0.00005030    0.00230746
     atom   64 type  2   force =    -0.00066472   -0.00034079    0.00135446
     atom   65 type  2   force =    -0.00276537    0.00100141   -0.00457442
     atom   66 type  2   force =     0.00218784   -0.00070168    0.00055813
     atom   67 type  2   force =    -0.00234499   -0.00001380   -0.00051354
     atom   68 type  2   force =    -0.00070226    0.00037056   -0.01190174
     atom   69 type  2   force =    -0.00362050   -0.00165193    0.00202644
     atom   70 type  2   force =     0.00167560    0.00016256   -0.00062429
     atom   71 type  2   force =     0.00194920   -0.00151883   -0.00353635
     atom   72 type  2   force =    -0.00008387    0.00348273   -0.00480537
     atom   73 type  2   force =    -0.02831878   -0.04650889    0.02911054
     atom   74 type  2   force =    -0.02796261    0.04635334    0.02680322
     atom   75 type  2   force =     0.00496575    0.02699639    0.03635035
     atom   76 type  2   force =     0.03335000   -0.04260403    0.02698902
     atom   77 type  2   force =    -0.00764955   -0.02570501    0.03845841
     atom   78 type  2   force =    -0.03265440    0.04474769    0.02810616
     atom   79 type  2   force =     0.02697954    0.04410862    0.02498396
     atom   80 type  2   force =     0.00525002   -0.02558025    0.03708646
     atom   81 type  3   force =     0.01239702   -0.00064845    0.00483943
     atom   82 type  3   force =     0.01185199    0.00110534    0.00506989
     atom   83 type  3   force =     0.01007904   -0.00098995   -0.01330230
     atom   84 type  3   force =    -0.01244641    0.00289323    0.00028490
     atom   85 type  3   force =    -0.01169053   -0.00045998   -0.00917897
     atom   86 type  3   force =     0.01186280   -0.00358739    0.00144871
     atom   87 type  3   force =    -0.01407701    0.00076816    0.00286665
     atom   88 type  3   force =     0.01113566   -0.00157008   -0.00957036
     atom   89 type  4   force =     0.00628505    0.00012831    0.00539367
     atom   90 type  4   force =     0.00398431    0.00365962    0.00646622
     atom   91 type  4   force =     0.01422600   -0.00428283    0.00652852
     atom   92 type  4   force =     0.00167669    0.00106046    0.00593253
     atom   93 type  5   force =     0.00053894   -0.00081136   -0.01100223
     atom   94 type  5   force =     0.01495678   -0.00625750   -0.01278528
     atom   95 type  5   force =    -0.01383577   -0.00744417   -0.01434694
     atom   96 type  5   force =    -0.00308310    0.00240736   -0.00088590
     atom   97 type  5   force =    -0.00113154   -0.00333986   -0.00980387
     atom   98 type  5   force =     0.00339161    0.00051293   -0.00803607
     atom   99 type  5   force =     0.00031299   -0.00341936    0.00201883
     atom  100 type  5   force =    -0.00152500   -0.00431284   -0.00898644
     atom  101 type  5   force =     0.00360728    0.00191524   -0.00042207
     atom  102 type  5   force =    -0.00797225    0.00498038    0.00158105
     atom  103 type  5   force =    -0.00084004   -0.00045642   -0.01255919
     atom  104 type  5   force =    -0.01582779    0.00756681   -0.01669226
     atom  105 type  5   force =    -0.00204184    0.00263574    0.00192845
     atom  106 type  5   force =    -0.00661795   -0.00128845    0.00232931
     atom  107 type  5   force =    -0.00432142    0.00044315   -0.00958115
     atom  108 type  5   force =    -0.00801177   -0.00186928   -0.00836451
     atom  109 type  5   force =    -0.04740118    0.03781482   -0.07222136
     atom  110 type  5   force =    -0.05087856   -0.03763348   -0.06855796
     atom  111 type  5   force =    -0.07838448   -0.01754222    0.02809263
     atom  112 type  5   force =     0.04582752    0.03350874   -0.07832941
     atom  113 type  5   force =     0.08183083    0.00777268    0.03570214
     atom  114 type  5   force =    -0.05424330   -0.03422752   -0.08090867
     atom  115 type  5   force =     0.04282727   -0.03561572   -0.06501223
     atom  116 type  5   force =    -0.08615118    0.01376322    0.02956809

     Total force =     0.471740     Total SCF correction =     0.001845

     BFGS Geometry Optimization

     number of scf cycles    =   1
     number of bfgs steps    =   0

     energy   new            =   -1878.2378224124 Ry

     new trust radius        =       0.1069873939 bohr
     new conv_thr            =       0.0000010000 Ry


ATOMIC_POSITIONS (crystal)
C             0.2887141060        0.9697512938        0.5228152077
C             0.0388681096        0.0312848053        0.0229979646
C             0.3902760906        0.0130622122        0.5444298417
C             0.1398185813        0.9865326636        0.0442059413
C             0.4554695984        0.9699274145        0.6532815048
C             0.2061726602        0.0285107913        0.1526724029
C             0.2116448505        0.5302773586        0.5243814461
C             0.4580516456        0.4711049027        0.0287350032
C             0.2449102129        0.6143410967        0.6081624961
C             0.4970311016        0.3889310288        0.1082761168
C             0.2493455123        0.8894895419        0.6028507639
C             0.0009979884        0.1120372707        0.1038692469
C             0.4067337328        0.8881169209        0.7283683187
C             0.1587501698        0.1108217894        0.2286910849
C             0.0884128253        0.6095637319        0.7271792664
C             0.3420742808        0.3895395750        0.2300155374
C             0.0477337954        0.5253348183        0.6507676047
C             0.2939986065        0.4746551735        0.1554084986
C             0.1066999483        0.4829435680        0.5496043608
C             0.3581991800        0.5169574780        0.0486055602
C             0.4338932952        0.0993503679        0.4674608547
C             0.1816735811        0.8996852893        0.9658851147
C             0.0672334417        0.3944696425        0.4709269349
C             0.3154499458        0.6041972260        0.9698229150
C             0.7846437501        0.9696590276        0.5198045526
C             0.5389184186        0.0313329282        0.0230603697
C             0.8921224345        0.0130627605        0.5459837109
C             0.6398198560        0.9864736489        0.0441487329
C             0.9510644209        0.9697961242        0.6500253079
C             0.7065373750        0.0283483412        0.1525433701
C             0.7077376106        0.5299701773        0.5272076274
C             0.9622835784        0.4711382820        0.0252439242
C             0.7452252502        0.6130381900        0.6061079088
C             0.9965668553        0.3875303589        0.1104539746
C             0.7497666182        0.8881107016        0.6049707600
C             0.5008752735        0.1120321591        0.1038282932
C             0.9084804727        0.8895236921        0.7277109168
C             0.6587316175        0.1118712671        0.2284237015
C             0.5900597016        0.6102388906        0.7280709806
C             0.8403620976        0.3918281129        0.2294789768
C             0.5436257445        0.5253090848        0.6540162698
C             0.7985304925        0.4743305905        0.1523651418
C             0.6084997441        0.4829959982        0.5481645541
C             0.8562988827        0.5169670474        0.0501874826
C             0.9335284846        0.0993736728        0.4670210670
C             0.6824020455        0.8997761232        0.9666394740
C             0.5673475183        0.3944280102        0.4708429006
C             0.8163734703        0.6042556276        0.9688948136
H             0.2371610716        0.9997008808        0.4430793156
H             0.4865796427        0.0025725620        0.9435321244
H             0.0320157261        0.9989216330        0.6733375687
H             0.3227877516        0.6504826980        0.5924532794
H             0.0750892725        0.3528672411        0.0948413500
H             0.1701633780        0.8551273205        0.5886188502
H             0.4224101955        0.1477015778        0.0898862329
H             0.4535223292        0.8552510228        0.8088638965
H             0.2063761673        0.1430207801        0.3088520664
H             0.0439490697        0.6429493204        0.8061421166
H             0.2963297825        0.3575910661        0.3086471343
H             0.9866507620        0.0025694802        0.9435169487
H             0.7585760751        0.5007644961        0.4492258297
H             0.5086245581        0.5005357752        0.9504915449
H             0.8226018256        0.6505038744        0.5927538460
H             0.5749411418        0.3528366001        0.0950977613
H             0.6700326947        0.8551653147        0.5883243941
H             0.9224151021        0.1477023506        0.0899147467
H             0.9532702899        0.8551724169        0.8087345499
H             0.7061991274        0.1431186580        0.3081840002
H             0.5435776972        0.6428741977        0.8067123717
H             0.7964483181        0.3575328689        0.3090188459
H             0.9687511658        0.4931668216        0.6733198599
H             0.7189439465        0.5053481631        0.1750164993
H             0.5936059716        0.9761587633        0.7503223397
H             0.3445448803        0.0204016640        0.2487105013
H             0.3386652003        0.5264327345        0.4128712263
H             0.1588275109        0.4840717633        0.2500270705
H             0.6551663570        0.9770108329        0.4058008023
H             0.8443475677        0.0203348170        0.2487776093
H             0.4074530640        0.5147788130        0.7474128002
H             0.0893759192        0.4761011046        0.9147551397
N             0.3089661187        0.8512255997        0.7050772548
N             0.0612352720        0.1489037064        0.2063131248
N             0.1869560276        0.6502681696        0.7051528643
N             0.4382835946        0.3510502536        0.2080556737
N             0.8079337088        0.8512335637        0.7043552370
N             0.5612323350        0.1487054145        0.2061266157
N             0.6859500153        0.6503424585        0.7059856471
N             0.9392722369        0.3508616561        0.2075480782
Ni            0.2472730090        0.7514914216        0.8366038014
Ni            0.5001466580        0.2481536375        0.3395110430
Ni            0.7476100958        0.7513050289        0.8366622519
Ni            1.0000485102        0.2480438099        0.3394835550
O             0.1227904921        0.3476547160        0.3823063299
O             0.3718289152        0.6507125887        0.8806334934
O             0.3770310879        0.1471924462        0.3764390601
O             0.1249667077        0.8524537234        0.8762153718
O             0.4730119288        0.3560188739        0.4824890514
O             0.2212729841        0.6414366740        0.9794631018
O             0.0288551367        0.1350135145        0.4811819797
O             0.2766130458        0.8625757606        0.9789361529
O             0.6229312472        0.3477699286        0.3828512613
O             0.8708721346        0.6511874461        0.8813734322
O             0.8775826809        0.1474877140        0.3765311382
O             0.6244125968        0.8526717363        0.8754012646
O             0.9729844068        0.3562713736        0.4830933249
O             0.7208591433        0.6413605564        0.9799969712
O             0.5286481571        0.1351767253        0.4805845226
O             0.7763391397        0.8626790134        0.9789681856
O             0.5495895113        0.0078168679        0.6735982356
O             0.2997097991        0.9894737943        0.1724629193
O             0.2658784763        0.4938297521        0.4298599123
O             0.2015637787        0.5148869141        0.1743906399
O             0.7298461552        0.0065034353        0.4237378403
O             0.7995558425        0.9896177136        0.1718267952
O             0.4510413054        0.4838690551        0.6731685422
O             0.0157492099        0.5075495660        0.9312749056



     Writing output data file ./QE_relaxation_results/pbesol_relax/NiPyC2_relax_sc211_meta_functionalized_OH_pbesol_relax.save/
     NEW-OLD atomic charge density approx. for the potential

     Check: negative core charge=   -0.000145

     total cpu time spent up to now is      725.0 secs

     Self-consistent Calculation

     iteration #  1     ecut=   100.00 Ry     beta= 0.70
     Davidson diagonalization with overlap
     ethr =  1.00E-06,  avg # of iterations = 12.0

     total cpu time spent up to now is      865.1 secs

     total energy              =   -1878.24467088 Ry
     Harris-Foulkes estimate   =   -1878.29433895 Ry
     estimated scf accuracy    <       0.16194135 Ry

     total magnetization       =     8.00 Bohr mag/cell
     absolute magnetization    =     8.25 Bohr mag/cell

     iteration #  2     ecut=   100.00 Ry     beta= 0.70
     Davidson diagonalization with overlap
     ethr =  3.61E-05,  avg # of iterations =  2.0

     total cpu time spent up to now is      892.3 secs

     total energy              =   -1878.23690215 Ry
     Harris-Foulkes estimate   =   -1878.27093682 Ry
     estimated scf accuracy    <       0.17015512 Ry

     total magnetization       =     8.00 Bohr mag/cell
     absolute magnetization    =     8.26 Bohr mag/cell

     iteration #  3     ecut=   100.00 Ry     beta= 0.70
     Davidson diagonalization with overlap
     ethr =  3.61E-05,  avg # of iterations =  1.5

     total cpu time spent up to now is      919.6 secs

     total energy              =   -1878.24939586 Ry
     Harris-Foulkes estimate   =   -1878.26770733 Ry
     estimated scf accuracy    <       0.15192403 Ry

     total magnetization       =     8.00 Bohr mag/cell
     absolute magnetization    =     8.24 Bohr mag/cell

     iteration #  4     ecut=   100.00 Ry     beta= 0.70
     Davidson diagonalization with overlap
     ethr =  3.39E-05,  avg # of iterations =  1.0

     total cpu time spent up to now is      946.3 secs

     total energy              =   -1878.25497819 Ry
     Harris-Foulkes estimate   =   -1878.25791013 Ry
     estimated scf accuracy    <       0.02445228 Ry

     total magnetization       =     8.00 Bohr mag/cell
     absolute magnetization    =     8.25 Bohr mag/cell

     iteration #  5     ecut=   100.00 Ry     beta= 0.70
     Davidson diagonalization with overlap
     ethr =  5.46E-06,  avg # of iterations =  5.5

     total cpu time spent up to now is      976.2 secs

     total energy              =   -1878.25542754 Ry
     Harris-Foulkes estimate   =   -1878.25744463 Ry
     estimated scf accuracy    <       0.01894653 Ry

     total magnetization       =     8.00 Bohr mag/cell
     absolute magnetization    =     8.25 Bohr mag/cell

     iteration #  6     ecut=   100.00 Ry     beta= 0.70
     Davidson diagonalization with overlap
     ethr =  4.23E-06,  avg # of iterations =  7.0

     total cpu time spent up to now is     1007.0 secs

     total energy              =   -1878.25589981 Ry
     Harris-Foulkes estimate   =   -1878.25634286 Ry
     estimated scf accuracy    <       0.00218556 Ry

     total magnetization       =     8.00 Bohr mag/cell
     absolute magnetization    =     8.25 Bohr mag/cell

     iteration #  7     ecut=   100.00 Ry     beta= 0.70
     Davidson diagonalization with overlap
     ethr =  4.88E-07,  avg # of iterations =  7.0

     total cpu time spent up to now is     1038.7 secs

     total energy              =   -1878.25588918 Ry
     Harris-Foulkes estimate   =   -1878.25603819 Ry
     estimated scf accuracy    <       0.00069808 Ry

     total magnetization       =     8.00 Bohr mag/cell
     absolute magnetization    =     8.25 Bohr mag/cell

     iteration #  8     ecut=   100.00 Ry     beta= 0.70
     Davidson diagonalization with overlap
     ethr =  1.56E-07,  avg # of iterations =  3.5

     total cpu time spent up to now is     1068.4 secs

     total energy              =   -1878.25585730 Ry
     Harris-Foulkes estimate   =   -1878.25606032 Ry
     estimated scf accuracy    <       0.00286430 Ry

     total magnetization       =     8.00 Bohr mag/cell
     absolute magnetization    =     8.25 Bohr mag/cell

     iteration #  9     ecut=   100.00 Ry     beta= 0.70
     Davidson diagonalization with overlap
     ethr =  1.56E-07,  avg # of iterations =  1.5

     total cpu time spent up to now is     1095.5 secs

     total energy              =   -1878.25595669 Ry
     Harris-Foulkes estimate   =   -1878.25596427 Ry
     estimated scf accuracy    <       0.00016852 Ry

     total magnetization       =     8.00 Bohr mag/cell
     absolute magnetization    =     8.24 Bohr mag/cell

     iteration # 10     ecut=   100.00 Ry     beta= 0.70
     Davidson diagonalization with overlap
     ethr =  3.76E-08,  avg # of iterations =  4.0

     total cpu time spent up to now is     1125.0 secs

     total energy              =   -1878.25596909 Ry
     Harris-Foulkes estimate   =   -1878.25596579 Ry
     estimated scf accuracy    <       0.00006471 Ry

     total magnetization       =     8.00 Bohr mag/cell
     absolute magnetization    =     8.24 Bohr mag/cell

     iteration # 11     ecut=   100.00 Ry     beta= 0.70
     Davidson diagonalization with overlap
     ethr =  1.44E-08,  avg # of iterations =  3.0

     total cpu time spent up to now is     1153.6 secs

     total energy              =   -1878.25597226 Ry
     Harris-Foulkes estimate   =   -1878.25597288 Ry
     estimated scf accuracy    <       0.00003316 Ry

     total magnetization       =     8.00 Bohr mag/cell
     absolute magnetization    =     8.24 Bohr mag/cell

     iteration # 12     ecut=   100.00 Ry     beta= 0.70
     Davidson diagonalization with overlap
     ethr =  7.40E-09,  avg # of iterations =  2.0

     total cpu time spent up to now is     1181.1 secs

     total energy              =   -1878.25597359 Ry
     Harris-Foulkes estimate   =   -1878.25597707 Ry
     estimated scf accuracy    <       0.00007670 Ry

     total magnetization       =     8.00 Bohr mag/cell
     absolute magnetization    =     8.24 Bohr mag/cell

     iteration # 13     ecut=   100.00 Ry     beta= 0.70
     Davidson diagonalization with overlap
     ethr =  7.40E-09,  avg # of iterations =  3.0

     total cpu time spent up to now is     1209.2 secs

     total energy              =   -1878.25597673 Ry
     Harris-Foulkes estimate   =   -1878.25597671 Ry
     estimated scf accuracy    <       0.00000875 Ry

     total magnetization       =     8.00 Bohr mag/cell
     absolute magnetization    =     8.24 Bohr mag/cell

     iteration # 14     ecut=   100.00 Ry     beta= 0.70
     Davidson diagonalization with overlap
     ethr =  1.95E-09,  avg # of iterations =  3.0

     total cpu time spent up to now is     1238.1 secs

     total energy              =   -1878.25597720 Ry
     Harris-Foulkes estimate   =   -1878.25597739 Ry
     estimated scf accuracy    <       0.00000524 Ry

     total magnetization       =     8.00 Bohr mag/cell
     absolute magnetization    =     8.24 Bohr mag/cell

     iteration # 15     ecut=   100.00 Ry     beta= 0.70
     Davidson diagonalization with overlap
     ethr =  1.17E-09,  avg # of iterations =  2.0

     total cpu time spent up to now is     1265.4 secs

     total energy              =   -1878.25597743 Ry
     Harris-Foulkes estimate   =   -1878.25597758 Ry
     estimated scf accuracy    <       0.00000352 Ry

     total magnetization       =     8.00 Bohr mag/cell
     absolute magnetization    =     8.24 Bohr mag/cell

     iteration # 16     ecut=   100.00 Ry     beta= 0.70
     Davidson diagonalization with overlap
     ethr =  7.86E-10,  avg # of iterations =  3.0

     total cpu time spent up to now is     1293.5 secs

     total energy              =   -1878.25597742 Ry
     Harris-Foulkes estimate   =   -1878.25597769 Ry
     estimated scf accuracy    <       0.00000392 Ry

     total magnetization       =     8.00 Bohr mag/cell
     absolute magnetization    =     8.24 Bohr mag/cell

     iteration # 17     ecut=   100.00 Ry     beta= 0.70
     Davidson diagonalization with overlap
     ethr =  7.86E-10,  avg # of iterations =  1.5

     total cpu time spent up to now is     1320.5 secs

     total energy              =   -1878.25597747 Ry
     Harris-Foulkes estimate   =   -1878.25597768 Ry
     estimated scf accuracy    <       0.00000245 Ry

     total magnetization       =     8.00 Bohr mag/cell
     absolute magnetization    =     8.24 Bohr mag/cell

     iteration # 18     ecut=   100.00 Ry     beta= 0.70
     Davidson diagonalization with overlap
     ethr =  5.46E-10,  avg # of iterations =  3.0
 
     Magnetic moment per site:
     atom:    1    charge:    0.8458    magn:    0.0034    constr:    0.0000
     atom:    2    charge:    0.8463    magn:    0.0035    constr:    0.0000
     atom:    3    charge:    0.8424    magn:    0.0071    constr:    0.0000
     atom:    4    charge:    0.8413    magn:    0.0077    constr:    0.0000
     atom:    5    charge:    0.8250    magn:    0.0036    constr:    0.0000
     atom:    6    charge:    0.8265    magn:    0.0034    constr:    0.0000
     atom:    7    charge:    0.8302    magn:    0.0039    constr:    0.0000
     atom:    8    charge:    0.8462    magn:    0.0034    constr:    0.0000
     atom:    9    charge:    0.8486    magn:    0.0079    constr:    0.0000
     atom:   10    charge:    0.8374    magn:    0.0072    constr:    0.0000
     atom:   11    charge:    0.8373    magn:    0.0071    constr:    0.0000
     atom:   12    charge:    0.8376    magn:    0.0072    constr:    0.0000
     atom:   13    charge:    0.8478    magn:    0.0084    constr:    0.0000
     atom:   14    charge:    0.8467    magn:    0.0087    constr:    0.0000
     atom:   15    charge:    0.8410    magn:    0.0070    constr:    0.0000
     atom:   16    charge:    0.8480    magn:    0.0081    constr:    0.0000
     atom:   17    charge:    0.8455    magn:    0.0039    constr:    0.0000
     atom:   18    charge:    0.8245    magn:    0.0038    constr:    0.0000
     atom:   19    charge:    0.8449    magn:    0.0066    constr:    0.0000
     atom:   20    charge:    0.8420    magn:    0.0070    constr:    0.0000
     atom:   21    charge:    0.8243    magn:   -0.0012    constr:    0.0000
     atom:   22    charge:    0.8262    magn:   -0.0022    constr:    0.0000
     atom:   23    charge:    0.8247    magn:   -0.0013    constr:    0.0000
     atom:   24    charge:    0.8254    magn:   -0.0014    constr:    0.0000
     atom:   25    charge:    0.8293    magn:    0.0040    constr:    0.0000
     atom:   26    charge:    0.8461    magn:    0.0034    constr:    0.0000
     atom:   27    charge:    0.8425    magn:    0.0068    constr:    0.0000
     atom:   28    charge:    0.8421    magn:    0.0073    constr:    0.0000
     atom:   29    charge:    0.8456    magn:    0.0038    constr:    0.0000
     atom:   30    charge:    0.8259    magn:    0.0037    constr:    0.0000
     atom:   31    charge:    0.8473    magn:    0.0035    constr:    0.0000
     atom:   32    charge:    0.8279    magn:    0.0036    constr:    0.0000
     atom:   33    charge:    0.8377    magn:    0.0071    constr:    0.0000
     atom:   34    charge:    0.8460    magn:    0.0083    constr:    0.0000
     atom:   35    charge:    0.8476    magn:    0.0079    constr:    0.0000
     atom:   36    charge:    0.8382    magn:    0.0074    constr:    0.0000
     atom:   37    charge:    0.8394    magn:    0.0071    constr:    0.0000
     atom:   38    charge:    0.8478    magn:    0.0087    constr:    0.0000
     atom:   39    charge:    0.8476    magn:    0.0083    constr:    0.0000
     atom:   40    charge:    0.8385    magn:    0.0072    constr:    0.0000
     atom:   41    charge:    0.8254    magn:    0.0037    constr:    0.0000
     atom:   42    charge:    0.8460    magn:    0.0036    constr:    0.0000
     atom:   43    charge:    0.8439    magn:    0.0074    constr:    0.0000
     atom:   44    charge:    0.8409    magn:    0.0075    constr:    0.0000
     atom:   45    charge:    0.8242    magn:   -0.0014    constr:    0.0000
     atom:   46    charge:    0.8246    magn:   -0.0014    constr:    0.0000
     atom:   47    charge:    0.8260    magn:   -0.0018    constr:    0.0000
     atom:   48    charge:    0.8264    magn:   -0.0022    constr:    0.0000
     atom:   49    charge:    0.3790    magn:   -0.0010    constr:    0.0000
     atom:   50    charge:    0.3786    magn:   -0.0010    constr:    0.0000
     atom:   51    charge:    0.3769    magn:   -0.0010    constr:    0.0000
     atom:   52    charge:    0.3849    magn:   -0.0007    constr:    0.0000
     atom:   53    charge:    0.3849    magn:   -0.0007    constr:    0.0000
     atom:   54    charge:    0.3868    magn:   -0.0013    constr:    0.0000
     atom:   55    charge:    0.3879    magn:   -0.0012    constr:    0.0000
     atom:   56    charge:    0.3831    magn:   -0.0005    constr:    0.0000
     atom:   57    charge:    0.3830    magn:   -0.0005    constr:    0.0000
     atom:   58    charge:    0.3853    magn:   -0.0009    constr:    0.0000
     atom:   59    charge:    0.3836    magn:   -0.0004    constr:    0.0000
     atom:   60    charge:    0.3784    magn:   -0.0010    constr:    0.0000
     atom:   61    charge:    0.3776    magn:   -0.0010    constr:    0.0000
     atom:   62    charge:    0.3788    magn:   -0.0010    constr:    0.0000
     atom:   63    charge:    0.3868    magn:   -0.0012    constr:    0.0000
     atom:   64    charge:    0.3871    magn:   -0.0012    constr:    0.0000
     atom:   65    charge:    0.3848    magn:   -0.0007    constr:    0.0000
     atom:   66    charge:    0.3875    magn:   -0.0012    constr:    0.0000
     atom:   67    charge:    0.3856    magn:   -0.0011    constr:    0.0000
     atom:   68    charge:    0.3843    magn:   -0.0003    constr:    0.0000
     atom:   69    charge:    0.3824    magn:   -0.0006    constr:    0.0000
     atom:   70    charge:    0.3848    magn:   -0.0011    constr:    0.0000
     atom:   71    charge:    0.3771    magn:   -0.0010    constr:    0.0000
     atom:   72    charge:    0.3773    magn:   -0.0010    constr:    0.0000
     atom:   73    charge:    0.3422    magn:   -0.0000    constr:    0.0000
     atom:   74    charge:    0.3431    magn:    0.0000    constr:    0.0000
     atom:   75    charge:    0.3509    magn:    0.0000    constr:    0.0000
     atom:   76    charge:    0.3414    magn:    0.0000    constr:    0.0000
     atom:   77    charge:    0.3492    magn:    0.0001    constr:    0.0000
     atom:   78    charge:    0.3379    magn:    0.0001    constr:    0.0000
     atom:   79    charge:    0.3474    magn:    0.0000    constr:    0.0000
     atom:   80    charge:    0.3480    magn:    0.0001    constr:    0.0000
     atom:   81    charge:    2.4531    magn:    0.0127    constr:    0.0000
     atom:   82    charge:    2.4531    magn:    0.0125    constr:    0.0000
     atom:   83    charge:    2.4586    magn:    0.0131    constr:    0.0000
     atom:   84    charge:    2.4552    magn:    0.0128    constr:    0.0000
     atom:   85    charge:    2.4536    magn:    0.0133    constr:    0.0000
     atom:   86    charge:    2.4560    magn:    0.0123    constr:    0.0000
     atom:   87    charge:    2.4559    magn:    0.0127    constr:    0.0000
     atom:   88    charge:    2.4535    magn:    0.0131    constr:    0.0000
     atom:   89    charge:    7.4373    magn:    1.1514    constr:    0.0000
     atom:   90    charge:    7.4371    magn:    1.1514    constr:    0.0000
     atom:   91    charge:    7.4369    magn:    1.1502    constr:    0.0000
     atom:   92    charge:    7.4367    magn:    1.1479    constr:    0.0000
     atom:   93    charge:    1.9271    magn:    0.0350    constr:    0.0000
     atom:   94    charge:    1.9232    magn:    0.0363    constr:    0.0000
     atom:   95    charge:    1.9250    magn:    0.0347    constr:    0.0000
     atom:   96    charge:    1.9240    magn:    0.0413    constr:    0.0000
     atom:   97    charge:    1.9267    magn:    0.0394    constr:    0.0000
     atom:   98    charge:    1.9303    magn:    0.0369    constr:    0.0000
     atom:   99    charge:    1.9276    magn:    0.0383    constr:    0.0000
     atom:  100    charge:    1.9262    magn:    0.0416    constr:    0.0000
     atom:  101    charge:    1.9264    magn:    0.0393    constr:    0.0000
     atom:  102    charge:    1.9267    magn:    0.0401    constr:    0.0000
     atom:  103    charge:    1.9274    magn:    0.0346    constr:    0.0000
     atom:  104    charge:    1.9217    magn:    0.0357    constr:    0.0000
     atom:  105    charge:    1.9267    magn:    0.0380    constr:    0.0000
     atom:  106    charge:    1.9262    magn:    0.0423    constr:    0.0000
     atom:  107    charge:    1.9296    magn:    0.0363    constr:    0.0000
     atom:  108    charge:    1.9290    magn:    0.0371    constr:    0.0000
     atom:  109    charge:    1.9275    magn:    0.0098    constr:    0.0000
     atom:  110    charge:    1.9277    magn:    0.0102    constr:    0.0000
     atom:  111    charge:    1.9376    magn:    0.0079    constr:    0.0000
     atom:  112    charge:    1.9277    magn:    0.0094    constr:    0.0000
     atom:  113    charge:    1.9374    magn:    0.0081    constr:    0.0000
     atom:  114    charge:    1.9253    magn:    0.0102    constr:    0.0000
     atom:  115    charge:    1.9278    magn:    0.0093    constr:    0.0000
     atom:  116    charge:    1.9334    magn:    0.0089    constr:    0.0000

     total cpu time spent up to now is     1348.2 secs

     End of self-consistent calculation

 ------ SPIN UP ------------


          k = 0.0000 0.0000 0.0000 ( 91663 PWs)   bands (ev):

   -22.5153 -22.4753 -22.3643 -22.1319 -22.1188 -22.1130 -22.0902 -22.0779
   -21.8086 -21.7976 -21.7722 -21.7533 -21.6828 -21.6758 -21.6562 -21.6410
   -18.8386 -18.8222 -18.8134 -18.8082 -18.8055 -18.7835 -18.7807 -18.7670
   -18.7558 -18.7461 -18.7389 -18.7184 -18.6729 -18.6566 -18.6462 -18.6330
   -14.8649 -14.8345 -14.8182 -14.8047 -14.7923 -14.7760 -14.7575 -14.7254
   -13.6852 -13.6298 -13.5472 -13.5259 -13.5212 -13.4999 -13.4726 -13.4285
   -11.4752 -11.4046 -11.3759 -11.3416 -11.3310 -11.2903 -11.2789 -11.2526
   -11.1144 -11.0833 -11.0058 -10.9322 -10.9275 -10.8971 -10.8802 -10.7978
    -9.1956  -9.1648  -9.0935  -9.0417  -9.0007  -8.9317  -8.9151  -8.9027
    -8.8958  -8.7978  -8.7353  -8.6870  -8.6479  -8.6168  -8.5521  -8.4805
    -7.5603  -7.3553  -7.3250  -7.2782  -7.2320  -7.2028  -7.1864  -7.1684
    -7.1415  -7.0570  -6.9932  -6.9740  -6.7851  -6.7711  -6.6321  -6.5913
    -6.3161  -6.2961  -6.2780  -6.2346  -6.2175  -6.1968  -6.1725  -6.1595
    -6.1523  -6.0881  -6.0071  -5.9491  -5.9134  -5.8853  -5.8585  -5.8335
    -5.8203  -5.7954  -5.7646  -5.7453  -5.6954  -5.6788  -5.6534  -5.6166
    -5.5979  -5.4701  -5.4317  -5.4172  -5.3285  -5.3144  -5.2554  -5.2303
    -5.2184  -5.2052  -5.1504  -5.1224  -5.0835  -5.0625  -5.0335  -4.9063
    -4.5807  -4.4900  -4.4509  -4.4321  -4.3816  -4.3466  -4.3330  -4.2670
    -4.2564  -4.2396  -4.2165  -4.2017  -4.1915  -4.1527  -4.1277  -4.0781
    -4.0509  -3.9968  -3.9753  -3.9385  -3.8658  -3.8534  -3.7766  -3.6761
    -3.6218  -3.5878  -3.5292  -3.5151  -3.3710  -3.2601  -3.2043  -3.0737
    -2.8392  -2.7767  -2.7222  -2.6509  -2.6426  -2.5802  -2.5248  -2.4985
    -2.4854  -2.4374  -2.4235  -2.4134  -2.3855  -2.3594  -2.2761  -2.2422
    -2.1494  -2.1354  -2.0646  -1.9662  -1.9072  -1.8898  -1.8810  -1.7904
    -1.7671  -1.7305  -1.7183  -1.6705  -1.6154  -1.6125  -1.5827  -1.5461
    -1.5072  -1.4774  -1.4683  -1.4389  -1.4141  -1.3965  -1.3451  -1.3296
    -1.2596  -1.2368  -1.2023  -1.1339  -0.7454  -0.7011  -0.6660  -0.6212
    -0.6115  -0.5624  -0.5046  -0.3570   0.4070   0.4224   0.5149   0.5298
     0.7161   0.7334   0.8133   0.8213   2.4023   2.4242   2.4423   2.4608
     2.4719   2.5398   2.5645   2.5823   3.6809   3.7463   3.8425   3.8999
     3.9718   3.9860   4.0415   4.1141   4.1787   4.2113   4.4692   4.6340
     4.7607   5.0144   5.0458   5.0524   5.0634   5.1591   5.1833   5.2822
     5.3094   5.3261   5.4746   5.5318   5.5916   5.6884   5.7738   5.8513
     6.0280   6.1367   6.2300   6.4203   6.5486   6.6500   6.7184   6.8295
     6.9674   7.0546

 ------ SPIN DOWN ----------


          k = 0.0000 0.0000 0.0000 ( 91663 PWs)   bands (ev):

   -22.4883 -22.4489 -22.3356 -22.0898 -22.0813 -22.0760 -22.0537 -22.0406
   -21.7050 -21.6992 -21.6709 -21.6572 -21.5794 -21.5714 -21.5482 -21.5362
   -18.7599 -18.7464 -18.7238 -18.7157 -18.7021 -18.6822 -18.6755 -18.6657
   -18.6598 -18.6449 -18.6257 -18.6193 -18.6057 -18.6037 -18.5731 -18.5637
   -14.8250 -14.7943 -14.7782 -14.7653 -14.7520 -14.7354 -14.7162 -14.6835
   -13.6422 -13.5861 -13.5030 -13.4819 -13.4771 -13.4556 -13.4284 -13.3832
   -11.4294 -11.3610 -11.3335 -11.3015 -11.2928 -11.2475 -11.2351 -11.2079
   -11.0849 -11.0511 -10.9743 -10.9054 -10.9022 -10.8702 -10.8549 -10.7714
    -9.1696  -9.1391  -9.0668  -9.0115  -8.9726  -8.9056  -8.8905  -8.8732
[...]
     estimated scf accuracy    <          1.0E-08 Ry

     The total energy is the sum of the following terms:

     one-electron contribution =   -2726.23491336 Ry
     hartree contribution      =    1528.09725021 Ry
     xc contribution           =    -549.13194841 Ry
     ewald contribution        =    -133.54211494 Ry
     Dispersion Correction     =      -0.50396143 Ry
     smearing contrib. (-TS)   =       2.81761351 Ry

     total magnetization       =     8.00 Bohr mag/cell
     absolute magnetization    =     8.26 Bohr mag/cell

     convergence has been achieved in  10 iterations

     Forces acting on atoms (cartesian axes, Ry/au):

     atom    1 type  1   force =     0.00035829    0.00005016   -0.00013734
     atom    2 type  1   force =    -0.00012369    0.00001907    0.00009583
     atom    3 type  1   force =     0.00003394   -0.00032897   -0.00004467
     atom    4 type  1   force =     0.00002020    0.00034708   -0.00034694
     atom    5 type  1   force =     0.00038948   -0.00012935    0.00009300
     atom    6 type  1   force =    -0.00000645    0.00029194    0.00002237
     atom    7 type  1   force =     0.00031716   -0.00010436   -0.00049203
     atom    8 type  1   force =     0.00016498   -0.00017412   -0.00031339
     atom    9 type  1   force =     0.00011928   -0.00027159    0.00026190
     atom   10 type  1   force =     0.00014895   -0.00021573    0.00022540
     atom   11 type  1   force =    -0.00022105   -0.00008183   -0.00032266
     atom   12 type  1   force =    -0.00021522    0.00030178    0.00027999
     atom   13 type  1   force =    -0.00003205    0.00010898    0.00046866
     atom   14 type  1   force =     0.00018194   -0.00017552    0.00016593
     atom   15 type  1   force =     0.00059924    0.00026279   -0.00028321
     atom   16 type  1   force =    -0.00002530    0.00005342   -0.00005251
     atom   17 type  1   force =     0.00062396   -0.00030541    0.00037925
     atom   18 type  1   force =     0.00015260    0.00039295   -0.00020892
     atom   19 type  1   force =    -0.00006015    0.00014491    0.00005484
     atom   20 type  1   force =     0.00018559   -0.00006847    0.00015907
     atom   21 type  1   force =     0.00014512   -0.00020929   -0.00003154
     atom   22 type  1   force =    -0.00033887    0.00037871   -0.00014379
     atom   23 type  1   force =     0.00002751    0.00054498   -0.00025823
     atom   24 type  1   force =    -0.00011160   -0.00026732    0.00009145
     atom   25 type  1   force =    -0.00041583    0.00010644    0.00011276
     atom   26 type  1   force =     0.00056078    0.00054582    0.00026207
     atom   27 type  1   force =     0.00014414   -0.00025694   -0.00005567
     atom   28 type  1   force =    -0.00053285   -0.00027956    0.00020397
     atom   29 type  1   force =    -0.00037853    0.00029976   -0.00013341
     atom   30 type  1   force =     0.00013550   -0.00005132    0.00029541
     atom   31 type  1   force =    -0.00024214    0.00005325    0.00031157
     atom   32 type  1   force =     0.00019607    0.00030283    0.00004647
     atom   33 type  1   force =    -0.00012575    0.00014289   -0.00024836
     atom   34 type  1   force =    -0.00015675    0.00022222    0.00010686
     atom   35 type  1   force =    -0.00005504    0.00020611   -0.00034434
     atom   36 type  1   force =     0.00013878   -0.00058034   -0.00005545
     atom   37 type  1   force =     0.00022163    0.00005115    0.00032304
     atom   38 type  1   force =    -0.00007095    0.00032248   -0.00028769
     atom   39 type  1   force =    -0.00002603   -0.00012391   -0.00023576
     atom   40 type  1   force =     0.00034239    0.00041372   -0.00031433
     atom   41 type  1   force =     0.00016476    0.00006370    0.00018983
     atom   42 type  1   force =     0.00012115   -0.00021643   -0.00010341
     atom   43 type  1   force =     0.00037215   -0.00015244   -0.00019685
     atom   44 type  1   force =     0.00031314   -0.00006097   -0.00032908
     atom   45 type  1   force =    -0.00039018   -0.00021416   -0.00033745
     atom   46 type  1   force =     0.00005409   -0.00012024    0.00005398
     atom   47 type  1   force =    -0.00020185    0.00005313   -0.00026891
     atom   48 type  1   force =     0.00000736   -0.00024695    0.00006084
     atom   49 type  2   force =     0.00036060   -0.00013776   -0.00039349
     atom   50 type  2   force =     0.00009209   -0.00025565    0.00004126
     atom   51 type  2   force =    -0.00045892   -0.00019744   -0.00018096
     atom   52 type  2   force =    -0.00030761    0.00011118   -0.00044964
     atom   53 type  2   force =    -0.00031634    0.00003155    0.00022396
     atom   54 type  2   force =     0.00017648   -0.00033893   -0.00013025
     atom   55 type  2   force =    -0.00001086   -0.00021382    0.00013546
     atom   56 type  2   force =     0.00001789   -0.00011321    0.00014823
     atom   57 type  2   force =     0.00032709   -0.00000606    0.00047351
     atom   58 type  2   force =    -0.00023854    0.00035356   -0.00001112
     atom   59 type  2   force =     0.00041321   -0.00021235    0.00010137
     atom   60 type  2   force =     0.00018201   -0.00019872    0.00022515
     atom   61 type  2   force =    -0.00034905    0.00008580   -0.00007291
     atom   62 type  2   force =     0.00007986    0.00004647   -0.00041348
     atom   63 type  2   force =     0.00000690    0.00010794    0.00026179
     atom   64 type  2   force =    -0.00020416    0.00003537   -0.00012019
     atom   65 type  2   force =    -0.00007725    0.00031054   -0.00035856
     atom   66 type  2   force =     0.00007496    0.00037618    0.00030533
     atom   67 type  2   force =    -0.00009032   -0.00059148   -0.00039200
     atom   68 type  2   force =     0.00003864    0.00013318    0.00022314
     atom   69 type  2   force =    -0.00028414   -0.00009390    0.00001383
     atom   70 type  2   force =     0.00020648    0.00024896   -0.00033591
     atom   71 type  2   force =     0.00010672    0.00025601   -0.00005257
     atom   72 type  2   force =     0.00016795   -0.00010513    0.00005110
     atom   73 type  2   force =     0.00009684   -0.00006974    0.00015056
     atom   74 type  2   force =    -0.00005311    0.00006183    0.00037219
     atom   75 type  2   force =    -0.00027167    0.00003551   -0.00017707
     atom   76 type  2   force =    -0.00030564    0.00055111    0.00026714
     atom   77 type  2   force =     0.00086614    0.00022950   -0.00015046
     atom   78 type  2   force =     0.00015134   -0.00012311    0.00028734
     atom   79 type  2   force =    -0.00023652    0.00022334    0.00001463
     atom   80 type  2   force =     0.00005365   -0.00005104    0.00024524
     atom   81 type  3   force =    -0.00029637    0.00026748   -0.00014914
     atom   82 type  3   force =     0.00035638   -0.00027616    0.00014397
     atom   83 type  3   force =     0.00015650   -0.00059379    0.00024842
     atom   84 type  3   force =    -0.00047116   -0.00014291   -0.00013448
     atom   85 type  3   force =    -0.00044687    0.00015985    0.00006500
     atom   86 type  3   force =     0.00013171    0.00014441    0.00014470
     atom   87 type  3   force =    -0.00007511   -0.00038085   -0.00007261
     atom   88 type  3   force =     0.00014651    0.00060470   -0.00018115
     atom   89 type  4   force =    -0.00016828    0.00030223   -0.00002388
     atom   90 type  4   force =     0.00045301    0.00030413    0.00001822
     atom   91 type  4   force =    -0.00035040   -0.00039653    0.00022734
     atom   92 type  4   force =    -0.00050695   -0.00007007    0.00050988
     atom   93 type  5   force =    -0.00006842    0.00049085   -0.00007345
     atom   94 type  5   force =    -0.00003967   -0.00011016    0.00012648
     atom   95 type  5   force =     0.00008781   -0.00053409   -0.00007549
     atom   96 type  5   force =    -0.00026362   -0.00009801    0.00048479
     atom   97 type  5   force =     0.00034896    0.00021035   -0.00011293
     atom   98 type  5   force =    -0.00010997   -0.00010631   -0.00005284
     atom   99 type  5   force =    -0.00014768   -0.00000650    0.00000012
     atom  100 type  5   force =    -0.00001784   -0.00004878   -0.00074146
     atom  101 type  5   force =    -0.00002968   -0.00009100    0.00012602
     atom  102 type  5   force =     0.00015602   -0.00046717    0.00037151
     atom  103 type  5   force =    -0.00004038   -0.00015261    0.00016194
     atom  104 type  5   force =     0.00006777   -0.00010506   -0.00009115
     atom  105 type  5   force =    -0.00047472   -0.00010334   -0.00034035
     atom  106 type  5   force =     0.00018544   -0.00011498    0.00037138
     atom  107 type  5   force =    -0.00020824    0.00001352   -0.00016435
     atom  108 type  5   force =    -0.00011975    0.00021791   -0.00002254
     atom  109 type  5   force =    -0.00010833   -0.00022327   -0.00020123
     atom  110 type  5   force =    -0.00016680   -0.00013583    0.00001525
     atom  111 type  5   force =     0.00020298   -0.00004845    0.00083479
     atom  112 type  5   force =    -0.00041912   -0.00032012   -0.00050951
     atom  113 type  5   force =    -0.00008283   -0.00055406    0.00058915
     atom  114 type  5   force =    -0.00039245    0.00054982   -0.00052794
     atom  115 type  5   force =     0.00024291    0.00055005   -0.00032954
     atom  116 type  5   force =    -0.00025599   -0.00026999    0.00034391

     Total force =     0.004980     Total SCF correction =     0.000263

     bfgs converged in  90 scf cycles and  89 bfgs steps
     (criteria: energy <  1.0E-04 Ry, force <  1.0E-03 Ry/Bohr)

     End of BFGS Geometry Optimization

     Final energy   =   -1878.4980744289 Ry
Begin final coordinates

ATOMIC_POSITIONS (crystal)
C             0.2892856332        0.9706561694        0.5279196816
C             0.0510725791        0.0292040553        0.0216027210
C             0.3932577252        0.0086855702        0.5476649606
C             0.1518700342        0.9869771294        0.0507334128
C             0.4538878330        0.9621828585        0.6527381033
C             0.2106583570        0.0344582551        0.1567143352
C             0.2086822392        0.5211170464        0.5358762327
C             0.4580684703        0.4668508095        0.0244851722
C             0.2412647826        0.6084503371        0.6163497761
C             0.4995374711        0.3862808500        0.1051537502
C             0.2479441050        0.8901252785        0.6067097155
C             0.0090518461        0.1128272337        0.0952253229
C             0.4058469152        0.8810015373        0.7293808657
C             0.1606028272        0.1178669847        0.2293215021
C             0.0722697014        0.6219063905        0.7047547634
C             0.3404862205        0.3748146067        0.2171559411
C             0.0323898692        0.5422784614        0.6202769436
C             0.2934363310        0.4572256480        0.1397737787
C             0.0987874875        0.4914180851        0.5325315556
C             0.3540850399        0.5048017185        0.0390205553
C             0.4351656337        0.0934607406        0.4641865060
C             0.1919217209        0.8975536572        0.9726129870
C             0.0590914144        0.4030901605        0.4508222662
C             0.3141488510        0.5925126574        0.9561632739
C             0.7880973151        0.9836386807        0.5430328601
C             0.5484452238        0.0316155155        0.0184848920
C             0.8988901531        0.0109146743        0.5443676674
C             0.6515391767        0.9923973309        0.0407661417
C             0.9643849503        0.9586987540        0.6355695447
C             0.7125897989        0.0391274563        0.1456620440
C             0.7055475627        0.5224367120        0.5318258402
C             0.9575502489        0.4823832809        0.0433487577
C             0.7456582178        0.6075051637        0.6069770419
C             0.9881889719        0.3894211955        0.1151266647
C             0.7545688008        0.8949427203        0.6189534540
C             0.5064720644        0.1118808930        0.0968844238
C             0.9229470394        0.8793240510        0.7170522147
C             0.6642854759        0.1220732624        0.2201848547
C             0.5895430315        0.6166013709        0.7244486269
C             0.8210428746        0.3775473511        0.2089466896
C             0.5423374615        0.5318298176        0.6504018219
C             0.7817098716        0.4612178360        0.1305398706
C             0.6029979668        0.4821771236        0.5510414322
C             0.8482478681        0.5143867189        0.0450420517
C             0.9393970942        0.0967681440        0.4613938601
C             0.6907379170        0.9045398500        0.9605370850
C             0.5624744874        0.3924659151        0.4710776094
C             0.8090749588        0.6042528590        0.9662822284
H             0.2376864650        1.0041601797        0.4519157532
H             0.4972083869       -0.0017649754        0.9421522691
H             0.0477642871        0.9815424505        0.6482933173
H             0.3225570193        0.6387309131        0.6112566881
H             0.0677515005        0.3560667090        0.1041724708
H             0.1673325247        0.8594380064        0.5923947606
H             0.4261073086        0.1426616912        0.0816310306
H             0.4508842576        0.8463941772        0.8110820758
H             0.2028187925        0.1519267824        0.3134129634
H             0.0230053409        0.6573038790        0.7786506211
H             0.2948405534        0.3393853691        0.2951022189
H             1.0026967331       -0.0033096610        0.9420222640
H             0.7562227499        0.4873566841        0.4586676325
H             0.5097574152        0.5015270809        0.9521439784
H             0.8249665619        0.6402702551        0.5928790538
H             0.5804982513        0.3562446126        0.0961200588
H             0.6731553962        0.8653570564        0.6080531076
H             0.9308330359        0.1465192899        0.0732641431
H             0.9717173920        0.8421845839        0.7930466272
H             0.7091461788        0.1576590414        0.3008703013
H             0.5449168327        0.6526334807        0.8031307142
H             0.7722519900        0.3398656001        0.2820169055
H             0.9496678363        0.5173737288        0.6284861646
H             0.6994658912        0.4870817728        0.1412478132
H             0.5815257111        0.9474079685        0.7565849579
H             0.3344448716        0.0508395030        0.2635060093
H             0.3510552401        0.4739201219        0.5044563690
H             0.1682467295        0.4441131018        0.2405536090
H             0.6452889331        1.0353990530        0.5053832395
H             0.8359875744        0.0529935905        0.2527727655
H             0.4167174678        0.5467567877        0.7504881171
H             0.1005849641        0.5238096630        1.0140586903
N             0.3061825421        0.8468433962        0.7064375408
N             0.0629378070        0.1540949907        0.1997352490
N             0.1754238785        0.6546319855        0.7000650650
N             0.4406274495        0.3422363988        0.2005622238
N             0.8196593701        0.8471972939        0.7054552449
N             0.5640489778        0.1535843627        0.1980786892
N             0.6878899824        0.6527073506        0.7027362001
N             0.9228702788        0.3420239392        0.1982912880
Ni            0.2435629096        0.7493418326        0.8357893936
Ni            0.5005815056        0.2443646813        0.3326948063
Ni            0.7506110405        0.7514871121        0.8354112205
Ni            0.9941118670        0.2485441696        0.3313911548
O             0.1120264832        0.3622588993        0.3554711809
O             0.3684085583        0.6303535784        0.8603633945
O             0.3781042052        0.1349885289        0.3692356359
O             0.1304823731        0.8522760975        0.8854132750
O             0.4664284262        0.3572132943        0.4748443232
O             0.2241909901        0.6382471483        0.9736628496
O             0.0307205782        0.1401843650        0.4784309185
O             0.2858768252        0.8579402549        0.9808219138
O             0.6217749880        0.3437159320        0.3886943960
O             0.8669916262        0.6527095362        0.8822540846
O             0.8836651882        0.1356468524        0.3633597092
O             0.6332830130        0.8660494179        0.8633488786
O             0.9683388135        0.3592130424        0.4698286577
O             0.7133732693        0.6405607869        0.9736260204
O             0.5288149244        0.1329381507        0.4769907368
O             0.7802750357        0.8581305012        0.9787378021
O             0.5523508173       -0.0072081916        0.6812529222
O             0.3070031642        1.0028963931        0.1897908263
O             0.2774990326        0.4663663592        0.4680834712
O             0.1947047021        0.4873908569        0.1645329462
O             0.7200087593        0.0417898250        0.4755272194
O             0.8092031681        1.0075025486        0.1769993517
O             0.4441713512        0.5009768932        0.6765436932
O             0.0273502869        0.5388990011        0.9801102257
End final coordinates



     Writing output data file ./QE_relaxation_results/pbesol_relax/NiPyC2_relax_sc211_meta_functionalized_OH_pbesol_relax.save/
 
     init_run     :     18.05s CPU     18.71s WALL (       1 calls)
     electrons    :  38649.84s CPU  40450.14s WALL (      90 calls)
     update_pot   :    281.12s CPU    293.27s WALL (      89 calls)
     forces       :    705.16s CPU    719.73s WALL (      90 calls)

     Called by init_run:
     wfcinit      :     14.27s CPU     14.79s WALL (       1 calls)
     potinit      :      1.59s CPU      1.69s WALL (       1 calls)
     hinit0       :      1.30s CPU      1.34s WALL (       1 calls)

     Called by electrons:
     c_bands      :  36309.67s CPU  37662.14s WALL (    1255 calls)
     sum_band     :   1423.89s CPU   1667.07s WALL (    1255 calls)
     v_of_rho     :    464.92s CPU    530.81s WALL (    1324 calls)
     mix_rho      :    447.07s CPU    551.09s WALL (    1255 calls)

     Called by c_bands:
     init_us_2    :     35.30s CPU     36.91s WALL (    2511 calls)
     regterg      :  36251.79s CPU  37475.80s WALL (    1255 calls)

     Called by sum_band:

     Called by *egterg:
     h_psi        :  12659.62s CPU  13583.02s WALL (    4509 calls)
     g_psi        :      9.05s CPU      9.11s WALL (    3253 calls)
     rdiaghg      :   1973.47s CPU   1987.06s WALL (    4398 calls)

     Called by h_psi:
     h_psi:calbec :   3836.70s CPU   3862.29s WALL (    4509 calls)
     vloc_psi     :   4992.75s CPU   5880.83s WALL (    4509 calls)
     add_vuspsi   :   3788.43s CPU   3797.92s WALL (    4509 calls)

     General routines
     calbec       :   4331.15s CPU   4360.36s WALL (    4869 calls)
     fft          :    274.57s CPU    358.54s WALL (   20891 calls)
     ffts         :    296.58s CPU    377.73s WALL (   21958 calls)
     fftw         :   5036.09s CPU   6116.92s WALL (  937023 calls)
 
     Parallel routines
     fft_scatt_xy :   1275.60s CPU   1291.55s WALL (  979872 calls)
     fft_scatt_yz :    909.62s CPU   2086.67s WALL (  979872 calls)
 
     PWSCF        :     11h 1m CPU     11h32m WALL

 
   This run was terminated on:  10:32:29  22Jun2020            

=------------------------------------------------------------------------------=
   JOB DONE.
=------------------------------------------------------------------------------=
QE finished Mon Jun 22 10:32:29 PDT 2020
