/apps/openmpi/3.1_intel-19/bin/mpiexec
starting QE Tue Jun 9 10:35:41 PDT 2020

     Program PWSCF v.6.5 starts on  9Jun2020 at 10:35:42 

     This program is part of the open-source Quantum ESPRESSO suite
     for quantum simulation of materials; please cite
         "P. Giannozzi et al., J. Phys.:Condens. Matter 21 395502 (2009);
         "P. Giannozzi et al., J. Phys.:Condens. Matter 29 465901 (2017);
          URL http://www.quantum-espresso.org", 
     in publications or presentations arising from this work. More details at
     http://www.quantum-espresso.org/quote

     Parallel version (MPI), running on    32 processors

     MPI processes distributed on     1 nodes
     K-points division:     npool     =       2
     R & G space division:  proc/nbgrp/npool/nimage =      16
     Reading input from QE_input_scripts/pw.NiPyC2_sc211_vdw-df2-relax.in
Warning: card &CELL ignored
Warning: card    CELL_DYNAMICS = 'BFGS' ignored
Warning: card    CELL_DOFREE = 'XYZ' ignored
Warning: card / ignored

     Current dimensions of program PWSCF are:
     Max number of different atomic species (ntypx) = 10
     Max number of k-points (npk) =  40000
     Max angular momentum in pseudopotentials (lmaxx) =  3

     IMPORTANT: XC functional enforced from input :
     Exchange-correlation= VDW-DF2
                           (   1   4  13   0   2   0   0)
     Any further DFT definition will be discarded
     Please, verify this is what you really want


     -------------------------------------------------
     Parameters for Dispersion (Grimme-D2) Correction:
     -------------------------------------------------
       atom      VdW radius       C_6     

        C          2.744         60.710
        H          1.892          4.857
        N          2.640         42.670
        Ni         2.952        374.666
        O          2.536         24.284

     gamma-point specific algorithms are used

     Subspace diagonalization in iterative solution of the eigenvalue problem:
     a serial algorithm will be used

     Found symmetry operation: I + ( -0.5000  0.0000  0.0000)
     This is a supercell, fractional translations are disabled
 
     Parallelization info
     --------------------
     sticks:   dense  smooth     PW     G-vecs:    dense   smooth      PW
     Min        1113    1113    277                91686    91686   11456
     Max        1116    1116    280                91692    91692   11460
     Sum       17829   17829   4453              1467017  1467017  183325
 


     bravais-lattice index     =            0
     lattice parameter (alat)  =      23.6322  a.u.
     unit-cell volume          =   10858.6228 (a.u.)^3
     number of atoms/cell      =          108
     number of atomic types    =            5
     number of electrons       =       400.00 (up: 204.00, down: 196.00)
     number of Kohn-Sham states=          245
     kinetic-energy cutoff     =     100.0000  Ry
     charge density cutoff     =     400.0000  Ry
     convergence threshold     =      1.0E-06
     mixing beta               =       0.7000
     number of iterations used =            8  local-TF  mixing
     Exchange-correlation= VDW-DF2
                           (   1   4  13   0   2   0   0)
     nstep                     =          200


     celldm(1)=  23.632159  celldm(2)=   0.000000  celldm(3)=   0.000000
     celldm(4)=   0.000000  celldm(5)=   0.000000  celldm(6)=   0.000000

     crystal axes: (cart. coord. in units of alat)
               a(1) = (   1.000000   0.000000   0.000000 )  
               a(2) = (   0.000000   1.001423   0.000000 )  
               a(3) = (  -0.018199   0.000000   0.821574 )  

     reciprocal axes: (cart. coord. in units 2 pi/alat)
               b(1) = (  1.000000  0.000000  0.022152 )  
               b(2) = (  0.000000  0.998579  0.000000 )  
               b(3) = (  0.000000  0.000000  1.217175 )  


     PseudoPot. # 1 for C  read from file:
     ./pseudo/C.pbesol-nc.UPF
     MD5 check sum: ce26087537ded160c8d400e183a8bf42
     Pseudo is Norm-conserving, Zval =  4.0
     Generated using "atomic" code by A. Dal Corso v.6.5
     Using radial grid of 1073 points,  1 beta functions with: 
                l(1) =   1

     PseudoPot. # 2 for H  read from file:
     ./pseudo/H.pbesol-n-nc.UPF
     MD5 check sum: 7995ef24074557c85b430109caaacc09
     Pseudo is Norm-conserving, Zval =  1.0
     Generated using "atomic" code by A. Dal Corso v.6.5
     Using radial grid of  929 points,  0 beta functions with: 

     PseudoPot. # 3 for N  read from file:
     ./pseudo/N.pbesol-nc.UPF
     MD5 check sum: e18cc5e4b8a5600c1a19b30c2cab1ca0
     Pseudo is Norm-conserving, Zval =  5.0
     Generated using "atomic" code by A. Dal Corso v.6.5
     Using radial grid of 1085 points,  1 beta functions with: 
                l(1) =   1

     PseudoPot. # 4 for Ni read from file:
     ./pseudo/Ni.pbesol-n-nc.UPF
     MD5 check sum: 623411631e0c2eb7c0b2b9815547d2d9
     Pseudo is Norm-conserving + core correction, Zval = 10.0
     Generated using "atomic" code by A. Dal Corso v.6.5
     Using radial grid of 1195 points,  2 beta functions with: 
                l(1) =   1
                l(2) =   2

     PseudoPot. # 5 for O  read from file:
     ./pseudo/O.pbesol-nc.UPF
     MD5 check sum: 73d10e7e91dbfcbe8a7e362101007f84
     Pseudo is Norm-conserving, Zval =  6.0
     Generated using "atomic" code by A. Dal Corso v.6.5
     Using radial grid of 1095 points,  1 beta functions with: 
                l(1) =   1

     atomic species   valence    mass     pseudopotential
        C              4.00    12.01070     C ( 1.00)
        H              1.00     1.00794     H ( 1.00)
        N              5.00    14.00670     N ( 1.00)
        Ni            10.00    58.69340     Ni( 1.00)
        O              6.00    15.99940     O ( 1.00)

     Starting magnetic structure 
     atomic species   magnetization
        C            0.000
        H            0.000
        N            0.000
        Ni           0.250
        O            0.000

     No symmetry found



   Cartesian axes

     site n.     atom                  positions (alat units)
         1           C   tau(   1) = (   0.2787122   0.9714307   0.4288486  )
         2           C   tau(   2) = (   0.0379730   0.0311503   0.0183277  )
         3           C   tau(   3) = (   0.3806882   0.0117868   0.4489838  )
         4           C   tau(   4) = (   0.1394042   0.9891499   0.0379124  )
         5           C   tau(   5) = (   0.4400787   0.9715829   0.5343281  )
         6           C   tau(   6) = (   0.1997920   0.0283934   0.1231482  )
         7           C   tau(   7) = (   0.1986011   0.5304580   0.4324635  )
         8           C   tau(   8) = (   0.4580372   0.4720800   0.0229252  )
         9           C   tau(   9) = (   0.2341003   0.6142040   0.4982314  )
        10           C   tau(  10) = (   0.4948422   0.3892302   0.0892369  )
        11           C   tau(  11) = (   0.2384981   0.8904717   0.4955761  )
        12           C   tau(  12) = (  -0.0008282   0.1123917   0.0856467  )
        13           C   tau(  13) = (   0.3947360   0.8906489   0.5977380  )
        14           C   tau(  14) = (   0.1557890   0.1097029   0.1871645  )
        15           C   tau(  15) = (   0.0756247   0.6098498   0.5975737  )
        16           C   tau(  16) = (   0.3367152   0.3921904   0.1884642  )
        17           C   tau(  17) = (   0.0350715   0.5258264   0.5351012  )
        18           C   tau(  18) = (   0.2948780   0.4753867   0.1254988  )
        19           C   tau(  19) = (   0.0981522   0.4849593   0.4519611  )
        20           C   tau(  20) = (   0.3569104   0.5163900   0.0416029  )
        21           C   tau(  21) = (   0.4248178   0.0994604   0.3833638  )
        22           C   tau(  22) = (   0.1639424   0.9010006   0.7933713  )
        23           C   tau(  23) = (   0.0588120   0.3950355   0.3866953  )
        24           C   tau(  24) = (   0.2984059   0.6050320   0.7961934  )
        25           C   tau(  25) = (   0.7787122   0.9714307   0.4288486  )
        26           C   tau(  26) = (   0.5379730   0.0311503   0.0183277  )
        27           C   tau(  27) = (   0.8806882   0.0117868   0.4489838  )
        28           C   tau(  28) = (   0.6394042   0.9891499   0.0379124  )
        29           C   tau(  29) = (   0.9400787   0.9715829   0.5343281  )
        30           C   tau(  30) = (   0.6997920   0.0283934   0.1231482  )
        31           C   tau(  31) = (   0.6986021   0.5304580   0.4324635  )
        32           C   tau(  32) = (   0.9580382   0.4720800   0.0229252  )
        33           C   tau(  33) = (   0.7341003   0.6142040   0.4982314  )
        34           C   tau(  34) = (   0.9948422   0.3892302   0.0892369  )
        35           C   tau(  35) = (   0.7384981   0.8904717   0.4955761  )
        36           C   tau(  36) = (   0.4991718   0.1123917   0.0856467  )
        37           C   tau(  37) = (   0.8947360   0.8906489   0.5977380  )
        38           C   tau(  38) = (   0.6557880   0.1097029   0.1871645  )
        39           C   tau(  39) = (   0.5756247   0.6098498   0.5975737  )
        40           C   tau(  40) = (   0.8367152   0.3921904   0.1884642  )
        41           C   tau(  41) = (   0.5350715   0.5258264   0.5351012  )
        42           C   tau(  42) = (   0.7948780   0.4753867   0.1254988  )
        43           C   tau(  43) = (   0.5981522   0.4849593   0.4519611  )
        44           C   tau(  44) = (   0.8569104   0.5163900   0.0416029  )
        45           C   tau(  45) = (   0.9248178   0.0994604   0.3833638  )
        46           C   tau(  46) = (   0.6639424   0.9010006   0.7933713  )
        47           C   tau(  47) = (   0.5588110   0.3950355   0.3866953  )
        48           C   tau(  48) = (   0.7984059   0.6050320   0.7961934  )
        49           H   tau(  49) = (   0.2290596   1.0009978   0.3640502  )
        50           H   tau(  50) = (   0.4693669   0.0026958   0.7751545  )
        51           H   tau(  51) = (   0.0198054   1.0002267   0.5533467  )
        52           H   tau(  52) = (   0.2791988   1.0000865   0.1418054  )
        53           H   tau(  53) = (   0.2505234   0.5016080   0.3691185  )
        54           H   tau(  54) = (  -0.0086584   0.5011092   0.7809458  )
        55           H   tau(  55) = (   0.3118554   0.6514319   0.4868937  )
        56           H   tau(  56) = (   0.0732386   0.3533532   0.0780726  )
        57           H   tau(  57) = (   0.1594426   0.8563401   0.4835457  )
        58           H   tau(  58) = (   0.4206861   0.1479423   0.0738480  )
        59           H   tau(  59) = (   0.4386511   0.8563902   0.6644572  )
        60           H   tau(  60) = (   0.2006191   0.1433067   0.2536997  )
        61           H   tau(  61) = (   0.0290492   0.6438591   0.6626884  )
        62           H   tau(  62) = (   0.2907535   0.3580349   0.2539083  )
        63           H   tau(  63) = (   0.4564147   0.4939330   0.5533319  )
        64           H   tau(  64) = (   0.2157623   0.5059201   0.1439924  )
        65           H   tau(  65) = (   0.7290596   1.0009978   0.3640502  )
        66           H   tau(  66) = (   0.9693669   0.0026958   0.7751545  )
        67           H   tau(  67) = (   0.5198044   1.0002267   0.5533467  )
        68           H   tau(  68) = (   0.7791988   1.0000865   0.1418054  )
        69           H   tau(  69) = (   0.7505234   0.5016080   0.3691185  )
        70           H   tau(  70) = (   0.4913416   0.5011092   0.7809458  )
        71           H   tau(  71) = (   0.8118554   0.6514319   0.4868937  )
        72           H   tau(  72) = (   0.5732386   0.3533532   0.0780726  )
        73           H   tau(  73) = (   0.6594426   0.8563401   0.4835457  )
        74           H   tau(  74) = (   0.9206861   0.1479423   0.0738480  )
        75           H   tau(  75) = (   0.9386511   0.8563902   0.6644572  )
        76           H   tau(  76) = (   0.7006201   0.1433067   0.2536997  )
        77           H   tau(  77) = (   0.5290492   0.6438591   0.6626884  )
        78           H   tau(  78) = (   0.7907535   0.3580349   0.2539083  )
        79           H   tau(  79) = (   0.9564147   0.4939330   0.5533319  )
        80           H   tau(  80) = (   0.7157623   0.5059201   0.1439924  )
        81           N   tau(  81) = (   0.2956096   0.8524646   0.5790685  )
        82           N   tau(  82) = (   0.0569790   0.1490689   0.1692870  )
        83           N   tau(  83) = (   0.1736962   0.6512356   0.5798983  )
        84           N   tau(  84) = (   0.4350238   0.3514275   0.1709211  )
        85           N   tau(  85) = (   0.7956096   0.8524646   0.5790685  )
        86           N   tau(  86) = (   0.5569790   0.1490689   0.1692870  )
        87           N   tau(  87) = (   0.6736972   0.6512356   0.5798983  )
        88           N   tau(  88) = (   0.9350238   0.3514275   0.1709211  )
        89           Ni  tau(  89) = (   0.2317814   0.7525556   0.6871039  )
        90           Ni  tau(  90) = (   0.4937992   0.2483520   0.2786599  )
        91           Ni  tau(  91) = (   0.7317814   0.7525556   0.6871039  )
        92           Ni  tau(  92) = (   0.9937992   0.2483520   0.2786599  )
        93           O   tau(  93) = (   0.1158100   0.3481839   0.3145586  )
        94           O   tau(  94) = (   0.3551690   0.6519036   0.7240468  )
        95           O   tau(  95) = (   0.3707656   0.1477170   0.3098797  )
        96           O   tau(  96) = (   0.1091506   0.8535652   0.7199135  )
        97           O   tau(  97) = (   0.4642788   0.3566669   0.3968154  )
        98           O   tau(  98) = (   0.2033039   0.6423280   0.8050417  )
        99           O   tau(  99) = (   0.0200847   0.1353504   0.3952413  )
       100           O   tau( 100) = (   0.2588616   0.8639860   0.8046490  )
       101           O   tau( 101) = (   0.6158110   0.3481839   0.3145586  )
       102           O   tau( 102) = (   0.8551690   0.6519036   0.7240468  )
       103           O   tau( 103) = (   0.8707656   0.1477170   0.3098797  )
       104           O   tau( 104) = (   0.6091506   0.8535652   0.7199135  )
       105           O   tau( 105) = (   0.9642788   0.3566669   0.3968154  )
       106           O   tau( 106) = (   0.7033039   0.6423280   0.8050417  )
       107           O   tau( 107) = (   0.5200847   0.1353504   0.3952413  )
       108           O   tau( 108) = (   0.7588616   0.8639860   0.8046490  )

     number of k points=     1  Marzari-Vanderbilt smearing, width (Ry)=  0.2000
                       cart. coord. in units 2pi/alat
        k(    1) = (   0.0000000   0.0000000   0.0000000), wk =   1.0000000

     Dense  grid:   733509 G-vectors     FFT dimensions: ( 160, 160, 125)

     Estimated max dynamical RAM per process >     301.75 MB

     Estimated total dynamical RAM >       9.43 GB
     Generating pointlists ...
     new r_m :   0.0358 (alat units)  0.8461 (a.u.) for type    1
     new r_m :   0.0358 (alat units)  0.8461 (a.u.) for type    2
     new r_m :   0.0445 (alat units)  1.0514 (a.u.) for type    3
     new r_m :   0.0654 (alat units)  1.5454 (a.u.) for type    4
     new r_m :   0.0423 (alat units)  0.9991 (a.u.) for type    5

     Check: negative core charge=   -0.000145

     Initial potential from superposition of free atoms

     starting charge  399.99669, renormalised to  400.00000


     %%%%%%%%%%%%%%%%%%%%%%%%%%%%%%%%%%%%%%%%%%%%%%%%%%%%%%%%%%%%%%%%%%%%%%%%
     %                                                                      %
     % You are using vdW-DF, which was implemented by the Thonhauser group. %
     % Please cite the following two papers that made this development      %
     % possible and the two reviews that describe the various versions:     %
     %                                                                      %
     %   T. Thonhauser et al., PRL 115, 136402 (2015).                      %
     %   T. Thonhauser et al., PRB 76, 125112 (2007).                       %
     %   K. Berland et al., Rep. Prog. Phys. 78, 066501 (2015).             %
     %   D.C. Langreth et al., J. Phys.: Condens. Matter 21, 084203 (2009). %
     %                                                                      %
     %                                                                      %
     % If you are calculating the stress with vdW-DF, please also cite:     %
     %                                                                      %
     %   R. Sabatini et al., J. Phys.: Condens. Matter 24, 424209 (2012).   %
     %                                                                      %
     %%%%%%%%%%%%%%%%%%%%%%%%%%%%%%%%%%%%%%%%%%%%%%%%%%%%%%%%%%%%%%%%%%%%%%%%


     Starting wfcs are  356 randomized atomic wfcs

     total cpu time spent up to now is       45.4 secs

     Self-consistent Calculation

     iteration #  1     ecut=   100.00 Ry     beta= 0.70
     Davidson diagonalization with overlap
     ethr =  1.00E-02,  avg # of iterations =  5.5

     total cpu time spent up to now is      143.2 secs

     total energy              =   -1639.25144088 Ry
     Harris-Foulkes estimate   =   -1649.43156857 Ry
     estimated scf accuracy    <      25.80372774 Ry

     total magnetization       =     8.00 Bohr mag/cell
     absolute magnetization    =     9.00 Bohr mag/cell

     iteration #  2     ecut=   100.00 Ry     beta= 0.70
     Davidson diagonalization with overlap
     ethr =  6.45E-03,  avg # of iterations =  2.0

     total cpu time spent up to now is      205.7 secs

     total energy              =   -1643.88281409 Ry
     Harris-Foulkes estimate   =   -1648.54586151 Ry
     estimated scf accuracy    <      21.35471887 Ry

     total magnetization       =     8.00 Bohr mag/cell
     absolute magnetization    =     8.36 Bohr mag/cell

     iteration #  3     ecut=   100.00 Ry     beta= 0.70
     Davidson diagonalization with overlap
     ethr =  5.34E-03,  avg # of iterations =  1.0

     total cpu time spent up to now is      260.9 secs

     total energy              =   -1643.37851012 Ry
     Harris-Foulkes estimate   =   -1644.75341810 Ry
     estimated scf accuracy    <       4.79999356 Ry

     total magnetization       =     8.00 Bohr mag/cell
     absolute magnetization    =     8.29 Bohr mag/cell

     iteration #  4     ecut=   100.00 Ry     beta= 0.70
     Davidson diagonalization with overlap
     ethr =  1.20E-03,  avg # of iterations =  9.5

     total cpu time spent up to now is      329.4 secs

     total energy              =   -1643.47464800 Ry
     Harris-Foulkes estimate   =   -1644.69435384 Ry
     estimated scf accuracy    <       9.74773056 Ry

     total magnetization       =     8.00 Bohr mag/cell
     absolute magnetization    =     8.33 Bohr mag/cell

     iteration #  5     ecut=   100.00 Ry     beta= 0.70
     Davidson diagonalization with overlap
     ethr =  1.20E-03,  avg # of iterations =  1.0

     total cpu time spent up to now is      384.5 secs

     total energy              =   -1643.95089137 Ry
     Harris-Foulkes estimate   =   -1644.01664048 Ry
     estimated scf accuracy    <       0.26191483 Ry

     total magnetization       =     8.00 Bohr mag/cell
     absolute magnetization    =     8.35 Bohr mag/cell

     iteration #  6     ecut=   100.00 Ry     beta= 0.70
     Davidson diagonalization with overlap
     ethr =  6.55E-05,  avg # of iterations =  6.0

     total cpu time spent up to now is      456.7 secs

     total energy              =   -1643.96754202 Ry
     Harris-Foulkes estimate   =   -1644.00988910 Ry
     estimated scf accuracy    <       0.92625586 Ry

     total magnetization       =     8.00 Bohr mag/cell
     absolute magnetization    =     8.34 Bohr mag/cell

     iteration #  7     ecut=   100.00 Ry     beta= 0.70
     Davidson diagonalization with overlap
     ethr =  6.55E-05,  avg # of iterations =  1.0

     total cpu time spent up to now is      511.8 secs

     total energy              =   -1643.88021542 Ry
     Harris-Foulkes estimate   =   -1643.98681817 Ry
     estimated scf accuracy    <       0.61994462 Ry

     total magnetization       =     8.00 Bohr mag/cell
     absolute magnetization    =     8.35 Bohr mag/cell

     iteration #  8     ecut=   100.00 Ry     beta= 0.70
     Davidson diagonalization with overlap
     ethr =  6.55E-05,  avg # of iterations =  1.5

     total cpu time spent up to now is      567.2 secs

     total energy              =   -1643.91845169 Ry
     Harris-Foulkes estimate   =   -1643.93648848 Ry
     estimated scf accuracy    <       0.11557866 Ry

     total magnetization       =     8.00 Bohr mag/cell
     absolute magnetization    =     8.35 Bohr mag/cell

     iteration #  9     ecut=   100.00 Ry     beta= 0.70
     Davidson diagonalization with overlap
     ethr =  2.89E-05,  avg # of iterations =  3.5

     total cpu time spent up to now is      627.1 secs

     total energy              =   -1643.90991013 Ry
     Harris-Foulkes estimate   =   -1643.92180457 Ry
     estimated scf accuracy    <       0.04526938 Ry

     total magnetization       =     8.00 Bohr mag/cell
     absolute magnetization    =     8.34 Bohr mag/cell

     iteration # 10     ecut=   100.00 Ry     beta= 0.70
     Davidson diagonalization with overlap
     ethr =  1.13E-05,  avg # of iterations =  3.0

     total cpu time spent up to now is      685.8 secs

     total energy              =   -1643.91560754 Ry
     Harris-Foulkes estimate   =   -1643.91914020 Ry
     estimated scf accuracy    <       0.05425558 Ry

     total magnetization       =     8.00 Bohr mag/cell
     absolute magnetization    =     8.31 Bohr mag/cell

     iteration # 11     ecut=   100.00 Ry     beta= 0.70
     Davidson diagonalization with overlap
     ethr =  1.13E-05,  avg # of iterations =  1.0

     total cpu time spent up to now is      741.0 secs

     total energy              =   -1643.91386762 Ry
     Harris-Foulkes estimate   =   -1643.91763391 Ry
     estimated scf accuracy    <       0.04012885 Ry

     total magnetization       =     8.00 Bohr mag/cell
     absolute magnetization    =     8.31 Bohr mag/cell

     iteration # 12     ecut=   100.00 Ry     beta= 0.70
     Davidson diagonalization with overlap
     ethr =  1.00E-05,  avg # of iterations =  2.0

     total cpu time spent up to now is      796.9 secs

     total energy              =   -1643.91582564 Ry
     Harris-Foulkes estimate   =   -1643.91571413 Ry
     estimated scf accuracy    <       0.00130539 Ry

     total magnetization       =     8.00 Bohr mag/cell
     absolute magnetization    =     8.31 Bohr mag/cell

     iteration # 13     ecut=   100.00 Ry     beta= 0.70
     Davidson diagonalization with overlap
     ethr =  3.26E-07,  avg # of iterations =  4.5

     total cpu time spent up to now is      861.6 secs

     total energy              =   -1643.91610950 Ry
     Harris-Foulkes estimate   =   -1643.91592204 Ry
     estimated scf accuracy    <       0.00049929 Ry

     total magnetization       =     8.00 Bohr mag/cell
     absolute magnetization    =     8.30 Bohr mag/cell

     iteration # 14     ecut=   100.00 Ry     beta= 0.70
     Davidson diagonalization with overlap
     ethr =  1.25E-07,  avg # of iterations =  4.5

     total cpu time spent up to now is      923.6 secs

     total energy              =   -1643.91616804 Ry
     Harris-Foulkes estimate   =   -1643.91615734 Ry
     estimated scf accuracy    <       0.00020621 Ry

     total magnetization       =     8.00 Bohr mag/cell
     absolute magnetization    =     8.30 Bohr mag/cell

     iteration # 15     ecut=   100.00 Ry     beta= 0.70
     Davidson diagonalization with overlap
     ethr =  5.16E-08,  avg # of iterations =  5.0

     total cpu time spent up to now is      988.3 secs

     total energy              =   -1643.91620127 Ry
     Harris-Foulkes estimate   =   -1643.91619156 Ry
     estimated scf accuracy    <       0.00007077 Ry

     total magnetization       =     8.00 Bohr mag/cell
     absolute magnetization    =     8.30 Bohr mag/cell

     iteration # 16     ecut=   100.00 Ry     beta= 0.70
     Davidson diagonalization with overlap
     ethr =  1.77E-08,  avg # of iterations =  4.0

     total cpu time spent up to now is     1049.8 secs

     total energy              =   -1643.91620876 Ry
     Harris-Foulkes estimate   =   -1643.91620954 Ry
     estimated scf accuracy    <       0.00006705 Ry

     total magnetization       =     8.00 Bohr mag/cell
     absolute magnetization    =     8.30 Bohr mag/cell

     iteration # 17     ecut=   100.00 Ry     beta= 0.70
     Davidson diagonalization with overlap
     ethr =  1.68E-08,  avg # of iterations =  3.0

     total cpu time spent up to now is     1107.7 secs

     total energy              =   -1643.91622087 Ry
     Harris-Foulkes estimate   =   -1643.91621422 Ry
     estimated scf accuracy    <       0.00002880 Ry

     total magnetization       =     8.00 Bohr mag/cell
     absolute magnetization    =     8.30 Bohr mag/cell

     iteration # 18     ecut=   100.00 Ry     beta= 0.70
     Davidson diagonalization with overlap
     ethr =  7.20E-09,  avg # of iterations =  4.5

     total cpu time spent up to now is     1175.4 secs

     total energy              =   -1643.91623049 Ry
     Harris-Foulkes estimate   =   -1643.91622541 Ry
     estimated scf accuracy    <       0.00000748 Ry

     total magnetization       =     8.00 Bohr mag/cell
     absolute magnetization    =     8.30 Bohr mag/cell

     iteration # 19     ecut=   100.00 Ry     beta= 0.70
     Davidson diagonalization with overlap
     ethr =  1.87E-09,  avg # of iterations =  4.0

     total cpu time spent up to now is     1240.0 secs

     total energy              =   -1643.91622255 Ry
     Harris-Foulkes estimate   =   -1643.91623186 Ry
     estimated scf accuracy    <       0.00001179 Ry

     total magnetization       =     8.00 Bohr mag/cell
     absolute magnetization    =     8.30 Bohr mag/cell

     iteration # 20     ecut=   100.00 Ry     beta= 0.70
     Davidson diagonalization with overlap
     ethr =  1.87E-09,  avg # of iterations =  4.0

     total cpu time spent up to now is     1307.7 secs

     total energy              =   -1643.91622493 Ry
     Harris-Foulkes estimate   =   -1643.91622375 Ry
     estimated scf accuracy    <       0.00000137 Ry

     total magnetization       =     8.00 Bohr mag/cell
     absolute magnetization    =     8.30 Bohr mag/cell

     iteration # 21     ecut=   100.00 Ry     beta= 0.70
     Davidson diagonalization with overlap
     ethr =  3.43E-10,  avg # of iterations =  5.0
 
     Magnetic moment per site:
     atom:    1    charge:    0.8602    magn:    0.0071    constr:    0.0000
     atom:    2    charge:    0.8607    magn:    0.0071    constr:    0.0000
     atom:    3    charge:    0.8645    magn:    0.0048    constr:    0.0000
     atom:    4    charge:    0.8640    magn:    0.0048    constr:    0.0000
     atom:    5    charge:    0.8608    magn:    0.0073    constr:    0.0000
     atom:    6    charge:    0.8621    magn:    0.0074    constr:    0.0000
     atom:    7    charge:    0.8618    magn:    0.0069    constr:    0.0000
     atom:    8    charge:    0.8608    magn:    0.0070    constr:    0.0000
     atom:    9    charge:    0.8519    magn:    0.0062    constr:    0.0000
     atom:   10    charge:    0.8512    magn:    0.0062    constr:    0.0000
     atom:   11    charge:    0.8518    magn:    0.0062    constr:    0.0000
     atom:   12    charge:    0.8516    magn:    0.0063    constr:    0.0000
     atom:   13    charge:    0.8542    magn:    0.0062    constr:    0.0000
     atom:   14    charge:    0.8534    magn:    0.0062    constr:    0.0000
     atom:   15    charge:    0.8536    magn:    0.0061    constr:    0.0000
     atom:   16    charge:    0.8534    magn:    0.0061    constr:    0.0000
     atom:   17    charge:    0.8611    magn:    0.0072    constr:    0.0000
     atom:   18    charge:    0.8608    magn:    0.0073    constr:    0.0000
     atom:   19    charge:    0.8663    magn:    0.0048    constr:    0.0000
     atom:   20    charge:    0.8639    magn:    0.0049    constr:    0.0000
     atom:   21    charge:    0.8360    magn:   -0.0026    constr:    0.0000
     atom:   22    charge:    0.8368    magn:   -0.0026    constr:    0.0000
     atom:   23    charge:    0.8366    magn:   -0.0024    constr:    0.0000
     atom:   24    charge:    0.8373    magn:   -0.0027    constr:    0.0000
     atom:   25    charge:    0.8602    magn:    0.0071    constr:    0.0000
     atom:   26    charge:    0.8607    magn:    0.0071    constr:    0.0000
     atom:   27    charge:    0.8645    magn:    0.0048    constr:    0.0000
     atom:   28    charge:    0.8640    magn:    0.0048    constr:    0.0000
     atom:   29    charge:    0.8608    magn:    0.0073    constr:    0.0000
     atom:   30    charge:    0.8621    magn:    0.0074    constr:    0.0000
     atom:   31    charge:    0.8618    magn:    0.0070    constr:    0.0000
     atom:   32    charge:    0.8608    magn:    0.0070    constr:    0.0000
     atom:   33    charge:    0.8519    magn:    0.0062    constr:    0.0000
     atom:   34    charge:    0.8512    magn:    0.0062    constr:    0.0000
     atom:   35    charge:    0.8518    magn:    0.0062    constr:    0.0000
     atom:   36    charge:    0.8516    magn:    0.0063    constr:    0.0000
     atom:   37    charge:    0.8542    magn:    0.0062    constr:    0.0000
     atom:   38    charge:    0.8534    magn:    0.0062    constr:    0.0000
     atom:   39    charge:    0.8536    magn:    0.0061    constr:    0.0000
     atom:   40    charge:    0.8534    magn:    0.0061    constr:    0.0000
     atom:   41    charge:    0.8611    magn:    0.0072    constr:    0.0000
     atom:   42    charge:    0.8608    magn:    0.0073    constr:    0.0000
     atom:   43    charge:    0.8663    magn:    0.0048    constr:    0.0000
     atom:   44    charge:    0.8639    magn:    0.0049    constr:    0.0000
     atom:   45    charge:    0.8360    magn:   -0.0026    constr:    0.0000
     atom:   46    charge:    0.8368    magn:   -0.0026    constr:    0.0000
     atom:   47    charge:    0.8366    magn:   -0.0024    constr:    0.0000
     atom:   48    charge:    0.8373    magn:   -0.0027    constr:    0.0000
     atom:   49    charge:    0.5042    magn:   -0.0012    constr:    0.0000
     atom:   50    charge:    0.5036    magn:   -0.0012    constr:    0.0000
     atom:   51    charge:    0.5028    magn:   -0.0012    constr:    0.0000
     atom:   52    charge:    0.5030    magn:   -0.0013    constr:    0.0000
     atom:   53    charge:    0.5033    magn:   -0.0012    constr:    0.0000
     atom:   54    charge:    0.5040    magn:   -0.0012    constr:    0.0000
     atom:   55    charge:    0.5055    magn:   -0.0010    constr:    0.0000
     atom:   56    charge:    0.5054    magn:   -0.0009    constr:    0.0000
     atom:   57    charge:    0.5053    magn:   -0.0009    constr:    0.0000
     atom:   58    charge:    0.5059    magn:   -0.0009    constr:    0.0000
     atom:   59    charge:    0.5024    magn:   -0.0008    constr:    0.0000
     atom:   60    charge:    0.5019    magn:   -0.0008    constr:    0.0000
     atom:   61    charge:    0.5017    magn:   -0.0008    constr:    0.0000
     atom:   62    charge:    0.5017    magn:   -0.0008    constr:    0.0000
     atom:   63    charge:    0.5027    magn:   -0.0013    constr:    0.0000
     atom:   64    charge:    0.5031    magn:   -0.0013    constr:    0.0000
     atom:   65    charge:    0.5042    magn:   -0.0012    constr:    0.0000
     atom:   66    charge:    0.5036    magn:   -0.0012    constr:    0.0000
     atom:   67    charge:    0.5028    magn:   -0.0012    constr:    0.0000
     atom:   68    charge:    0.5030    magn:   -0.0013    constr:    0.0000
     atom:   69    charge:    0.5034    magn:   -0.0012    constr:    0.0000
     atom:   70    charge:    0.5040    magn:   -0.0012    constr:    0.0000
     atom:   71    charge:    0.5055    magn:   -0.0010    constr:    0.0000
     atom:   72    charge:    0.5054    magn:   -0.0009    constr:    0.0000
     atom:   73    charge:    0.5053    magn:   -0.0009    constr:    0.0000
     atom:   74    charge:    0.5059    magn:   -0.0009    constr:    0.0000
     atom:   75    charge:    0.5024    magn:   -0.0008    constr:    0.0000
     atom:   76    charge:    0.5019    magn:   -0.0008    constr:    0.0000
     atom:   77    charge:    0.5017    magn:   -0.0008    constr:    0.0000
     atom:   78    charge:    0.5017    magn:   -0.0008    constr:    0.0000
     atom:   79    charge:    0.5027    magn:   -0.0013    constr:    0.0000
     atom:   80    charge:    0.5031    magn:   -0.0013    constr:    0.0000
     atom:   81    charge:    2.4977    magn:    0.0147    constr:    0.0000
     atom:   82    charge:    2.4974    magn:    0.0148    constr:    0.0000
     atom:   83    charge:    2.5010    magn:    0.0143    constr:    0.0000
     atom:   84    charge:    2.4977    magn:    0.0148    constr:    0.0000
     atom:   85    charge:    2.4977    magn:    0.0147    constr:    0.0000
     atom:   86    charge:    2.4974    magn:    0.0148    constr:    0.0000
     atom:   87    charge:    2.5010    magn:    0.0143    constr:    0.0000
     atom:   88    charge:    2.4977    magn:    0.0148    constr:    0.0000
     atom:   89    charge:    7.4536    magn:    1.1805    constr:    0.0000
     atom:   90    charge:    7.4528    magn:    1.1784    constr:    0.0000
     atom:   91    charge:    7.4541    magn:    1.1803    constr:    0.0000
     atom:   92    charge:    7.4528    magn:    1.1784    constr:    0.0000
     atom:   93    charge:    3.3082    magn:    0.0609    constr:    0.0000
     atom:   94    charge:    3.3068    magn:    0.0631    constr:    0.0000
     atom:   95    charge:    3.3090    magn:    0.0617    constr:    0.0000
     atom:   96    charge:    3.3058    magn:    0.0620    constr:    0.0000
     atom:   97    charge:    3.3054    magn:    0.0624    constr:    0.0000
     atom:   98    charge:    3.3064    magn:    0.0643    constr:    0.0000
     atom:   99    charge:    3.3073    magn:    0.0643    constr:    0.0000
     atom:  100    charge:    3.3048    magn:    0.0639    constr:    0.0000
     atom:  101    charge:    3.3082    magn:    0.0609    constr:    0.0000
     atom:  102    charge:    3.3068    magn:    0.0631    constr:    0.0000
     atom:  103    charge:    3.3090    magn:    0.0617    constr:    0.0000
     atom:  104    charge:    3.3058    magn:    0.0620    constr:    0.0000
     atom:  105    charge:    3.3054    magn:    0.0624    constr:    0.0000
     atom:  106    charge:    3.3063    magn:    0.0643    constr:    0.0000
     atom:  107    charge:    3.3072    magn:    0.0643    constr:    0.0000
     atom:  108    charge:    3.3048    magn:    0.0639    constr:    0.0000

     total cpu time spent up to now is     1387.3 secs

     End of self-consistent calculation

 ------ SPIN UP ------------


          k = 0.0000 0.0000 0.0000 ( 91663 PWs)   bands (ev):

   -22.6338 -22.6313 -22.6248 -22.6226 -22.5076 -22.5072 -22.5019 -22.5018
   -19.6856 -19.6849 -19.6698 -19.6697 -19.6687 -19.6628 -19.6606 -19.6534
   -19.4317 -19.4251 -19.4104 -19.4098 -19.3253 -19.3225 -19.3129 -19.3123
   -15.8041 -15.7604 -15.7530 -15.7369 -15.7258 -15.7236 -15.7202 -15.7024
   -14.5289 -14.5177 -14.5106 -14.4947 -14.4868 -14.4770 -14.4622 -14.4146
   -12.0604 -11.9843 -11.9722 -11.9584 -11.9378 -11.9110 -11.9069 -11.9045
   -11.3821 -11.3531 -11.3421 -11.3334 -11.3289 -11.2896 -11.2834 -11.2653
    -9.7290  -9.5252  -9.5186  -9.4979  -9.4861  -9.4229  -9.4083  -9.4032
    -8.5379  -8.1532  -8.1411  -8.0789  -7.9980  -7.9779  -7.9763  -7.9607
    -7.8240  -7.8077  -7.8025  -7.7895  -7.7590  -7.7392  -7.7372  -7.7168
    -7.1422  -7.1160  -7.1100  -7.0402  -7.0329  -7.0168  -7.0088  -7.0048
    -6.9722  -6.9544  -6.8834  -6.8609  -6.8555  -6.8532  -6.8347  -6.8259
    -6.8144  -6.8046  -6.7956  -6.6975  -6.6546  -6.6499  -6.5766  -6.5506
    -6.5284  -6.5189  -6.5162  -6.3639  -6.3506  -6.2717  -6.2622  -6.1235
    -6.1125  -6.1036  -6.0960  -6.0942  -6.0177  -6.0117  -5.9283  -5.8701
    -5.7329  -5.5783  -5.5577  -5.5450  -5.4491  -5.4393  -5.3709  -5.1441
    -4.9181  -4.8272  -4.8111  -4.8067  -4.6891  -4.6245  -4.5924  -4.5800
    -4.5578  -4.5449  -4.4892  -4.4724  -4.3032  -4.2824  -4.2170  -4.2131
    -4.0290  -4.0229  -3.9765  -3.9491  -3.8182  -3.7919  -3.6611  -3.6501
    -3.5536  -3.5487  -3.5474  -3.5345  -3.5045  -3.4743  -3.3783  -3.3680
    -3.2564  -3.1956  -3.1816  -3.0007  -2.8843  -2.8733  -2.8725  -2.8469
    -2.7471  -2.7443  -2.7278  -2.6697  -2.6608  -2.6560  -2.6412  -2.6371
    -2.5904  -2.5830  -2.5094  -2.5012  -2.4810  -2.4551  -2.4518  -2.4134
    -2.3625  -2.3487  -2.3292  -2.3195  -2.3121  -2.1864  -2.1487  -2.1249
    -2.1185  -2.0914  -2.0853  -2.0260  -0.6932  -0.6541  -0.6311  -0.5851
    -0.3582  -0.3287  -0.3232  -0.3031   1.5479   1.5590   1.6126   1.6247
     1.6317   1.6646   1.6773   1.7625   2.3366   2.6828   2.7371   2.7385
     2.7975   2.8330   2.8360   2.9557   3.0764   3.1472   3.1532   3.1755
     3.7645   3.8972   3.9010   4.0338   4.0893   4.1458   4.1502   4.2637
     4.2708   4.2958   4.3581   4.3595   4.3689   4.5693   4.5720   4.6924
     4.8779   4.8915   5.0206   5.2872   5.4605

 ------ SPIN DOWN ----------


          k = 0.0000 0.0000 0.0000 ( 91663 PWs)   bands (ev):

   -22.5262 -22.5236 -22.5154 -22.5132 -22.4004 -22.4001 -22.3932 -22.3930
   -19.5431 -19.5423 -19.5249 -19.5240 -19.5237 -19.5188 -19.5160 -19.5079
   -19.3957 -19.3897 -19.3744 -19.3743 -19.2898 -19.2859 -19.2771 -19.2759
   -15.7632 -15.7194 -15.7117 -15.6965 -15.6852 -15.6827 -15.6794 -15.6607
   -14.4841 -14.4727 -14.4656 -14.4495 -14.4415 -14.4317 -14.4169 -14.3688
   -12.0175 -11.9407 -11.9283 -11.9181 -11.8944 -11.8706 -11.8671 -11.8641
   -11.3508 -11.3222 -11.3112 -11.3034 -11.2979 -11.2592 -11.2532 -11.2355
    -9.7039  -9.4994  -9.4927  -9.4731  -9.4646  -9.3996  -9.3849  -9.3796
    -8.4826  -8.0930  -8.0807  -8.0152  -7.9590  -7.9263  -7.9253  -7.9055
    -7.7798  -7.7682  -7.7659  -7.7536  -7.6926  -7.6866  -7.6859  -7.6843
    -7.0807  -7.0729  -7.0625  -7.0089  -7.0032  -6.9577  -6.9264  -6.9260
    -6.9168  -6.8426  -6.8267  -6.7716  -6.7699  -6.7668  -6.7513  -6.7185
    -6.7137  -6.7084  -6.6730  -6.6308  -6.5634  -6.5553  -6.4818  -6.4384
    -6.4072  -6.4047  -6.4042  -6.2657  -6.2283  -6.1775  -6.1683  -6.0982
    -6.0789  -6.0580  -6.0513  -6.0122  -5.9681  -5.9635  -5.8919  -5.8433
    -5.6565  -5.4824  -5.4511  -5.4391  -5.3473  -5.3377  -5.2705  -5.0440
    -4.7766  -4.6230  -4.6169  -4.5413  -4.5183  -4.5034  -4.4949  -4.4867
    -4.4855  -4.4316  -4.4295  -4.2445  -3.9734  -3.8724  -3.8448  -3.8279
    -3.8000  -3.7277  -3.7131  -3.5232  -3.4035  -3.3339  -3.2415  -3.2287
    -3.1311  -3.0736  -3.0206  -3.0095  -2.9796  -2.9550  -2.9438  -2.9406
    -2.8676  -2.8349  -2.8173  -2.6614  -2.6298  -2.6153  -2.6138  -2.5662
    -2.5596  -2.5180  -2.4671  -2.4578  -2.3793  -2.3613  -2.2777  -2.2328
    -2.1776  -2.1280  -2.0563  -2.0177  -2.0111  -1.9694  -1.9633  -1.9455
    -1.9117  -1.7501  -1.7397  -1.6320  -1.6288  -1.6196  -1.6108  -1.6059
    -1.5968  -1.5249  -1.5168  -1.4734   0.1984   0.2316   0.2480   0.2811
     0.4490   0.4851   0.4973   0.5035   1.6624   1.6729   1.7150   1.7502
     1.7566   1.7954   1.8184   1.8784   2.3037   2.7993   2.8556   2.8574
     2.8844   2.9253   2.9283   3.0771   3.0892   3.1380   3.1427   3.3084
     3.7514   3.8975   3.9028   4.0358   4.1370   4.1420   4.1576   4.3215
     4.3269   4.3689   4.4165   4.4248   4.4372   4.5542   4.6403   4.6958
     4.8754   4.8894   5.0270   5.3033   5.4714

     the spin up/dw Fermi energies are    -0.1068   -0.4353 ev

!    total energy              =   -1643.91622589 Ry
     Harris-Foulkes estimate   =   -1643.91622561 Ry
     estimated scf accuracy    <       0.00000075 Ry

     The total energy is the sum of the following terms:

     one-electron contribution =   -2440.44850782 Ry
     hartree contribution      =    1365.06808029 Ry
     xc contribution           =    -516.76732512 Ry
     ewald contribution        =     -53.94679134 Ry
     Dispersion Correction     =      -0.41717636 Ry
     smearing contrib. (-TS)   =       2.59549445 Ry

     total magnetization       =     8.00 Bohr mag/cell
     absolute magnetization    =     8.30 Bohr mag/cell

     convergence has been achieved in  21 iterations

     Forces acting on atoms (cartesian axes, Ry/au):

     atom    1 type  1   force =    -0.01425056    0.00632943   -0.01464618
     atom    2 type  1   force =    -0.01410927   -0.00597389   -0.01464467
     atom    3 type  1   force =     0.00169998    0.00263608   -0.00157993
     atom    4 type  1   force =     0.00247767   -0.00268165   -0.00120973
     atom    5 type  1   force =     0.01609542    0.00235480    0.00254245
     atom    6 type  1   force =     0.01470769   -0.00231153    0.00221472
     atom    7 type  1   force =     0.01494392   -0.00538849   -0.01239205
     atom    8 type  1   force =     0.01546097    0.00582229   -0.01383382
     atom    9 type  1   force =     0.01742422    0.00136201   -0.00727137
     atom   10 type  1   force =     0.01734740   -0.00152652   -0.00647218
     atom   11 type  1   force =    -0.01765672   -0.00134991   -0.00647897
     atom   12 type  1   force =    -0.01670642    0.00121536   -0.00646017
     atom   13 type  1   force =     0.02012899   -0.00750222    0.01787939
     atom   14 type  1   force =     0.02006918    0.00706127    0.01746719
     atom   15 type  1   force =    -0.02114380    0.00509569    0.01546961
     atom   16 type  1   force =    -0.02121850   -0.00623434    0.01615691
     atom   17 type  1   force =    -0.01396082   -0.00309259    0.00250760
     atom   18 type  1   force =    -0.01538375    0.00288147    0.00211200
     atom   19 type  1   force =    -0.00215339   -0.00305425   -0.00257791
     atom   20 type  1   force =    -0.00147044    0.00245895   -0.00226633
     atom   21 type  1   force =    -0.00482521   -0.00777408    0.00714830
     atom   22 type  1   force =    -0.00484844    0.00822164    0.00730289
     atom   23 type  1   force =     0.00516289    0.00941247    0.00751828
     atom   24 type  1   force =     0.00400278   -0.00823775    0.00825196
     atom   25 type  1   force =    -0.01425057    0.00632908   -0.01464650
     atom   26 type  1   force =    -0.01411008   -0.00597319   -0.01464346
     atom   27 type  1   force =     0.00170085    0.00263585   -0.00157957
     atom   28 type  1   force =     0.00247766   -0.00268241   -0.00120891
     atom   29 type  1   force =     0.01610888    0.00235992    0.00254521
     atom   30 type  1   force =     0.01470088   -0.00231118    0.00221448
     atom   31 type  1   force =     0.01491496   -0.00539624   -0.01238539
     atom   32 type  1   force =     0.01543419    0.00582688   -0.01382580
     atom   33 type  1   force =     0.01743844    0.00136503   -0.00727365
     atom   34 type  1   force =     0.01735415   -0.00152906   -0.00647221
     atom   35 type  1   force =    -0.01765709   -0.00135094   -0.00647807
     atom   36 type  1   force =    -0.01670991    0.00121409   -0.00646391
     atom   37 type  1   force =     0.02012827   -0.00750371    0.01788065
     atom   38 type  1   force =     0.02010140    0.00705941    0.01748004
     atom   39 type  1   force =    -0.02113158    0.00510026    0.01546900
     atom   40 type  1   force =    -0.02121812   -0.00623468    0.01615727
     atom   41 type  1   force =    -0.01395633   -0.00309055    0.00250738
     atom   42 type  1   force =    -0.01538179    0.00288124    0.00211054
     atom   43 type  1   force =    -0.00214685   -0.00305168   -0.00257978
     atom   44 type  1   force =    -0.00145821    0.00245443   -0.00226794
     atom   45 type  1   force =    -0.00482509   -0.00777264    0.00714888
     atom   46 type  1   force =    -0.00485170    0.00822779    0.00730711
     atom   47 type  1   force =     0.00519693    0.00941573    0.00751075
     atom   48 type  1   force =     0.00400860   -0.00825002    0.00825864
     atom   49 type  2   force =     0.00960984   -0.00611750    0.01282131
     atom   50 type  2   force =     0.01004713    0.00555849    0.01249495
     atom   51 type  2   force =    -0.01503180   -0.00483681   -0.00464667
     atom   52 type  2   force =    -0.01459367    0.00485237   -0.00503420
     atom   53 type  2   force =    -0.01007812    0.00542146    0.01172559
     atom   54 type  2   force =    -0.00920536   -0.00535063    0.01151120
     atom   55 type  2   force =    -0.01372439   -0.00741772    0.00219979
     atom   56 type  2   force =    -0.01366771    0.00662292    0.00188754
     atom   57 type  2   force =     0.01372057    0.00675658    0.00132622
     atom   58 type  2   force =     0.01374436   -0.00765099    0.00159442
     atom   59 type  2   force =    -0.01241494    0.00702142   -0.01599889
     atom   60 type  2   force =    -0.01312501   -0.00706099   -0.01643197
     atom   61 type  2   force =     0.01283558   -0.00671136   -0.01518095
     atom   62 type  2   force =     0.01156317    0.00706095   -0.01531964
     atom   63 type  2   force =     0.01407071    0.00542978   -0.00543817
     atom   64 type  2   force =     0.01394101   -0.00433021   -0.00587266
     atom   65 type  2   force =     0.00960971   -0.00611754    0.01282114
     atom   66 type  2   force =     0.01004725    0.00555823    0.01249512
     atom   67 type  2   force =    -0.01501749   -0.00483218   -0.00464317
     atom   68 type  2   force =    -0.01459403    0.00485309   -0.00503319
     atom   69 type  2   force =    -0.01007055    0.00541949    0.01171984
     atom   70 type  2   force =    -0.00921295   -0.00535289    0.01151667
     atom   71 type  2   force =    -0.01372341   -0.00741723    0.00219919
     atom   72 type  2   force =    -0.01366791    0.00662423    0.00188675
     atom   73 type  2   force =     0.01372041    0.00675643    0.00132635
     atom   74 type  2   force =     0.01374451   -0.00765162    0.00159501
     atom   75 type  2   force =    -0.01241512    0.00702108   -0.01599886
     atom   76 type  2   force =    -0.01313720   -0.00706528   -0.01644232
     atom   77 type  2   force =     0.01283686   -0.00671081   -0.01518130
     atom   78 type  2   force =     0.01156336    0.00706081   -0.01531941
     atom   79 type  2   force =     0.01407135    0.00543063   -0.00543843
     atom   80 type  2   force =     0.01394104   -0.00433055   -0.00587288
     atom   81 type  3   force =     0.00338717    0.00053239   -0.00706443
     atom   82 type  3   force =     0.00285164    0.00011922   -0.00882773
     atom   83 type  3   force =    -0.00523877    0.00013790   -0.00892152
     atom   84 type  3   force =    -0.00316975    0.00030818   -0.00865828
     atom   85 type  3   force =     0.00338772    0.00053270   -0.00706564
     atom   86 type  3   force =     0.00284131    0.00012273   -0.00882850
     atom   87 type  3   force =    -0.00526365    0.00013128   -0.00891561
     atom   88 type  3   force =    -0.00317166    0.00030899   -0.00865859
     atom   89 type  4   force =     0.00571033    0.01614346   -0.00379212
     atom   90 type  4   force =    -0.00507235   -0.01668308    0.01076764
     atom   91 type  4   force =     0.00573256    0.01615454   -0.00383205
     atom   92 type  4   force =    -0.00506050   -0.01669090    0.01079229
     atom   93 type  5   force =     0.02056059    0.00435884   -0.00567943
     atom   94 type  5   force =     0.02358613   -0.00350542   -0.00318100
     atom   95 type  5   force =    -0.01970565   -0.00619672   -0.00459985
     atom   96 type  5   force =    -0.02008887    0.00709234   -0.00677303
     atom   97 type  5   force =    -0.01891691    0.00846055    0.01537497
     atom   98 type  5   force =    -0.01696246   -0.00945744    0.01428008
     atom   99 type  5   force =     0.01558749   -0.01025015    0.01383574
     atom  100 type  5   force =     0.01795201    0.00996242    0.01485643
     atom  101 type  5   force =     0.02054004    0.00436322   -0.00566932
     atom  102 type  5   force =     0.02359658   -0.00349829   -0.00318760
     atom  103 type  5   force =    -0.01970556   -0.00619829   -0.00459918
     atom  104 type  5   force =    -0.02009631    0.00708981   -0.00677858
     atom  105 type  5   force =    -0.01890619    0.00846423    0.01537591
     atom  106 type  5   force =    -0.01698110   -0.00945014    0.01428254
     atom  107 type  5   force =     0.01558894   -0.01024943    0.01383640
     atom  108 type  5   force =     0.01796834    0.00995573    0.01485937

     Total force =     0.190746     Total SCF correction =     0.001576

     BFGS Geometry Optimization

     number of scf cycles    =   1
     number of bfgs steps    =   0

     energy   new            =   -1643.9162258929 Ry

     new trust radius        =       0.0279494348 bohr
     new conv_thr            =       0.0000010000 Ry


ATOMIC_POSITIONS (crystal)
C             0.2875952555        0.9703174506        0.5212296478
C             0.0377682358        0.0308535730        0.0215537256
C             0.3907044542        0.0118813877        0.5464106254
C             0.1403477090        0.9876306866        0.0460836926
C             0.4525984644        0.9703015023        0.6505019491
C             0.2031444353        0.0282553260        0.1500070690
C             0.2088017395        0.5294763091        0.5257457469
C             0.4591862672        0.4716550214        0.0271914883
C             0.2458674937        0.6133885518        0.6060604878
C             0.4975469923        0.3886124967        0.1082836501
C             0.2487227790        0.8891489596        0.6028693002
C             0.0003560085        0.1122833553        0.1039142685
C             0.4088455222        0.8890659929        0.7284728788
C             0.1608006048        0.1098453744        0.2287116484
C             0.0879817963        0.6091983188        0.7281487627
C             0.3400072792        0.3913695676        0.2302261625
C             0.0463365953        0.5249483225        0.6514411540
C             0.2970090131        0.4748327565        0.1528627784
C             0.1080704624        0.4841409423        0.5499832247
C             0.3577676535        0.5157599030        0.0505212725
C             0.4331125208        0.0989905057        0.4669891734
C             0.1813186828        0.9000674062        0.9660481357
C             0.0676035160        0.3948717246        0.4710632296
C             0.3162201135        0.6038239133        0.9695320177
C             0.7875952551        0.9703174358        0.5212296314
C             0.5377682029        0.0308536025        0.0215537879
C             0.8907044913        0.0118813779        0.5464106441
C             0.6403477094        0.9876306545        0.0460837349
C             0.9525990366        0.9703017186        0.6505020911
C             0.7031441469        0.0282553409        0.1500070567
C             0.7088015204        0.5294759817        0.5257460901
C             0.9591861413        0.4716552153        0.0271919013
C             0.7458680936        0.6133886793        0.6060603705
C             0.9975472780        0.3886123896        0.1082836483
C             0.7487227641        0.8891489158        0.6028693465
C             0.5003558575        0.1122833015        0.1039140761
C             0.9088454930        0.8890659302        0.7284729439
C             0.6608009802        0.1098452960        0.2287123104
C             0.5879823125        0.6091985117        0.7281487314
C             0.8400072958        0.3913695531        0.2302261808
C             0.5463367850        0.5249484087        0.6514411426
C             0.7970090945        0.4748327470        0.1528627033
C             0.6080707375        0.4841410510        0.5499831281
C             0.8577681698        0.5157597122        0.0505211896
C             0.9331125264        0.0989905667        0.4669892032
C             0.6813185487        0.9000676660        0.9660483531
C             0.5676039493        0.3948718626        0.4710628417
C             0.8162203661        0.6038233950        0.9695323617
H             0.2375426606        0.9993165047        0.4437733623
H             0.4869748586        0.0029268744        0.9441425527
H             0.0314225703        0.9986006202        0.6732806733
H             0.2817177470        0.9988700371        0.1723427133
H             0.2582845334        0.5011240842        0.4498859272
H             0.0082622633        0.5001709087        0.9511408846
H             0.3220623112        0.6501925638        0.5927483004
H             0.0743914173        0.3531308521        0.0951252177
H             0.1707358321        0.8554084999        0.5886283069
H             0.4229050901        0.1474087067        0.0899681205
H             0.4528296626        0.8554696908        0.8079369765
H             0.2056682097        0.1428046375        0.3079506705
H             0.0442579104        0.6426604109        0.8058261045
H             0.2968529380        0.3578243609        0.3082619612
H             0.4692623077        0.4934604358        0.6732219070
H             0.2195364120        0.5050180266        0.1749615285
H             0.7375426550        0.9993165027        0.4437733536
H             0.9869748638        0.0029268636        0.9441425619
H             0.5314221791        0.9986008160        0.6732808531
H             0.7817177327        0.9988700677        0.1723427653
H             0.7582848480        0.5011240008        0.4498856307
H             0.5082619472        0.5001708131        0.9511411666
H             0.8220623522        0.6501925845        0.5927482696
H             0.5743914080        0.3531309074        0.0951251772
H             0.6707358252        0.8554084935        0.5886283137
H             0.9229050973        0.1474086802        0.0899681511
H             0.9528296546        0.8554696762        0.8079369781
H             0.7056686839        0.1428044560        0.3079501376
H             0.5442579641        0.6426604341        0.8058260864
H             0.7968529462        0.3578243551        0.3082619731
H             0.9692623344        0.4934604715        0.6732218933
H             0.7195364134        0.5050180122        0.1749615172
N             0.3085737068        0.8512754962        0.7044641464
N             0.0608413931        0.1488620375        0.2055973274
N             0.1863119575        0.6503158270        0.7053784968
N             0.4386677553        0.3509410222        0.2075950547
N             0.8085737289        0.8512755094        0.7044640838
N             0.5608409552        0.1488621859        0.2055972877
N             0.6863119104        0.6503155474        0.7053788012
N             0.9386676743        0.3509410562        0.2075950387
Ni            0.2472400792        0.7521681430        0.8361306866
Ni            0.4997674554        0.2472940552        0.3397325880
Ni            0.7472409826        0.7521686115        0.8361286303
Ni            0.9997679802        0.2472937248        0.3397338571
O             0.1236427022        0.3478731831        0.3825804805
O             0.3722030704        0.6508288784        0.8811281626
O             0.3767918395        0.1472451573        0.3769410847
O             0.1242415862        0.8526516873        0.8759121545
O             0.4722829388        0.3565175011        0.4837858884
O             0.2204326154        0.6410153753        0.9806124964
O             0.0295125572        0.1347248790        0.4817906106
O             0.2774595689        0.8631789629        0.9801641813
O             0.6236428422        0.3478733680        0.3825810012
O             0.8722035063        0.6508291797        0.8811278227
O             0.8767918440        0.1472450910        0.3769411190
O             0.6242412664        0.8526515803        0.8759118689
O             0.9722833932        0.3565176569        0.4837859369
O             0.7204318288        0.6410156836        0.9806126228
O             0.5295126192        0.1347249094        0.4817906443
O             0.7774602628        0.8631786803        0.9801643324



     Writing output data file ./QE_relaxation_results/VDW_relax/NiPyC2_relax_sc211/NiPyC2_sc211_vdw-df2_relax.save/
     NEW-OLD atomic charge density approx. for the potential

     Check: negative core charge=   -0.000145

     total cpu time spent up to now is     1418.0 secs

     Self-consistent Calculation

     iteration #  1     ecut=   100.00 Ry     beta= 0.70
     Davidson diagonalization with overlap
     ethr =  1.00E-06,  avg # of iterations =  5.0

     total cpu time spent up to now is     1595.1 secs

     total energy              =   -1643.92295277 Ry
     Harris-Foulkes estimate   =   -1643.92574746 Ry
     estimated scf accuracy    <       0.01128597 Ry

     total magnetization       =     8.00 Bohr mag/cell
     absolute magnetization    =     8.30 Bohr mag/cell

     iteration #  2     ecut=   100.00 Ry     beta= 0.70
     Davidson diagonalization with overlap
     ethr =  2.82E-06,  avg # of iterations =  3.5

     total cpu time spent up to now is     1661.4 secs

     total energy              =   -1643.92225332 Ry
     Harris-Foulkes estimate   =   -1643.92694804 Ry
     estimated scf accuracy    <       0.03743154 Ry

     total magnetization       =     8.00 Bohr mag/cell
     absolute magnetization    =     8.31 Bohr mag/cell

     iteration #  3     ecut=   100.00 Ry     beta= 0.70
     Davidson diagonalization with overlap
     ethr =  2.82E-06,  avg # of iterations =  2.0

     total cpu time spent up to now is     1717.9 secs

     total energy              =   -1643.92467101 Ry
     Harris-Foulkes estimate   =   -1643.92507264 Ry
     estimated scf accuracy    <       0.00336169 Ry

     total magnetization       =     8.00 Bohr mag/cell
     absolute magnetization    =     8.30 Bohr mag/cell

     iteration #  4     ecut=   100.00 Ry     beta= 0.70
     Davidson diagonalization with overlap
     ethr =  8.40E-07,  avg # of iterations =  2.0

     total cpu time spent up to now is     1774.0 secs

     total energy              =   -1643.92463009 Ry
     Harris-Foulkes estimate   =   -1643.92513736 Ry
     estimated scf accuracy    <       0.00537315 Ry

     total magnetization       =     8.00 Bohr mag/cell
     absolute magnetization    =     8.30 Bohr mag/cell

     iteration #  5     ecut=   100.00 Ry     beta= 0.70
     Davidson diagonalization with overlap
     ethr =  8.40E-07,  avg # of iterations =  1.5

     total cpu time spent up to now is     1829.4 secs

     total energy              =   -1643.92489481 Ry
     Harris-Foulkes estimate   =   -1643.92498220 Ry
     estimated scf accuracy    <       0.00086972 Ry

     total magnetization       =     8.00 Bohr mag/cell
     absolute magnetization    =     8.30 Bohr mag/cell

     iteration #  6     ecut=   100.00 Ry     beta= 0.70
     Davidson diagonalization with overlap
     ethr =  2.17E-07,  avg # of iterations =  1.5

     total cpu time spent up to now is     1884.8 secs

     total energy              =   -1643.92493704 Ry
     Harris-Foulkes estimate   =   -1643.92493998 Ry
     estimated scf accuracy    <       0.00002055 Ry

     total magnetization       =     8.00 Bohr mag/cell
     absolute magnetization    =     8.30 Bohr mag/cell

     iteration #  7     ecut=   100.00 Ry     beta= 0.70
     Davidson diagonalization with overlap
     ethr =  5.14E-09,  avg # of iterations =  4.0

     total cpu time spent up to now is     1981.8 secs

     total energy              =   -1643.92494103 Ry
     Harris-Foulkes estimate   =   -1643.92494313 Ry
     estimated scf accuracy    <       0.00001243 Ry

     total magnetization       =     8.00 Bohr mag/cell
     absolute magnetization    =     8.30 Bohr mag/cell

     iteration #  8     ecut=   100.00 Ry     beta= 0.70
     Davidson diagonalization with overlap
     ethr =  3.11E-09,  avg # of iterations =  3.5

     total cpu time spent up to now is     2045.0 secs

     total energy              =   -1643.92494200 Ry
     Harris-Foulkes estimate   =   -1643.92494225 Ry
     estimated scf accuracy    <       0.00000778 Ry

     total magnetization       =     8.00 Bohr mag/cell
     absolute magnetization    =     8.30 Bohr mag/cell

     iteration #  9     ecut=   100.00 Ry     beta= 0.70
     Davidson diagonalization with overlap
     ethr =  1.95E-09,  avg # of iterations =  3.5

     total cpu time spent up to now is     2111.5 secs

     total energy              =   -1643.92494199 Ry
     Harris-Foulkes estimate   =   -1643.92494385 Ry
     estimated scf accuracy    <       0.00002316 Ry

     total magnetization       =     8.00 Bohr mag/cell
     absolute magnetization    =     8.30 Bohr mag/cell

     iteration # 10     ecut=   100.00 Ry     beta= 0.70
     Davidson diagonalization with overlap
     ethr =  1.95E-09,  avg # of iterations =  3.0

     total cpu time spent up to now is     2172.5 secs

     total energy              =   -1643.92494355 Ry
     Harris-Foulkes estimate   =   -1643.92494322 Ry
     estimated scf accuracy    <       0.00000168 Ry

     total magnetization       =     8.00 Bohr mag/cell
     absolute magnetization    =     8.30 Bohr mag/cell

     iteration # 11     ecut=   100.00 Ry     beta= 0.70
     Davidson diagonalization with overlap
     ethr =  4.20E-10,  avg # of iterations =  4.0
 
     Magnetic moment per site:
     atom:    1    charge:    0.8606    magn:    0.0071    constr:    0.0000
     atom:    2    charge:    0.8611    magn:    0.0071    constr:    0.0000
     atom:    3    charge:    0.8625    magn:    0.0047    constr:    0.0000
     atom:    4    charge:    0.8622    magn:    0.0047    constr:    0.0000
     atom:    5    charge:    0.8609    magn:    0.0071    constr:    0.0000
     atom:    6    charge:    0.8624    magn:    0.0071    constr:    0.0000
     atom:    7    charge:    0.8623    magn:    0.0069    constr:    0.0000
     atom:    8    charge:    0.8611    magn:    0.0070    constr:    0.0000
     atom:    9    charge:    0.8521    magn:    0.0060    constr:    0.0000
     atom:   10    charge:    0.8514    magn:    0.0059    constr:    0.0000
     atom:   11    charge:    0.8519    magn:    0.0060    constr:    0.0000
     atom:   12    charge:    0.8519    magn:    0.0060    constr:    0.0000
     atom:   13    charge:    0.8540    magn:    0.0061    constr:    0.0000
     atom:   14    charge:    0.8533    magn:    0.0061    constr:    0.0000
     atom:   15    charge:    0.8536    magn:    0.0060    constr:    0.0000
     atom:   16    charge:    0.8531    magn:    0.0059    constr:    0.0000
     atom:   17    charge:    0.8615    magn:    0.0070    constr:    0.0000
     atom:   18    charge:    0.8611    magn:    0.0071    constr:    0.0000
     atom:   19    charge:    0.8646    magn:    0.0048    constr:    0.0000
     atom:   20    charge:    0.8619    magn:    0.0049    constr:    0.0000
     atom:   21    charge:    0.8324    magn:   -0.0025    constr:    0.0000
     atom:   22    charge:    0.8326    magn:   -0.0026    constr:    0.0000
     atom:   23    charge:    0.8320    magn:   -0.0026    constr:    0.0000
     atom:   24    charge:    0.8330    magn:   -0.0029    constr:    0.0000
     atom:   25    charge:    0.8606    magn:    0.0071    constr:    0.0000
     atom:   26    charge:    0.8611    magn:    0.0071    constr:    0.0000
     atom:   27    charge:    0.8625    magn:    0.0047    constr:    0.0000
     atom:   28    charge:    0.8622    magn:    0.0047    constr:    0.0000
     atom:   29    charge:    0.8609    magn:    0.0071    constr:    0.0000
     atom:   30    charge:    0.8624    magn:    0.0071    constr:    0.0000
     atom:   31    charge:    0.8623    magn:    0.0069    constr:    0.0000
     atom:   32    charge:    0.8611    magn:    0.0070    constr:    0.0000
     atom:   33    charge:    0.8521    magn:    0.0060    constr:    0.0000
     atom:   34    charge:    0.8514    magn:    0.0059    constr:    0.0000
     atom:   35    charge:    0.8518    magn:    0.0060    constr:    0.0000
     atom:   36    charge:    0.8519    magn:    0.0060    constr:    0.0000
     atom:   37    charge:    0.8540    magn:    0.0061    constr:    0.0000
     atom:   38    charge:    0.8533    magn:    0.0061    constr:    0.0000
     atom:   39    charge:    0.8536    magn:    0.0060    constr:    0.0000
     atom:   40    charge:    0.8531    magn:    0.0059    constr:    0.0000
     atom:   41    charge:    0.8615    magn:    0.0070    constr:    0.0000
     atom:   42    charge:    0.8611    magn:    0.0071    constr:    0.0000
     atom:   43    charge:    0.8646    magn:    0.0048    constr:    0.0000
     atom:   44    charge:    0.8619    magn:    0.0049    constr:    0.0000
     atom:   45    charge:    0.8324    magn:   -0.0025    constr:    0.0000
     atom:   46    charge:    0.8326    magn:   -0.0026    constr:    0.0000
     atom:   47    charge:    0.8320    magn:   -0.0026    constr:    0.0000
     atom:   48    charge:    0.8330    magn:   -0.0029    constr:    0.0000
     atom:   49    charge:    0.5118    magn:   -0.0012    constr:    0.0000
     atom:   50    charge:    0.5111    magn:   -0.0012    constr:    0.0000
     atom:   51    charge:    0.5087    magn:   -0.0012    constr:    0.0000
     atom:   52    charge:    0.5085    magn:   -0.0012    constr:    0.0000
     atom:   53    charge:    0.5105    magn:   -0.0012    constr:    0.0000
     atom:   54    charge:    0.5117    magn:   -0.0012    constr:    0.0000
     atom:   55    charge:    0.5112    magn:   -0.0009    constr:    0.0000
     atom:   56    charge:    0.5112    magn:   -0.0009    constr:    0.0000
     atom:   57    charge:    0.5111    magn:   -0.0009    constr:    0.0000
     atom:   58    charge:    0.5114    magn:   -0.0009    constr:    0.0000
     atom:   59    charge:    0.5117    magn:   -0.0008    constr:    0.0000
     atom:   60    charge:    0.5110    magn:   -0.0008    constr:    0.0000
     atom:   61    charge:    0.5102    magn:   -0.0008    constr:    0.0000
     atom:   62    charge:    0.5105    magn:   -0.0008    constr:    0.0000
     atom:   63    charge:    0.5080    magn:   -0.0012    constr:    0.0000
     atom:   64    charge:    0.5088    magn:   -0.0012    constr:    0.0000
     atom:   65    charge:    0.5118    magn:   -0.0012    constr:    0.0000
     atom:   66    charge:    0.5111    magn:   -0.0012    constr:    0.0000
     atom:   67    charge:    0.5087    magn:   -0.0012    constr:    0.0000
     atom:   68    charge:    0.5085    magn:   -0.0012    constr:    0.0000
     atom:   69    charge:    0.5105    magn:   -0.0012    constr:    0.0000
     atom:   70    charge:    0.5117    magn:   -0.0012    constr:    0.0000
     atom:   71    charge:    0.5112    magn:   -0.0009    constr:    0.0000
     atom:   72    charge:    0.5112    magn:   -0.0009    constr:    0.0000
     atom:   73    charge:    0.5111    magn:   -0.0009    constr:    0.0000
     atom:   74    charge:    0.5114    magn:   -0.0009    constr:    0.0000
     atom:   75    charge:    0.5117    magn:   -0.0008    constr:    0.0000
     atom:   76    charge:    0.5110    magn:   -0.0008    constr:    0.0000
     atom:   77    charge:    0.5102    magn:   -0.0008    constr:    0.0000
     atom:   78    charge:    0.5105    magn:   -0.0008    constr:    0.0000
     atom:   79    charge:    0.5080    magn:   -0.0012    constr:    0.0000
     atom:   80    charge:    0.5088    magn:   -0.0012    constr:    0.0000
     atom:   81    charge:    2.4899    magn:    0.0145    constr:    0.0000
     atom:   82    charge:    2.4891    magn:    0.0148    constr:    0.0000
     atom:   83    charge:    2.4916    magn:    0.0145    constr:    0.0000
     atom:   84    charge:    2.4883    magn:    0.0151    constr:    0.0000
     atom:   85    charge:    2.4899    magn:    0.0145    constr:    0.0000
     atom:   86    charge:    2.4891    magn:    0.0148    constr:    0.0000
     atom:   87    charge:    2.4916    magn:    0.0145    constr:    0.0000
     atom:   88    charge:    2.4883    magn:    0.0151    constr:    0.0000
     atom:   89    charge:    7.4505    magn:    1.1866    constr:    0.0000
     atom:   90    charge:    7.4498    magn:    1.1842    constr:    0.0000
     atom:   91    charge:    7.4505    magn:    1.1866    constr:    0.0000
     atom:   92    charge:    7.4498    magn:    1.1842    constr:    0.0000
     atom:   93    charge:    3.3027    magn:    0.0609    constr:    0.0000
     atom:   94    charge:    3.3012    magn:    0.0633    constr:    0.0000
     atom:   95    charge:    3.3052    magn:    0.0599    constr:    0.0000
     atom:   96    charge:    3.3012    magn:    0.0609    constr:    0.0000
     atom:   97    charge:    3.2993    magn:    0.0630    constr:    0.0000
     atom:   98    charge:    3.3005    magn:    0.0649    constr:    0.0000
     atom:   99    charge:    3.3028    magn:    0.0629    constr:    0.0000
     atom:  100    charge:    3.2995    magn:    0.0634    constr:    0.0000
     atom:  101    charge:    3.3027    magn:    0.0609    constr:    0.0000
     atom:  102    charge:    3.3012    magn:    0.0633    constr:    0.0000
     atom:  103    charge:    3.3052    magn:    0.0599    constr:    0.0000
     atom:  104    charge:    3.3012    magn:    0.0609    constr:    0.0000
     atom:  105    charge:    3.2993    magn:    0.0630    constr:    0.0000
     atom:  106    charge:    3.3005    magn:    0.0649    constr:    0.0000
     atom:  107    charge:    3.3028    magn:    0.0629    constr:    0.0000
     atom:  108    charge:    3.2995    magn:    0.0634    constr:    0.0000

     total cpu time spent up to now is     2247.7 secs

     End of self-consistent calculation

 ------ SPIN UP ------------


          k = 0.0000 0.0000 0.0000 ( 91663 PWs)   bands (ev):

   -22.4462 -22.4436 -22.4243 -22.4218 -22.3145 -22.3141 -22.2996 -22.2993
   -19.5935 -19.5918 -19.5739 -19.5722 -19.5691 -19.5638 -19.5546 -19.5486
   -19.3235 -19.3166 -19.2995 -19.2987 -19.2165 -19.2137 -19.2003 -19.1995
   -15.7599 -15.7155 -15.7070 -15.6920 -15.6814 -15.6768 -15.6740 -15.6564
   -14.5548 -14.5438 -14.5352 -14.5246 -14.5143 -14.5050 -14.4861 -14.4402
   -12.0645 -11.9950 -11.9805 -11.9800 -11.9593 -11.9270 -11.9177 -11.9169
   -11.4164 -11.3888 -11.3742 -11.3734 -11.3619 -11.3308 -11.3218 -11.3037
    -9.7875  -9.5778  -9.5695  -9.5611  -9.5379  -9.4763  -9.4698  -9.4625
    -8.4849  -8.1332  -8.1228  -8.0529  -7.9907  -7.9601  -7.9578  -7.9573
    -7.7990  -7.7694  -7.7654  -7.7516  -7.7461  -7.7138  -7.7118  -7.6801
    -7.2395  -7.2279  -7.2190  -7.1807  -7.1749  -7.1118  -7.0296  -6.9796
    -6.9735  -6.9673  -6.9078  -6.8770  -6.8605  -6.8180  -6.8111  -6.7758
    -6.7650  -6.7617  -6.7359  -6.6502  -6.6193  -6.6150  -6.5306  -6.5167
    -6.4990  -6.4731  -6.4680  -6.2979  -6.2882  -6.2279  -6.2201  -6.1755
    -6.1569  -6.1528  -6.1516  -6.0694  -6.0671  -6.0457  -6.0128  -5.9778
    -5.7139  -5.5251  -5.4855  -5.4735  -5.3850  -5.3728  -5.3012  -5.0594
    -4.8523  -4.7790  -4.7757  -4.7666  -4.7615  -4.7114  -4.6740  -4.6638
    -4.6610  -4.6245  -4.5828  -4.5719  -4.3130  -4.2796  -4.2075  -4.2042
    -4.0401  -4.0274  -3.9769  -3.9506  -3.7650  -3.7563  -3.6274  -3.6155
    -3.5261  -3.5255  -3.5181  -3.4981  -3.4767  -3.4443  -3.3554  -3.3439
    -3.2313  -3.1613  -3.1483  -2.9785  -2.8648  -2.8521  -2.8460  -2.8313
    -2.7183  -2.7077  -2.6867  -2.6504  -2.6471  -2.6407  -2.6246  -2.6129
    -2.5653  -2.5626  -2.4963  -2.4725  -2.4653  -2.4343  -2.4315  -2.3953
    -2.3605  -2.3419  -2.3249  -2.3144  -2.3064  -2.1880  -2.1424  -2.1215
    -2.1131  -2.0902  -2.0832  -2.0164  -0.7029  -0.6555  -0.6435  -0.5931
    -0.3611  -0.3246  -0.3230  -0.3066   1.4934   1.5077   1.5595   1.5690
     1.5789   1.6163   1.6289   1.7059   2.3367   2.6321   2.6838   2.6857
     2.7488   2.7817   2.7861   2.9028   3.0800   3.1213   3.1482   3.1552
     3.7586   3.8853   3.8894   4.0266   4.0309   4.1417   4.1450   4.2332
     4.2433   4.2545   4.3065   4.3227   4.3292   4.5361   4.5948   4.6947
     4.8924   4.9072   5.0235   5.3329   5.4835

 ------ SPIN DOWN ----------


          k = 0.0000 0.0000 0.0000 ( 91663 PWs)   bands (ev):

   -22.3396 -22.3370 -22.3156 -22.3130 -22.2083 -22.2080 -22.1908 -22.1905
   -19.4518 -19.4499 -19.4304 -19.4282 -19.4268 -19.4212 -19.4076 -19.4015
   -19.2876 -19.2814 -19.2635 -19.2633 -19.1812 -19.1773 -19.1647 -19.1632
   -15.7194 -15.6748 -15.6659 -15.6520 -15.6412 -15.6362 -15.6334 -15.6149
   -14.5115 -14.5002 -14.4916 -14.4808 -14.4705 -14.4612 -14.4422 -14.3958
   -12.0224 -11.9523 -11.9412 -11.9371 -11.9169 -11.8873 -11.8778 -11.8776
   -11.3858 -11.3586 -11.3450 -11.3432 -11.3317 -11.3013 -11.2922 -11.2746
    -9.7643  -9.5541  -9.5456  -9.5381  -9.5181  -9.4544  -9.4483  -9.4407
    -8.4303  -8.0748  -8.0643  -7.9911  -7.9501  -7.9104  -7.9089  -7.9050
    -7.7608  -7.7327  -7.7318  -7.7182  -7.6884  -7.6647  -7.6631  -7.6505
    -7.2150  -7.2031  -7.1796  -7.1643  -7.1594  -7.0808  -7.0038  -6.9490
    -6.8819  -6.8696  -6.8259  -6.7799  -6.7471  -6.7332  -6.7298  -6.6736
    -6.6615  -6.6374  -6.6057  -6.5842  -6.5211  -6.5136  -6.4275  -6.4204
    -6.3975  -6.3789  -6.3740  -6.2069  -6.1540  -6.1407  -6.1368  -6.1267
    -6.1199  -6.0757  -6.0715  -6.0132  -6.0115  -6.0106  -5.9570  -5.9154
    -5.6202  -5.4250  -5.3790  -5.3685  -5.2819  -5.2705  -5.2007  -4.9611
    -4.7290  -4.7106  -4.7047  -4.6573  -4.6128  -4.6013  -4.5885  -4.5713
    -4.5609  -4.4216  -4.4014  -4.1853  -3.9438  -3.8494  -3.8170  -3.8008
    -3.7767  -3.7086  -3.6907  -3.4705  -3.4017  -3.2970  -3.2047  -3.1934
    -3.0952  -3.0335  -2.9813  -2.9695  -2.9533  -2.9272  -2.9104  -2.9013
    -2.8376  -2.8001  -2.7791  -2.6476  -2.6185  -2.5997  -2.5748  -2.5347
    -2.5278  -2.4843  -2.4506  -2.4426  -2.3760  -2.3515  -2.2779  -2.2367
    -2.1835  -2.1253  -2.0610  -2.0180  -2.0097  -1.9701  -1.9632  -1.9158
    -1.9046  -1.7177  -1.7089  -1.6133  -1.6036  -1.6000  -1.5908  -1.5867
    -1.5832  -1.5133  -1.4986  -1.4558   0.1887   0.2293   0.2342   0.2753
     0.4451   0.4823   0.4994   0.5000   1.6081   1.6216   1.6631   1.6949
     1.7042   1.7474   1.7706   1.8223   2.3064   2.7459   2.8016   2.8039
     2.8449   2.8816   2.8853   3.0231   3.0839   3.1324   3.1374   3.2516
     3.7473   3.8912   3.8965   4.0361   4.0997   4.1474   4.1525   4.2807
     4.2896   4.3343   4.3731   4.3787   4.3834   4.5813   4.6014   4.6907
     4.8894   4.9037   5.0295   5.3496   5.4949

     the spin up/dw Fermi energies are    -0.1037   -0.4226 ev

!    total energy              =   -1643.92494719 Ry
     Harris-Foulkes estimate   =   -1643.92494395 Ry
     estimated scf accuracy    <       0.00000060 Ry

     The total energy is the sum of the following terms:

     one-electron contribution =   -2423.70077717 Ry
     hartree contribution      =    1356.88738543 Ry
     xc contribution           =    -516.65223822 Ry
     ewald contribution        =     -62.58622785 Ry
     Dispersion Correction     =      -0.41808652 Ry
     smearing contrib. (-TS)   =       2.54499713 Ry

     total magnetization       =     8.00 Bohr mag/cell
     absolute magnetization    =     8.30 Bohr mag/cell

     convergence has been achieved in  11 iterations

     Forces acting on atoms (cartesian axes, Ry/au):

     atom    1 type  1   force =     0.00913514   -0.00845844    0.01791178
     atom    2 type  1   force =     0.00966136    0.00747940    0.01730117
     atom    3 type  1   force =    -0.00514538   -0.00626666    0.00388059
     atom    4 type  1   force =    -0.00561240    0.00588579    0.00341374
     atom    5 type  1   force =    -0.01498766   -0.01280112    0.00075446
     atom    6 type  1   force =    -0.01353002    0.01213390    0.00139789
     atom    7 type  1   force =    -0.00879463    0.00654022    0.01609096
     atom    8 type  1   force =    -0.00887204   -0.00739017    0.01626279
     atom    9 type  1   force =    -0.01898586   -0.01407219   -0.00067122
     atom   10 type  1   force =    -0.01810336    0.01303574   -0.00111075
     atom   11 type  1   force =     0.01885565    0.01415132   -0.00190604
     atom   12 type  1   force =     0.01847065   -0.01432891   -0.00214175
     atom   13 type  1   force =    -0.01020046    0.01456162   -0.02740798
     atom   14 type  1   force =    -0.01191772   -0.01395990   -0.02759697
     atom   15 type  1   force =     0.01173832   -0.01345799   -0.02520791
     atom   16 type  1   force =     0.01208165    0.01317256   -0.02607757
     atom   17 type  1   force =     0.01272756    0.01047683    0.00033465
     atom   18 type  1   force =     0.01369130   -0.01178348    0.00005901
     atom   19 type  1   force =     0.00573167    0.00727700    0.00360598
     atom   20 type  1   force =     0.00562843   -0.00711710    0.00357919
     atom   21 type  1   force =     0.00400202    0.00535442   -0.00252982
     atom   22 type  1   force =     0.00537466   -0.00789810   -0.00429265
     atom   23 type  1   force =    -0.00599967   -0.01032315   -0.00645709
     atom   24 type  1   force =    -0.00487847    0.00972470   -0.00563136
     atom   25 type  1   force =     0.00913679   -0.00845884    0.01791253
     atom   26 type  1   force =     0.00965959    0.00747815    0.01729699
     atom   27 type  1   force =    -0.00514184   -0.00626647    0.00388311
     atom   28 type  1   force =    -0.00561600    0.00588619    0.00341343
     atom   29 type  1   force =    -0.01500463   -0.01280880    0.00075102
     atom   30 type  1   force =    -0.01352018    0.01213293    0.00140545
     atom   31 type  1   force =    -0.00877179    0.00654690    0.01608014
     atom   32 type  1   force =    -0.00884850   -0.00739388    0.01625077
     atom   33 type  1   force =    -0.01900633   -0.01408313   -0.00066686
     atom   34 type  1   force =    -0.01811411    0.01303888   -0.00110756
     atom   35 type  1   force =     0.01885455    0.01415452   -0.00190953
     atom   36 type  1   force =     0.01847499   -0.01432803   -0.00213707
     atom   37 type  1   force =    -0.01019327    0.01456853   -0.02741041
     atom   38 type  1   force =    -0.01194000   -0.01396331   -0.02761752
     atom   39 type  1   force =     0.01172394   -0.01346361   -0.02520392
     atom   40 type  1   force =     0.01208225    0.01317228   -0.02607950
     atom   41 type  1   force =     0.01272574    0.01047511    0.00033297
     atom   42 type  1   force =     0.01369031   -0.01178549    0.00006040
     atom   43 type  1   force =     0.00572053    0.00727311    0.00360994
     atom   44 type  1   force =     0.00561273   -0.00711218    0.00358414
     atom   45 type  1   force =     0.00399767    0.00535204   -0.00252995
     atom   46 type  1   force =     0.00538587   -0.00791508   -0.00430046
     atom   47 type  1   force =    -0.00601700   -0.01032702   -0.00644814
     atom   48 type  1   force =    -0.00489184    0.00974609   -0.00564357
     atom   49 type  2   force =    -0.00581109    0.00390074   -0.00789673
     atom   50 type  2   force =    -0.00547991   -0.00430835   -0.00794825
     atom   51 type  2   force =     0.00668524    0.00345221   -0.00006033
     atom   52 type  2   force =     0.00598629   -0.00362642   -0.00072913
     atom   53 type  2   force =     0.00538416   -0.00406916   -0.00714236
[...]
     atom:   66    charge:    0.5054    magn:   -0.0011    constr:    0.0000
     atom:   67    charge:    0.5027    magn:   -0.0011    constr:    0.0000
     atom:   68    charge:    0.4983    magn:   -0.0011    constr:    0.0000
     atom:   69    charge:    0.5083    magn:   -0.0011    constr:    0.0000
     atom:   70    charge:    0.5076    magn:   -0.0011    constr:    0.0000
     atom:   71    charge:    0.5133    magn:   -0.0008    constr:    0.0000
     atom:   72    charge:    0.5107    magn:   -0.0008    constr:    0.0000
     atom:   73    charge:    0.5090    magn:   -0.0008    constr:    0.0000
     atom:   74    charge:    0.5114    magn:   -0.0008    constr:    0.0000
     atom:   75    charge:    0.5124    magn:   -0.0007    constr:    0.0000
     atom:   76    charge:    0.5067    magn:   -0.0007    constr:    0.0000
     atom:   77    charge:    0.5023    magn:   -0.0007    constr:    0.0000
     atom:   78    charge:    0.5049    magn:   -0.0007    constr:    0.0000
     atom:   79    charge:    0.4956    magn:   -0.0011    constr:    0.0000
     atom:   80    charge:    0.4990    magn:   -0.0011    constr:    0.0000
     atom:   81    charge:    2.4891    magn:    0.0135    constr:    0.0000
     atom:   82    charge:    2.4899    magn:    0.0140    constr:    0.0000
     atom:   83    charge:    2.4846    magn:    0.0133    constr:    0.0000
     atom:   84    charge:    2.4785    magn:    0.0137    constr:    0.0000
     atom:   85    charge:    2.4891    magn:    0.0135    constr:    0.0000
     atom:   86    charge:    2.4899    magn:    0.0140    constr:    0.0000
     atom:   87    charge:    2.4846    magn:    0.0133    constr:    0.0000
     atom:   88    charge:    2.4785    magn:    0.0137    constr:    0.0000
     atom:   89    charge:    7.4467    magn:    1.2225    constr:    0.0000
     atom:   90    charge:    7.4434    magn:    1.2223    constr:    0.0000
     atom:   91    charge:    7.4468    magn:    1.2225    constr:    0.0000
     atom:   92    charge:    7.4434    magn:    1.2223    constr:    0.0000
     atom:   93    charge:    3.2818    magn:    0.0582    constr:    0.0000
     atom:   94    charge:    3.2915    magn:    0.0606    constr:    0.0000
     atom:   95    charge:    3.2841    magn:    0.0576    constr:    0.0000
     atom:   96    charge:    3.2838    magn:    0.0583    constr:    0.0000
     atom:   97    charge:    3.2668    magn:    0.0607    constr:    0.0000
     atom:   98    charge:    3.2903    magn:    0.0619    constr:    0.0000
     atom:   99    charge:    3.2879    magn:    0.0604    constr:    0.0000
     atom:  100    charge:    3.2711    magn:    0.0598    constr:    0.0000
     atom:  101    charge:    3.2818    magn:    0.0582    constr:    0.0000
     atom:  102    charge:    3.2915    magn:    0.0606    constr:    0.0000
     atom:  103    charge:    3.2841    magn:    0.0576    constr:    0.0000
     atom:  104    charge:    3.2838    magn:    0.0584    constr:    0.0000
     atom:  105    charge:    3.2668    magn:    0.0607    constr:    0.0000
     atom:  106    charge:    3.2903    magn:    0.0619    constr:    0.0000
     atom:  107    charge:    3.2879    magn:    0.0604    constr:    0.0000
     atom:  108    charge:    3.2711    magn:    0.0598    constr:    0.0000

     total cpu time spent up to now is    12149.0 secs

     End of self-consistent calculation

 ------ SPIN UP ------------


          k = 0.0000 0.0000 0.0000 ( 91663 PWs)   bands (ev):

   -22.4718 -22.4692 -22.4484 -22.4458 -22.3626 -22.3622 -22.3438 -22.3436
   -19.6502 -19.6493 -19.6477 -19.6438 -19.6417 -19.6407 -19.6289 -19.6240
   -19.4016 -19.3947 -19.3742 -19.3722 -19.2901 -19.2877 -19.2705 -19.2696
   -15.8032 -15.7615 -15.7534 -15.7344 -15.7255 -15.7251 -15.7185 -15.7025
   -14.5850 -14.5737 -14.5702 -14.5660 -14.5473 -14.5370 -14.5218 -14.4774
   -12.0539 -11.9783 -11.9768 -11.9747 -11.9514 -11.9188 -11.9161 -11.9125
   -11.4257 -11.4000 -11.3813 -11.3809 -11.3711 -11.3412 -11.3285 -11.3139
    -9.7641  -9.5483  -9.5401  -9.5349  -9.5131  -9.4543  -9.4383  -9.4325
    -8.4828  -8.1312  -8.1252  -8.0455  -8.0195  -7.9792  -7.9735  -7.9673
    -7.8158  -7.8048  -7.7958  -7.7863  -7.7499  -7.7283  -7.7266  -7.7213
    -7.1774  -7.1660  -7.1501  -7.1085  -7.1046  -7.0250  -6.9991  -6.9751
    -6.9663  -6.9206  -6.8967  -6.8430  -6.8170  -6.8105  -6.8086  -6.7723
    -6.7599  -6.7416  -6.7050  -6.6386  -6.6202  -6.6086  -6.5213  -6.4934
    -6.4929  -6.4877  -6.4855  -6.3179  -6.3031  -6.2477  -6.2368  -6.1798
    -6.1644  -6.1594  -6.1590  -6.0824  -6.0725  -6.0683  -6.0369  -5.9783
    -5.7422  -5.5664  -5.5347  -5.5215  -5.4383  -5.4253  -5.3521  -5.1233
    -4.8064  -4.7399  -4.7395  -4.7255  -4.7246  -4.6720  -4.6204  -4.6124
    -4.6071  -4.5865  -4.5213  -4.5135  -4.3010  -4.2607  -4.2117  -4.2052
    -3.9959  -3.9770  -3.9541  -3.9317  -3.7685  -3.7386  -3.6469  -3.6315
    -3.5419  -3.5225  -3.5102  -3.4782  -3.4580  -3.4347  -3.3698  -3.3527
    -3.2792  -3.1469  -3.1359  -2.9719  -2.8738  -2.8606  -2.8405  -2.8299
    -2.7468  -2.7249  -2.6969  -2.6778  -2.6752  -2.6550  -2.6351  -2.6301
    -2.5891  -2.5784  -2.5281  -2.5020  -2.4801  -2.4671  -2.4645  -2.4009
    -2.3848  -2.3489  -2.3219  -2.3093  -2.3055  -2.2139  -2.1761  -2.1447
    -2.1400  -2.1268  -2.1179  -2.0446  -0.8245  -0.7713  -0.7662  -0.7118
    -0.4791  -0.4444  -0.4192  -0.3939   1.5443   1.5474   1.6016   1.6131
     1.6186   1.6556   1.6701   1.7416   2.3296   2.6761   2.7371   2.7403
     2.7761   2.8250   2.8300   2.9558   3.0811   3.1497   3.1575   3.1640
     3.7490   3.8936   3.8976   4.0412   4.0887   4.1481   4.1568   4.2757
     4.2804   4.3026   4.3533   4.3572   4.3719   4.5796   4.5945   4.6831
     4.9055   4.9101   5.0201   5.2994   5.4804

 ------ SPIN DOWN ----------


          k = 0.0000 0.0000 0.0000 ( 91663 PWs)   bands (ev):

   -22.3691 -22.3664 -22.3443 -22.3418 -22.2604 -22.2600 -22.2403 -22.2401
   -19.5145 -19.5125 -19.5099 -19.5077 -19.5048 -19.5036 -19.4881 -19.4834
   -19.3682 -19.3618 -19.3406 -19.3392 -19.2572 -19.2538 -19.2372 -19.2358
   -15.7648 -15.7230 -15.7147 -15.6966 -15.6872 -15.6870 -15.6802 -15.6634
   -14.5445 -14.5331 -14.5297 -14.5254 -14.5065 -14.4963 -14.4809 -14.4361
   -12.0134 -11.9372 -11.9369 -11.9357 -11.9108 -11.8809 -11.8780 -11.8750
   -11.3972 -11.3719 -11.3537 -11.3530 -11.3429 -11.3138 -11.3010 -11.2868
    -9.7415  -9.5250  -9.5169  -9.5129  -9.4940  -9.4328  -9.4174  -9.4114
    -8.4296  -8.0758  -8.0694  -7.9879  -7.9802  -7.9292  -7.9254  -7.9221
    -7.7797  -7.7708  -7.7643  -7.7538  -7.6986  -7.6935  -7.6810  -7.6750
    -7.1547  -7.1426  -7.1055  -7.0940  -7.0911  -6.9943  -6.9618  -6.8813
    -6.8796  -6.8735  -6.8231  -6.7539  -6.7372  -6.7297  -6.7262  -6.6646
    -6.6502  -6.6492  -6.5880  -6.5694  -6.5205  -6.5076  -6.4205  -6.4043
    -6.3997  -6.3989  -6.3693  -6.2338  -6.1814  -6.1628  -6.1485  -6.1376
    -6.1327  -6.0963  -6.0884  -6.0200  -6.0130  -6.0119  -5.9819  -5.9527
    -5.6605  -5.4696  -5.4357  -5.4234  -5.3410  -5.3288  -5.2599  -5.0298
    -4.6818  -4.6685  -4.6607  -4.6060  -4.5519  -4.5431  -4.5417  -4.5080
    -4.4998  -4.3699  -4.3576  -4.1390  -3.8758  -3.8311  -3.8085  -3.7962
    -3.7806  -3.6633  -3.6303  -3.4149  -3.3769  -3.2955  -3.1814  -3.1743
    -3.0811  -3.0410  -2.9954  -2.9761  -2.9216  -2.9158  -2.9093  -2.9004
    -2.8335  -2.7797  -2.7620  -2.6402  -2.6272  -2.6100  -2.6021  -2.5747
    -2.5443  -2.5181  -2.4733  -2.4587  -2.3882  -2.3688  -2.2921  -2.2749
    -2.1977  -2.1458  -2.0931  -2.0469  -2.0425  -2.0149  -2.0068  -1.9354
    -1.8904  -1.7076  -1.7041  -1.6350  -1.6295  -1.6208  -1.6203  -1.5941
    -1.5618  -1.4918  -1.4780  -1.4392   0.0879   0.1302   0.1337   0.1763
     0.3519   0.3848   0.4190   0.4271   1.6516   1.6549   1.6984   1.7315
     1.7368   1.7796   1.8033   1.8500   2.3006   2.7818   2.8446   2.8477
     2.8572   2.9118   2.9151   3.0654   3.0912   3.1419   3.1450   3.2829
     3.7384   3.8931   3.8976   4.0477   4.1485   4.1509   4.1560   4.3265
     4.3296   4.3738   4.4087   4.4232   4.4245   4.5832   4.6413   4.6840
     4.9031   4.9073   5.0294   5.3222   5.4929

     the spin up/dw Fermi energies are    -0.1430   -0.4399 ev

!    total energy              =   -1643.94159311 Ry
     Harris-Foulkes estimate   =   -1643.94159271 Ry
     estimated scf accuracy    <       0.00000001 Ry

     The total energy is the sum of the following terms:

     one-electron contribution =   -2412.10483571 Ry
     hartree contribution      =    1351.06765377 Ry
     xc contribution           =    -516.86227961 Ry
     ewald contribution        =     -68.18773809 Ry
     Dispersion Correction     =      -0.41616122 Ry
     smearing contrib. (-TS)   =       2.56176775 Ry

     total magnetization       =     8.00 Bohr mag/cell
     absolute magnetization    =     8.29 Bohr mag/cell

     convergence has been achieved in  13 iterations

 %%%%%%%%%%%%%%%%%%%%%%%%%%%%%%%%%%%%%%%%%%%%%%%%%%%%%%%%%%%%%%%%%%%%%%%%%%%%%%
     Error in routine create_directory (1):
     unable to create directory ./QE_relaxation_results/VDW_relax/NiPyC2_relax_sc211/NiPyC2_sc211_vdw-df2_relax.save/
 %%%%%%%%%%%%%%%%%%%%%%%%%%%%%%%%%%%%%%%%%%%%%%%%%%%%%%%%%%%%%%%%%%%%%%%%%%%%%%

     stopping ...

 %%%%%%%%%%%%%%%%%%%%%%%%%%%%%%%%%%%%%%%%%%%%%%%%%%%%%%%%%%%%%%%%%%%%%%%%%%%%%%
     Error in routine create_directory (1):
     unable to create directory ./QE_relaxation_results/VDW_relax/NiPyC2_relax_sc211/NiPyC2_sc211_vdw-df2_relax.save/
 %%%%%%%%%%%%%%%%%%%%%%%%%%%%%%%%%%%%%%%%%%%%%%%%%%%%%%%%%%%%%%%%%%%%%%%%%%%%%%

     stopping ...

 %%%%%%%%%%%%%%%%%%%%%%%%%%%%%%%%%%%%%%%%%%%%%%%%%%%%%%%%%%%%%%%%%%%%%%%%%%%%%%
     Error in routine create_directory (1):
     unable to create directory ./QE_relaxation_results/VDW_relax/NiPyC2_relax_sc211/NiPyC2_sc211_vdw-df2_relax.save/
 %%%%%%%%%%%%%%%%%%%%%%%%%%%%%%%%%%%%%%%%%%%%%%%%%%%%%%%%%%%%%%%%%%%%%%%%%%%%%%

     stopping ...

 %%%%%%%%%%%%%%%%%%%%%%%%%%%%%%%%%%%%%%%%%%%%%%%%%%%%%%%%%%%%%%%%%%%%%%%%%%%%%%
     Error in routine create_directory (1):
     unable to create directory ./QE_relaxation_results/VDW_relax/NiPyC2_relax_sc211/NiPyC2_sc211_vdw-df2_relax.save/
 %%%%%%%%%%%%%%%%%%%%%%%%%%%%%%%%%%%%%%%%%%%%%%%%%%%%%%%%%%%%%%%%%%%%%%%%%%%%%%

     stopping ...

 %%%%%%%%%%%%%%%%%%%%%%%%%%%%%%%%%%%%%%%%%%%%%%%%%%%%%%%%%%%%%%%%%%%%%%%%%%%%%%
     Error in routine create_directory (1):
     unable to create directory ./QE_relaxation_results/VDW_relax/NiPyC2_relax_sc211/NiPyC2_sc211_vdw-df2_relax.save/
 %%%%%%%%%%%%%%%%%%%%%%%%%%%%%%%%%%%%%%%%%%%%%%%%%%%%%%%%%%%%%%%%%%%%%%%%%%%%%%

     stopping ...

 %%%%%%%%%%%%%%%%%%%%%%%%%%%%%%%%%%%%%%%%%%%%%%%%%%%%%%%%%%%%%%%%%%%%%%%%%%%%%%
     Error in routine create_directory (1):
     unable to create directory ./QE_relaxation_results/VDW_relax/NiPyC2_relax_sc211/NiPyC2_sc211_vdw-df2_relax.save/
 %%%%%%%%%%%%%%%%%%%%%%%%%%%%%%%%%%%%%%%%%%%%%%%%%%%%%%%%%%%%%%%%%%%%%%%%%%%%%%

     stopping ...

 %%%%%%%%%%%%%%%%%%%%%%%%%%%%%%%%%%%%%%%%%%%%%%%%%%%%%%%%%%%%%%%%%%%%%%%%%%%%%%
     Error in routine create_directory (1):
     unable to create directory ./QE_relaxation_results/VDW_relax/NiPyC2_relax_sc211/NiPyC2_sc211_vdw-df2_relax.save/
 %%%%%%%%%%%%%%%%%%%%%%%%%%%%%%%%%%%%%%%%%%%%%%%%%%%%%%%%%%%%%%%%%%%%%%%%%%%%%%

     stopping ...

 %%%%%%%%%%%%%%%%%%%%%%%%%%%%%%%%%%%%%%%%%%%%%%%%%%%%%%%%%%%%%%%%%%%%%%%%%%%%%%
     Error in routine create_directory (1):
     unable to create directory ./QE_relaxation_results/VDW_relax/NiPyC2_relax_sc211/NiPyC2_sc211_vdw-df2_relax.save/
 %%%%%%%%%%%%%%%%%%%%%%%%%%%%%%%%%%%%%%%%%%%%%%%%%%%%%%%%%%%%%%%%%%%%%%%%%%%%%%

     stopping ...

 %%%%%%%%%%%%%%%%%%%%%%%%%%%%%%%%%%%%%%%%%%%%%%%%%%%%%%%%%%%%%%%%%%%%%%%%%%%%%%
     Error in routine create_directory (1):
     unable to create directory ./QE_relaxation_results/VDW_relax/NiPyC2_relax_sc211/NiPyC2_sc211_vdw-df2_relax.save/
 %%%%%%%%%%%%%%%%%%%%%%%%%%%%%%%%%%%%%%%%%%%%%%%%%%%%%%%%%%%%%%%%%%%%%%%%%%%%%%

     stopping ...

 %%%%%%%%%%%%%%%%%%%%%%%%%%%%%%%%%%%%%%%%%%%%%%%%%%%%%%%%%%%%%%%%%%%%%%%%%%%%%%
     Error in routine create_directory (1):
     unable to create directory ./QE_relaxation_results/VDW_relax/NiPyC2_relax_sc211/NiPyC2_sc211_vdw-df2_relax.save/
 %%%%%%%%%%%%%%%%%%%%%%%%%%%%%%%%%%%%%%%%%%%%%%%%%%%%%%%%%%%%%%%%%%%%%%%%%%%%%%

     stopping ...

 %%%%%%%%%%%%%%%%%%%%%%%%%%%%%%%%%%%%%%%%%%%%%%%%%%%%%%%%%%%%%%%%%%%%%%%%%%%%%%
     Error in routine create_directory (1):
     unable to create directory ./QE_relaxation_results/VDW_relax/NiPyC2_relax_sc211/NiPyC2_sc211_vdw-df2_relax.save/
 %%%%%%%%%%%%%%%%%%%%%%%%%%%%%%%%%%%%%%%%%%%%%%%%%%%%%%%%%%%%%%%%%%%%%%%%%%%%%%

     stopping ...

 %%%%%%%%%%%%%%%%%%%%%%%%%%%%%%%%%%%%%%%%%%%%%%%%%%%%%%%%%%%%%%%%%%%%%%%%%%%%%%
     Error in routine create_directory (1):
     unable to create directory ./QE_relaxation_results/VDW_relax/NiPyC2_relax_sc211/NiPyC2_sc211_vdw-df2_relax.save/
 %%%%%%%%%%%%%%%%%%%%%%%%%%%%%%%%%%%%%%%%%%%%%%%%%%%%%%%%%%%%%%%%%%%%%%%%%%%%%%

     stopping ...

 %%%%%%%%%%%%%%%%%%%%%%%%%%%%%%%%%%%%%%%%%%%%%%%%%%%%%%%%%%%%%%%%%%%%%%%%%%%%%%
     Error in routine create_directory (1):
     unable to create directory ./QE_relaxation_results/VDW_relax/NiPyC2_relax_sc211/NiPyC2_sc211_vdw-df2_relax.save/
 %%%%%%%%%%%%%%%%%%%%%%%%%%%%%%%%%%%%%%%%%%%%%%%%%%%%%%%%%%%%%%%%%%%%%%%%%%%%%%

     stopping ...

 %%%%%%%%%%%%%%%%%%%%%%%%%%%%%%%%%%%%%%%%%%%%%%%%%%%%%%%%%%%%%%%%%%%%%%%%%%%%%%
     Error in routine create_directory (1):
     unable to create directory ./QE_relaxation_results/VDW_relax/NiPyC2_relax_sc211/NiPyC2_sc211_vdw-df2_relax.save/
 %%%%%%%%%%%%%%%%%%%%%%%%%%%%%%%%%%%%%%%%%%%%%%%%%%%%%%%%%%%%%%%%%%%%%%%%%%%%%%

     stopping ...

 %%%%%%%%%%%%%%%%%%%%%%%%%%%%%%%%%%%%%%%%%%%%%%%%%%%%%%%%%%%%%%%%%%%%%%%%%%%%%%
     Error in routine create_directory (1):
     unable to create directory ./QE_relaxation_results/VDW_relax/NiPyC2_relax_sc211/NiPyC2_sc211_vdw-df2_relax.save/
 %%%%%%%%%%%%%%%%%%%%%%%%%%%%%%%%%%%%%%%%%%%%%%%%%%%%%%%%%%%%%%%%%%%%%%%%%%%%%%

     stopping ...

 %%%%%%%%%%%%%%%%%%%%%%%%%%%%%%%%%%%%%%%%%%%%%%%%%%%%%%%%%%%%%%%%%%%%%%%%%%%%%%
     Error in routine create_directory (1):
     unable to create directory ./QE_relaxation_results/VDW_relax/NiPyC2_relax_sc211/NiPyC2_sc211_vdw-df2_relax.save/
 %%%%%%%%%%%%%%%%%%%%%%%%%%%%%%%%%%%%%%%%%%%%%%%%%%%%%%%%%%%%%%%%%%%%%%%%%%%%%%

     stopping ...

 %%%%%%%%%%%%%%%%%%%%%%%%%%%%%%%%%%%%%%%%%%%%%%%%%%%%%%%%%%%%%%%%%%%%%%%%%%%%%%
     Error in routine create_directory (1):
     unable to create directory ./QE_relaxation_results/VDW_relax/NiPyC2_relax_sc211/NiPyC2_sc211_vdw-df2_relax.save/
 %%%%%%%%%%%%%%%%%%%%%%%%%%%%%%%%%%%%%%%%%%%%%%%%%%%%%%%%%%%%%%%%%%%%%%%%%%%%%%

     stopping ...

 %%%%%%%%%%%%%%%%%%%%%%%%%%%%%%%%%%%%%%%%%%%%%%%%%%%%%%%%%%%%%%%%%%%%%%%%%%%%%%
     Error in routine create_directory (1):
     unable to create directory ./QE_relaxation_results/VDW_relax/NiPyC2_relax_sc211/NiPyC2_sc211_vdw-df2_relax.save/
 %%%%%%%%%%%%%%%%%%%%%%%%%%%%%%%%%%%%%%%%%%%%%%%%%%%%%%%%%%%%%%%%%%%%%%%%%%%%%%

     stopping ...

 %%%%%%%%%%%%%%%%%%%%%%%%%%%%%%%%%%%%%%%%%%%%%%%%%%%%%%%%%%%%%%%%%%%%%%%%%%%%%%
     Error in routine create_directory (1):
     unable to create directory ./QE_relaxation_results/VDW_relax/NiPyC2_relax_sc211/NiPyC2_sc211_vdw-df2_relax.save/
 %%%%%%%%%%%%%%%%%%%%%%%%%%%%%%%%%%%%%%%%%%%%%%%%%%%%%%%%%%%%%%%%%%%%%%%%%%%%%%

     stopping ...

 %%%%%%%%%%%%%%%%%%%%%%%%%%%%%%%%%%%%%%%%%%%%%%%%%%%%%%%%%%%%%%%%%%%%%%%%%%%%%%
     Error in routine create_directory (1):
     unable to create directory ./QE_relaxation_results/VDW_relax/NiPyC2_relax_sc211/NiPyC2_sc211_vdw-df2_relax.save/
 %%%%%%%%%%%%%%%%%%%%%%%%%%%%%%%%%%%%%%%%%%%%%%%%%%%%%%%%%%%%%%%%%%%%%%%%%%%%%%

     stopping ...

 %%%%%%%%%%%%%%%%%%%%%%%%%%%%%%%%%%%%%%%%%%%%%%%%%%%%%%%%%%%%%%%%%%%%%%%%%%%%%%
     Error in routine create_directory (1):
     unable to create directory ./QE_relaxation_results/VDW_relax/NiPyC2_relax_sc211/NiPyC2_sc211_vdw-df2_relax.save/
 %%%%%%%%%%%%%%%%%%%%%%%%%%%%%%%%%%%%%%%%%%%%%%%%%%%%%%%%%%%%%%%%%%%%%%%%%%%%%%

     stopping ...

 %%%%%%%%%%%%%%%%%%%%%%%%%%%%%%%%%%%%%%%%%%%%%%%%%%%%%%%%%%%%%%%%%%%%%%%%%%%%%%
     Error in routine create_directory (1):
     unable to create directory ./QE_relaxation_results/VDW_relax/NiPyC2_relax_sc211/NiPyC2_sc211_vdw-df2_relax.save/
 %%%%%%%%%%%%%%%%%%%%%%%%%%%%%%%%%%%%%%%%%%%%%%%%%%%%%%%%%%%%%%%%%%%%%%%%%%%%%%

     stopping ...

 %%%%%%%%%%%%%%%%%%%%%%%%%%%%%%%%%%%%%%%%%%%%%%%%%%%%%%%%%%%%%%%%%%%%%%%%%%%%%%
     Error in routine create_directory (1):
     unable to create directory ./QE_relaxation_results/VDW_relax/NiPyC2_relax_sc211/NiPyC2_sc211_vdw-df2_relax.save/
 %%%%%%%%%%%%%%%%%%%%%%%%%%%%%%%%%%%%%%%%%%%%%%%%%%%%%%%%%%%%%%%%%%%%%%%%%%%%%%

     stopping ...

 %%%%%%%%%%%%%%%%%%%%%%%%%%%%%%%%%%%%%%%%%%%%%%%%%%%%%%%%%%%%%%%%%%%%%%%%%%%%%%
     Error in routine create_directory (1):
     unable to create directory ./QE_relaxation_results/VDW_relax/NiPyC2_relax_sc211/NiPyC2_sc211_vdw-df2_relax.save/
 %%%%%%%%%%%%%%%%%%%%%%%%%%%%%%%%%%%%%%%%%%%%%%%%%%%%%%%%%%%%%%%%%%%%%%%%%%%%%%

     stopping ...

 %%%%%%%%%%%%%%%%%%%%%%%%%%%%%%%%%%%%%%%%%%%%%%%%%%%%%%%%%%%%%%%%%%%%%%%%%%%%%%
     Error in routine create_directory (1):
     unable to create directory ./QE_relaxation_results/VDW_relax/NiPyC2_relax_sc211/NiPyC2_sc211_vdw-df2_relax.save/
 %%%%%%%%%%%%%%%%%%%%%%%%%%%%%%%%%%%%%%%%%%%%%%%%%%%%%%%%%%%%%%%%%%%%%%%%%%%%%%

     stopping ...

 %%%%%%%%%%%%%%%%%%%%%%%%%%%%%%%%%%%%%%%%%%%%%%%%%%%%%%%%%%%%%%%%%%%%%%%%%%%%%%
     Error in routine create_directory (1):
     unable to create directory ./QE_relaxation_results/VDW_relax/NiPyC2_relax_sc211/NiPyC2_sc211_vdw-df2_relax.save/
 %%%%%%%%%%%%%%%%%%%%%%%%%%%%%%%%%%%%%%%%%%%%%%%%%%%%%%%%%%%%%%%%%%%%%%%%%%%%%%

     stopping ...

 %%%%%%%%%%%%%%%%%%%%%%%%%%%%%%%%%%%%%%%%%%%%%%%%%%%%%%%%%%%%%%%%%%%%%%%%%%%%%%
     Error in routine create_directory (1):
     unable to create directory ./QE_relaxation_results/VDW_relax/NiPyC2_relax_sc211/NiPyC2_sc211_vdw-df2_relax.save/
 %%%%%%%%%%%%%%%%%%%%%%%%%%%%%%%%%%%%%%%%%%%%%%%%%%%%%%%%%%%%%%%%%%%%%%%%%%%%%%

     stopping ...

 %%%%%%%%%%%%%%%%%%%%%%%%%%%%%%%%%%%%%%%%%%%%%%%%%%%%%%%%%%%%%%%%%%%%%%%%%%%%%%
     Error in routine create_directory (1):
     unable to create directory ./QE_relaxation_results/VDW_relax/NiPyC2_relax_sc211/NiPyC2_sc211_vdw-df2_relax.save/
 %%%%%%%%%%%%%%%%%%%%%%%%%%%%%%%%%%%%%%%%%%%%%%%%%%%%%%%%%%%%%%%%%%%%%%%%%%%%%%

     stopping ...

 %%%%%%%%%%%%%%%%%%%%%%%%%%%%%%%%%%%%%%%%%%%%%%%%%%%%%%%%%%%%%%%%%%%%%%%%%%%%%%
     Error in routine create_directory (1):

 %%%%%%%%%%%%%%%%%%%%%%%%%%%%%%%%%%%%%%%%%%%%%%%%%%%%%%%%%%%%%%%%%%%%%%%%%%%%%%
     Error in routine create_directory (1):

 %%%%%%%%%%%%%%%%%%%%%%%%%%%%%%%%%%%%%%%%%%%%%%%%%%%%%%%%%%%%%%%%%%%%%%%%%%%%%%
     Error in routine create_directory (1):
     unable to create directory ./QE_relaxation_results/VDW_relax/NiPyC2_relax_sc211/NiPyC2_sc211_vdw-df2_relax.save/
 %%%%%%%%%%%%%%%%%%%%%%%%%%%%%%%%%%%%%%%%%%%%%%%%%%%%%%%%%%%%%%%%%%%%%%%%%%%%%%

     stopping ...

 %%%%%%%%%%%%%%%%%%%%%%%%%%%%%%%%%%%%%%%%%%%%%%%%%%%%%%%%%%%%%%%%%%%%%%%%%%%%%%
     Error in routine create_directory (1):
     unable to create directory ./QE_relaxation_results/VDW_relax/NiPyC2_relax_sc211/NiPyC2_sc211_vdw-df2_relax.save/
 %%%%%%%%%%%%%%%%%%%%%%%%%%%%%%%%%%%%%%%%%%%%%%%%%%%%%%%%%%%%%%%%%%%%%%%%%%%%%%

     unable to create directory ./QE_relaxation_results/VDW_relax/NiPyC2_relax_sc211/NiPyC2_sc211_vdw-df2_relax.save/
 %%%%%%%%%%%%%%%%%%%%%%%%%%%%%%%%%%%%%%%%%%%%%%%%%%%%%%%%%%%%%%%%%%%%%%%%%%%%%%

     stopping ...
     stopping ...
     unable to create directory ./QE_relaxation_results/VDW_relax/NiPyC2_relax_sc211/NiPyC2_sc211_vdw-df2_relax.save/
 %%%%%%%%%%%%%%%%%%%%%%%%%%%%%%%%%%%%%%%%%%%%%%%%%%%%%%%%%%%%%%%%%%%%%%%%%%%%%%

     stopping ...
QE finished Tue Jun 9 13:58:12 PDT 2020
