ITEM: TIMESTEP
0
ITEM: NUMBER OF ATOMS
204
ITEM: BOX BOUNDS xy xz yz pp pp pp
-2.2759399999999999e-01 1.2505599999999999e+01 0.0000000000000000e+00
0.0000000000000000e+00 1.2523400000000001e+01 -2.2759399999999999e-01
0.0000000000000000e+00 1.0274279000000000e+01 0.0000000000000000e+00
ITEM: ATOMS id type x y z
1 1 2.9549 9.3788 9.26116
2 1 6.64784 3.2653 4.17996
3 2 0.396371 4.23989 4.00521
4 2 4.24552 8.08028 9.44911
5 2 6.78643 1.72667 5.19753
6 2 1.68331 10.6127 9.44865
7 2 6.7009 4.2277 5.7167
8 2 2.80263 8.30202 0.45398
9 2 11.6552 2.21863 5.10585
10 2 3.64486 10.6588 0.373786
11 3 3.79762 10.6146 7.73634
12 3 12.397 1.73999 2.72311
13 3 2.01739 8.01535 7.8046
14 3 6.31023 4.96156 3.16026
15 4 4.6579 11.0806 5.4664
16 4 1.00434 0.979027 0.760087
17 5 4.69664 10.7661 4.42999
18 5 7.96517 2.84786 9.71979
19 4 5.23476 12.3169 5.85142
20 4 1.55654 12.2847 1.21855
21 4 4.92821 0.177455 7.13334
22 4 1.12605 12.0523 2.54533
23 5 11.7966 0.192401 6.10968
24 5 1.42427 11.128 3.01732
25 4 1.05207 7.43245 5.50536
26 4 5.63901 5.74309 0.964104
27 5 0.958902 7.7648 4.48635
28 5 9.56016 4.74457 9.30688
29 4 1.97466 8.1906 6.41529
30 4 6.62058 5.12963 1.8606
31 5 2.87661 8.40131 5.96156
32 4 3.71592 10.4433 6.36509
33 4 12.3736 1.60004 1.39542
34 5 2.7669 10.3269 5.93995
35 4 4.68586 11.6433 8.09086
36 4 0.695226 0.74021 3.3594
37 4 1.30064 6.88302 8.18541
38 4 5.29497 5.80526 3.60902
39 4 1.00578 5.79173 7.17704
40 4 4.88178 6.95602 2.7633
41 5 6.13931 6.36718 6.50769
42 5 4.52135 7.88101 3.19211
43 4 0.576665 6.12868 5.87198
44 4 4.76597 6.73172 1.39299
45 4 6.02866 0.667331 4.85851
46 4 2.42873 11.2475 0.213221
47 4 12.288 5.07657 4.85602
48 4 3.96386 7.64538 0.307593
49 1 9.23875 9.81674 9.05925
50 1 11.4407 3.22476 3.77238
51 2 8.33911 3.86304 4.58169
52 2 9.40088 8.07475 8.6305
53 2 9.93399 2.25547 3.77523
54 2 9.29474 11.3946 10.0483
55 2 10.9867 4.61242 4.9443
56 2 9.57033 8.85484 0.330681
57 2 6.78727 1.72549 5.19937
58 2 9.29075 11.3884 10.0325
59 3 9.67329 10.8307 7.36149
60 3 7.09377 2.14723 2.51778
61 3 8.82563 8.10653 7.67518
62 3 10.798 4.36468 2.25849
63 4 9.27042 11.8314 5.14467
64 4 8.02981 2.22063 0.304699
65 5 9.25081 11.5693 4.10173
66 5 1.6303 1.61019 0.243566
67 4 9.9548 0.456971 5.58784
68 4 8.84719 1.09968 0.509123
69 4 10.8256 0.174637 6.50025
70 4 8.86546 0.629484 1.79705
71 5 5.1952 1.13657 7.42056
72 5 9.5803 12.3911 2.08069
73 4 9.28433 6.82871 5.61607
74 4 9.93365 5.00516 0.0557985
75 5 9.89657 6.71947 4.76984
76 5 5.45308 5.36425 0.0165389
77 4 9.45302 7.9967 6.35737
78 4 10.503 4.00403 0.966483
79 5 10.2281 8.67336 6.05152
80 5 7.54711 4.73732 1.50791
81 4 9.04 10.7906 6.10314
82 4 6.88625 2.418 1.17989
83 5 8.33841 10.0303 5.84971
84 5 11.4306 1.61812 0.89282
85 4 10.64 11.777 7.49307
86 4 7.91626 1.06009 2.72684
87 5 8.07828 0.715805 3.66994
88 4 7.4744 7.5699 7.61341
89 4 10.1081 5.45691 2.67965
90 5 9.38463 5.3202 3.40779
91 4 7.09337 6.82979 6.46304
92 4 9.88139 6.54257 1.87142
93 5 0.759167 4.80198 7.51616
94 5 9.44228 7.42349 2.32258
95 4 8.08808 6.13582 5.75488
96 4 9.81871 6.38149 0.504568
97 4 10.4876 1.6331 4.7917
98 4 8.98286 0.0994571 9.66803
99 4 7.90401 4.61166 5.60005
100 4 9.60322 7.7488 9.97509
101 6 5.8982 11.2327 8.81332
102 6 5.63853 9.95651 9.24535
103 5 5.76607 9.16504 8.49081
104 5 5.65963 9.79983 0.0493634
105 5 5.65927 9.79982 0.0492733
106 6 6.38984 11.9242 10.0209
107 5 6.06578 11.7935 0.66672
108 5 7.36912 11.3354 0.253731
109 5 6.57127 0.38624 9.6827
110 6 6.98715 11.0927 7.82308
111 5 6.63826 10.543 6.92806
112 5 7.42205 12.0789 7.5478
113 5 7.68236 10.3992 8.23484
114 6 1.74682 1.13312 4.43363
115 6 1.68975 2.34142 5.45091
116 5 1.93816 3.33024 5.17628
117 5 2.43289 2.11912 6.21407
118 5 0.919383 2.43591 6.21485
119 6 1.77059 12.5233 5.38496
120 5 1.22364 0.22638 6.25956
121 5 2.72999 0.01476 5.85025
122 5 1.41929 11.5556 5.02533
123 6 3.10786 1.09839 3.69041
124 5 2.95974 1.39958 2.67212
125 5 3.53441 0.079232 3.60404
126 5 3.87917 1.73521 4.0716
127 6 0.110539 7.13251 9.01161
128 6 0.139954 8.08354 10.1718
129 5 0.671175 8.85623 9.79116
130 5 11.9471 8.43425 0.291754
131 5 0.725096 7.74321 0.851209
132 6 12.1844 5.85512 9.57985
133 5 0.516061 5.23219 9.69049
134 5 12.1206 5.91954 0.347194
135 5 11.537 5.33223 8.8787
136 6 11.6821 7.64595 7.95817
137 5 12.0132 8.06462 7.03506
138 5 11.0475 6.82141 7.59307
139 5 11.3381 8.63846 8.17963
140 6 4.15325 5.19838 4.4279
141 6 4.40682 4.02562 5.33884
142 5 3.92863 3.1521 5.63033
143 5 4.69451 4.33833 6.3617
144 5 4.9249 3.36792 4.69428
145 6 3.0542 4.76984 3.50278
146 5 3.44132 4.86231 2.54759
147 5 2.84312 3.70549 3.45829
148 5 2.17882 5.4259 3.53342
149 6 3.70079 6.31738 5.23316
150 5 4.48991 6.95659 5.5958
151 5 3.16228 6.97998 4.54832
152 5 3.131 5.97017 6.07554
153 6 11.8857 11.5201 8.26512
154 6 11.7042 10.9306 9.67927
155 5 11.0828 10.0845 9.56907
156 5 11.6698 11.7168 0.132707
157 5 0.0617582 10.566 0.184793
158 6 -0.0411616 0.373289 8.51382
159 5 11.7159 0.865124 9.13929
160 5 0.923995 0.238409 8.89006
161 5 0.121645 1.12596 7.73907
162 6 0.258685 10.6737 7.32999
163 5 -0.123902 10.4926 6.29962
164 5 1.2688 11.0414 7.29339
165 5 0.456627 9.74574 7.76672
166 6 5.44601 2.32418 0.537132
167 6 4.5062 3.25771 1.2098
168 5 4.03657 3.98424 0.539391
169 5 3.56503 2.88857 1.50606
170 5 4.8617 3.41126 2.22353
171 6 4.62603 1.03587 0.623829
172 5 4.76914 0.49046 1.57645
173 5 3.56776 1.15367 0.542178
174 5 4.3318 0.523139 9.95751
175 6 5.41193 2.69324 9.33795
176 5 5.8265 3.63175 9.3641
177 5 6.19091 2.16953 8.78066
178 5 4.57844 2.72539 8.688
179 7 6.97949 6.9952 8.85622
180 6 7.00517 7.75197 10.1756
181 5 7.36235 8.75117 10.0444
182 5 6.37518 7.96469 0.403031
183 5 7.65933 7.26415 0.768411
184 6 7.09568 5.55484 8.85718
185 5 7.86269 5.14747 8.1967
186 5 7.32604 5.1574 9.81432
187 5 6.15873 5.28686 8.39686
188 8 6.98633 8.71768 4.0424
189 9 7.064 11.0536 2.97941
190 9 4.25146 6.69133 7.73437
191 9 5.38661 8.66982 6.38935
192 8 -0.157173 3.1109 9.33083
193 8 2.33995 2.44309 8.59629
194 9 10.077 2.33983 9.2512
195 9 1.66734 3.20986 1.76892
196 9 0.370055 4.64399 1.77189
197 8 2.11732 5.90178 1.10707
198 9 0.143722 6.88932 2.72053
199 9 4.20278 4.77664 8.42555
200 9 2.43996 4.81004 9.30129
201 8 10.569 3.58216 7.23782
202 9 8.64454 1.90385 7.5798
203 9 2.72803 4.18034 7.10321
204 9 2.62125 0.191346 7.97767
