204
Atoms. Timestep: 0
Ni 2.89857 9.41116 8.59265
Ni 6.17525 3.10579 3.48481
O 1.44827 4.35425 3.93374
O 4.4416 8.15245 9.05464
O 4.63665 1.84729 3.87523
O 1.36499 10.6744 9.00295
O 5.80609 4.46033 4.96242
O 2.54244 8.0327 10.0675
O 0.25117 1.69264 4.94273
O 3.23722 10.8047 10.0626
N 3.69677 10.6606 7.2416
N 0.71256 1.8642 2.11704
N 2.17217 8.14409 7.25198
N 5.44023 4.39481 2.13747
C 3.48546 12.1483 5.36301
C 0.47488 0.38955 0.2292
H 2.86453 12.5181 4.55267
H 5.86971 0.03371 9.69377
C 4.76073 0.1474 5.61481
C 1.74333 12.3699 0.47412
C 5.50345 12.1502 6.68209
C 2.49852 0.35508 1.54004
H 0.24768 12.5084 6.91993
C 2.48363 6.6337 5.40822
C 5.72803 5.90364 0.28669
H 3.13294 6.27291 4.61605
H -0.10828 6.26667 9.7662
C 2.92756 7.68099 6.23068
C 6.1883 4.86756 1.11596
H 3.89994 8.14655 6.0889
H 0.91589 4.41889 0.97634
C 2.98256 11.1359 6.19748
C -0.01036 1.40553 1.07106
H 1.99392 10.709 6.04703
H 5.26093 1.85011 0.92351
C 4.93641 11.1381 7.47507
C 1.94823 1.3719 2.3406
H 5.48559 10.7097 8.30944
H 2.50886 1.79214 3.17267
C 0.94573 7.62654 7.47302
C 4.21083 4.90458 2.35686
H 0.36328 8.05184 8.28732
H 3.63605 4.47744 3.17528
C 0.43859 6.57577 6.69176
C 3.68763 5.945 1.56944
H 5.70774 6.17693 6.91975
H 2.69824 6.32683 1.80071
C 1.22745 6.06471 5.65205
C 4.46338 6.45777 0.52027
C 5.3126 1.24381 4.79419
C 2.0502 11.2675 9.92158
C 0.73548 4.94016 4.83586
C 3.73174 7.56629 9.95688
Ni 9.15137 9.41116 8.59265
Ni 12.4281 3.10579 3.48481
O 7.70109 4.35425 3.93374
O 10.6944 8.15245 9.05464
O 10.8895 1.84729 3.87523
O 7.61779 10.6744 9.00295
O 12.0589 4.46033 4.96242
O 8.79524 8.0327 10.0675
O 6.50397 1.69264 4.94273
O 9.49002 10.8047 10.0626
N 9.94957 10.6606 7.2416
N 6.96536 1.8642 2.11704
N 8.42499 8.14409 7.25198
N 11.693 4.39481 2.13747
C 9.73826 12.1483 5.36301
C 6.72768 0.38955 0.2292
H 12.1225 0.03371 9.69377
C 11.0135 0.1474 5.61481
C 7.99613 12.3699 0.47412
C 11.7562 12.1502 6.68209
C 8.75132 0.35508 1.54004
C 8.73644 6.6337 5.40822
C 11.9808 5.90364 0.28669
C 9.18036 7.68099 6.23068
C 12.4411 4.86756 1.11596
H 10.1527 8.14655 6.0889
H 7.16869 4.41889 0.97634
C 9.23536 11.1359 6.19748
C 6.24244 1.40553 1.07106
H 8.24672 10.709 6.04703
H 11.5137 1.85011 0.92351
C 11.1892 11.1381 7.47507
C 8.20102 1.3719 2.3406
H 11.7384 10.7097 8.30944
H 8.76167 1.79214 3.17267
C 7.19853 7.62654 7.47302
C 10.4636 4.90458 2.35686
H 6.61608 8.05184 8.28732
H 9.88885 4.47744 3.17528
C 6.69139 6.57577 6.69176
C 9.94043 5.945 1.56944
C 7.48025 6.06471 5.65205
C 10.7162 6.45777 0.52027
C 11.5654 1.24381 4.79419
C 8.303 11.2675 9.92158
C 6.98827 4.94016 4.83586
C 9.98454 7.56629 9.95688
C 6.97845 0.09761 7.08546
C 7.57 11.8705 8.31875
H 7.65721 10.7782 8.12909
H 8.59415 12.2349 8.556
H 6.95491 12.0347 9.23059
C 6.96961 1.5872 7.51955
H 6.32438 1.70968 8.41672
H 7.99508 1.92242 7.78805
H 6.5833 2.30908 6.79435
C 7.97688 12.3084 5.93967
H 8.01367 11.2106 5.76715
H 7.75282 0.21655 4.95998
H 9.00097 0.12269 6.21034
C 3.96988 12.3885 1.93334
C 4.57739 0.604 3.16585
H 4.67673 1.69587 2.97952
H 5.59837 0.22639 3.39604
H 3.96549 0.44402 4.08059
C 3.94547 10.8976 2.36227
H 3.30386 10.7797 3.26265
H 4.96832 10.549 2.62378
H 3.5464 10.183 1.63676
C 4.96556 0.16968 0.78301
H 5.01465 1.26753 0.61411
H 4.50322 12.2677 10.0774
H 5.98701 12.3421 1.04669
C 11.482 6.05167 7.07252
C 10.8319 6.80241 8.27582
H 10.7036 7.88586 8.06033
H 9.81866 6.40025 8.49869
H 11.4324 6.68353 9.20423
C 11.543 4.57323 7.53937
H 12.1722 4.49698 8.45284
H 10.5265 4.20087 7.79278
H 11.9753 3.85316 6.83881
C 10.4976 6.29773 5.89867
H 10.4191 7.38909 5.70128
H 10.7616 5.85545 4.93381
H 9.4826 5.92299 6.15433
C 6.49636 6.36518 9.39316
C 7.84337 5.57866 9.35938
H 8.64708 5.71438 0.0266
H 8.49595 5.93724 8.5326
H 7.67816 4.49268 9.18587
C 5.8637 6.08873 8.00364
H 5.69287 4.99671 7.88301
H 6.54589 6.41956 7.19051
H 4.89183 6.54932 7.80474
C 6.92694 7.84099 9.6029
H 7.70362 7.9354 0.29081
H 6.12635 8.58385 9.66162
H 7.60767 8.16943 8.78756
C 8.77803 0.09716 4.17107
C 7.411 11.8702 4.12154
H 7.54983 10.778 3.96523
H 6.78411 12.2352 3.27783
H 6.82113 12.0341 5.04997
C 8.38385 1.58671 4.35345
H 7.81948 1.70879 5.30361
H 7.72781 1.92242 3.52102
H 9.2031 2.30845 4.41797
C 9.42904 12.3086 2.79767
H 9.57234 11.2108 2.69443
H 10.4167 0.21668 2.61157
H 8.77157 0.12333 1.96736
C 10.2227 12.3885 1.93334
C 10.8302 0.60402 3.16587
H 10.9295 1.69588 2.97953
H 11.8512 0.22641 3.39605
H 10.2183 0.44402 4.08059
C 10.1983 10.8976 2.36227
H 9.55668 10.7797 3.26265
H 11.2211 10.5491 2.62379
H 9.79921 10.183 1.63676
C 11.2184 0.16969 0.78302
H 11.2674 1.26756 0.61411
H 10.756 12.2678 10.0774
H 12.2398 12.3421 1.0467
C 9.73413 6.17957 4.2417
C 11.0693 6.98558 4.19852
H 11.6502 6.86456 5.13908
H 11.7246 6.63118 3.37208
H 10.8876 8.06784 4.01844
C 9.09323 6.4375 2.8524
H 8.90596 7.52607 2.72515
H 9.77774 6.11138 2.0393
H 8.12764 5.96136 2.65958
C 10.187 4.71167 4.45975
H 10.7404 4.63169 5.4208
H 9.39765 3.95751 4.52586
H 10.87 4.38791 3.64444
C 8.47455 6.4556 1.95635
C 7.8407 5.70675 3.16945
H 7.72305 4.62036 2.96287
H 6.82455 6.09933 3.39601
H 8.44594 5.83924 4.09296
C 8.52216 7.93807 2.41178
H 9.15648 8.02814 3.3205
H 7.50331 8.30106 2.66913
H 8.94193 8.65761 1.70305
C 7.48538 6.18985 0.79087
H 7.41769 5.09623 0.60211
H 7.51053 6.62778 10.0953
H 6.46795 6.55525 1.05044
204
Atoms. Timestep: 436
Ni 2.39921 9.62503 8.48384
Ni 5.75604 3.01908 3.0776
O 2.02752 4.28681 3.94129
O 3.73142 8.48206 8.55056
O 4.46439 3.29426 4.39596
O 1.03558 10.8137 8.83029
O 6.97064 4.30773 3.80831
O 1.8553 8.33182 9.67151
O 0.809544 2.04852 5.05769
O 2.91359 10.5002 9.77215
N 3.17761 11.0171 7.19345
N 1.33175 2.18548 2.28326
N 1.69117 8.6029 6.99199
N 5.05013 4.43266 1.80799
C 2.84564 0.428342 5.69887
C 1.40443 1.36834 10.2398
H 2.36563 0.600192 4.83404
H 6.13612 12.0611 10.2509
C 4.16346 0.97661 5.87707
C 1.92413 0.0604339 0.469222
C 4.9536 0.167382 6.68894
C 2.39658 0.0676715 1.84365
H 0.345866 0.132212 7.35897
C 2.44618 7.17032 5.17468
C 4.55506 5.51659 9.8764
H 3.02628 7.06046 4.28979
H 0.405596 7.89626 1.22538
C 2.48589 8.40286 5.88612
C 5.20311 4.40731 0.451725
H 3.24722 9.11503 5.63283
H 1.46636 6.09759 2.58099
C 2.39488 11.7181 6.32706
C 1.38255 2.46604 0.918677
H 1.56132 11.2049 5.87825
H 5.51151 1.7203 0.737037
C 4.48498 11.3412 7.14439
C 2.19424 1.24377 2.64351
H 5.181 10.5334 7.26093
H 2.98398 1.60302 3.2458
C 0.818347 7.60158 7.28633
C 4.2392 5.42322 2.31781
H 0.0631947 7.79463 7.94113
H 4.12015 5.48285 3.37908
C 1.07746 6.26224 6.89947
C 3.65771 6.46152 1.48623
H 5.81907 7.53631 5.86864
H 3.16851 7.29941 1.95897
C 1.71513 6.0808 5.68271
C 3.87019 6.51033 0.0994663
C 4.93589 2.10964 4.93164
C 1.84189 11.2668 9.80697
C 1.26649 4.96391 4.8182
C 3.04446 7.72604 9.46768
Ni 9.41999 9.32548 8.87666
Ni 0.528967 3.34332 3.72132
O 6.97134 4.30779 3.80787
O 10.919 8.42812 9.06577
O 11.5061 2.319 3.92945
O 7.89455 10.2414 9.07179
O 0.0541892 4.43465 4.92409
O 8.97802 8.0231 10.0382
O 6.10422 1.82813 4.30931
O 9.71 10.3426 10.1907
N 10.217 10.6928 7.67722
N 7.17587 2.19489 1.72977
N 8.7919 8.22436 7.32659
N 12.4144 4.67798 2.34119
C 9.90678 12.1909 5.84887
C 6.98079 0.11393 0.509574
H 1.1854 1.49313 9.19752
C 11.3032 0.276317 5.9037
C 8.26925 12.1909 0.579599
C 12.0357 12.1377 6.88982
C 9.15032 0.534853 1.17051
C 9.02514 6.5675 5.55657
C 12.4229 6.94095 1.34064
C 9.51765 7.24588 6.74954
C 0.55683 5.88048 2.09122
H 10.5649 7.26851 6.94458
H 5.85797 3.70356 0.0553078
C 9.43367 11.2596 6.81484
C 6.51064 1.40513 0.932916
H 8.6393 10.6596 6.58304
H 0.97832 3.36305 0.566167
C 11.5367 10.8744 7.44688
C 8.56808 1.87523 1.75236
H 12.1299 9.99536 7.30993
H 9.19004 2.5183 2.2838
C 7.55592 8.47061 6.76356
C 11.1578 4.58138 1.8595
H 6.99254 9.32011 7.08554
H 10.501 3.93996 2.31663
C 6.88696 7.47751 5.96262
C 10.6545 5.45765 0.878265
C 7.57873 6.3899 5.4145
C 11.2195 6.68278 0.65286
C 12.0413 1.55243 4.94514
C 8.49946 10.8546 10.1108
C 6.71002 5.05852 4.90747
C 10.2917 7.67815 9.97703
C 5.98958 0.877548 7.49221
C 6.91095 12.3604 7.94977
H 7.14193 11.8118 7.06546
H 7.84341 0.193714 8.41346
H 6.38873 11.5978 8.46017
C 5.18896 1.65691 8.49318
H 4.4915 1.04407 9.07263
H 5.92684 2.18309 9.05658
H 4.56125 2.43044 8.00482
C 6.97064 1.8445 6.85554
H 7.54938 1.30888 6.11451
H 6.52102 2.76928 6.50388
H 7.74217 2.21318 7.54338
C 3.51941 11.6397 2.24858
C 4.53015 12.1154 3.28965
H 4.73403 0.637406 3.06797
H 5.53913 11.725 3.14513
H 4.32909 11.7365 4.26714
C 2.94783 10.3104 2.67998
H 2.31518 10.4671 3.57823
H 3.76982 9.65304 2.96814
H 2.36136 9.83422 1.87635
C 4.4393 11.5723 1.11445
H 4.63737 0.0615566 1.03388
H 4.34955 12.0182 0.11798
H 5.23666 10.8428 1.17251
C 0.503963 5.05426 7.70638
C 0.593281 5.34841 9.18633
H 0.377091 6.37966 9.38341
H -0.164826 4.74193 9.69414
H 1.58241 5.15935 9.62752
C 1.26063 3.68379 7.5421
H 1.98216 3.47592 8.3581
H 0.550382 2.83168 7.5461
H 1.89989 3.57931 6.66237
C 11.5071 4.88775 7.36137
H 10.8489 5.32888 8.12587
H 11.2658 5.41218 6.44052
H 11.1897 3.84551 7.19851
C 5.33641 5.82483 8.62664
C 6.50032 4.91044 8.33671
H 7.16982 4.78804 9.15205
H 7.10949 5.31788 7.54625
H 6.14078 3.9608 8.06248
C 4.37322 5.6379 7.43794
H 3.90782 4.63225 7.47596
H 4.85458 5.69505 6.45811
H 3.58543 6.37421 7.4486
C 5.97416 7.21816 8.80158
H 5.6589 7.83905 9.64544
H 5.67282 7.82318 7.98269
H 7.06439 7.19713 8.91733
C 9.16773 12.0756 4.61015
C 7.68192 11.5449 4.55233
H 7.36751 10.6556 5.09227
H 7.48187 11.3085 3.50959
H 6.92115 12.2566 4.86102
C 9.13097 0.944414 4.21916
H 9.46698 1.69558 4.9418
H 8.15814 1.25084 3.91685
H 9.832 0.981503 3.48275
C 9.99611 11.1059 3.79219
H 10.0093 10.0944 4.23358
H 11.0633 11.382 3.7529
H 9.52077 11.0726 2.8114
C 10.7064 0.209022 0.900515
C 11.4187 1.09537 1.71422
H 11.2326 2.13922 1.58087
H 12.3285 0.938987 1.35647
H 11.6219 0.646713 2.67852
C 11.5941 11.3377 1.24886
H -0.0287919 11.4206 1.92356
H 12.0841 10.9212 0.353047
H 11.1486 10.4706 1.72307
C 10.7622 0.591898 9.6889
H 11.0168 1.64849 9.51855
H 9.93393 0.341538 9.01707
H 11.667 0.0903614 9.34557
C 9.7502 6.9243 4.31972
C 11.1408 7.51702 4.31238
H 11.3908 8.14197 5.18554
H 11.8609 6.70013 4.23683
H 11.2746 8.17729 3.43495
C 9.00906 6.83341 3.07399
H 8.09134 7.40603 3.17343
H 9.53052 7.22647 2.23916
H 8.77559 5.79178 2.93053
C 9.97855 4.17073 4.64089
H 10.0309 2.00331 7.37065
H 9.32958 3.76592 8.55556
H 10.1632 3.15025 0.0959179
C 6.7383 6.82567 1.33117
C 5.37002 7.92494 3.5279
H 8.08428 3.021 5.19461
H 1.24703 8.34842 3.22829
H 8.69187 4.27141 6.71845
C 7.12203 9.54153 1.8544
H 8.24583 9.01434 4.3678
H 5.26158 9.94874 5.01501
H 9.54412 9.19261 1.96395
C 8.13425 4.52956 1.0315
H 8.11571 2.34009 9.56044
H 8.92346 5.889 8.92642
H 4.6923 8.84734 1.00118
204
Atoms. Timestep: 437
Ni 2.39921 9.62503 8.48384
Ni 5.75604 3.01908 3.0776
O 2.02752 4.28681 3.94129
O 3.73142 8.48206 8.55056
O 4.46439 3.29426 4.39596
O 1.03558 10.8137 8.83029
O 6.97064 4.30773 3.80831
O 1.8553 8.33182 9.67151
O 0.809544 2.04852 5.05769
O 2.91359 10.5002 9.77215
N 3.17761 11.0171 7.19345
N 1.33175 2.18548 2.28326
N 1.69117 8.6029 6.99199
N 5.05013 4.43266 1.80799
C 2.84564 0.428342 5.69887
C 1.40443 1.36834 10.2398
H 2.36563 0.600192 4.83404
H 6.13612 12.0611 10.2509
C 4.16346 0.97661 5.87707
C 1.92413 0.0604339 0.469222
C 4.9536 0.167382 6.68894
C 2.39658 0.0676715 1.84365
H 0.345866 0.132212 7.35897
C 2.44618 7.17032 5.17468
C 4.55506 5.51659 9.8764
H 3.02628 7.06046 4.28979
H 0.405596 7.89626 1.22538
C 2.48589 8.40286 5.88612
C 5.20311 4.40731 0.451725
H 3.24722 9.11503 5.63283
H 1.46636 6.09759 2.58099
C 2.39488 11.7181 6.32706
C 1.38255 2.46604 0.918677
H 1.56132 11.2049 5.87825
H 5.51151 1.7203 0.737037
C 4.48498 11.3412 7.14439
C 2.19424 1.24377 2.64351
H 5.181 10.5334 7.26093
H 2.98398 1.60302 3.2458
C 0.818347 7.60158 7.28633
C 4.2392 5.42322 2.31781
H 0.0631947 7.79463 7.94113
H 4.12015 5.48285 3.37908
C 1.07746 6.26224 6.89947
C 3.65771 6.46152 1.48623
H 5.81907 7.53631 5.86864
H 3.16851 7.29941 1.95897
C 1.71513 6.0808 5.68271
C 3.87019 6.51033 0.0994663
C 4.93589 2.10964 4.93164
C 1.84189 11.2668 9.80697
C 1.26649 4.96391 4.8182
C 3.04446 7.72604 9.46768
Ni 9.41999 9.32548 8.87666
Ni 0.528967 3.34332 3.72132
O 6.97134 4.30779 3.80787
O 10.919 8.42812 9.06577
O 11.5061 2.319 3.92945
O 7.89455 10.2414 9.07179
O 0.0541892 4.43465 4.92409
O 8.97802 8.0231 10.0382
O 6.10422 1.82813 4.30931
O 9.71 10.3426 10.1907
N 10.217 10.6928 7.67722
N 7.17587 2.19489 1.72977
N 8.7919 8.22436 7.32659
N 12.4144 4.67798 2.34119
C 9.90678 12.1909 5.84887
C 6.98079 0.11393 0.509574
H 1.1854 1.49313 9.19752
C 11.3032 0.276317 5.9037
C 8.26925 12.1909 0.579599
C 12.0357 12.1377 6.88982
C 9.15032 0.534853 1.17051
C 9.02514 6.5675 5.55657
C 12.4229 6.94095 1.34064
C 9.51765 7.24588 6.74954
C 0.55683 5.88048 2.09122
H 10.5649 7.26851 6.94458
H 5.85797 3.70356 0.0553078
C 9.43367 11.2596 6.81484
C 6.51064 1.40513 0.932916
H 8.6393 10.6596 6.58304
H 0.97832 3.36305 0.566167
C 11.5367 10.8744 7.44688
C 8.56808 1.87523 1.75236
H 12.1299 9.99536 7.30993
H 9.19004 2.5183 2.2838
C 7.55592 8.47061 6.76356
C 11.1578 4.58138 1.8595
H 6.99254 9.32011 7.08554
H 10.501 3.93996 2.31663
C 6.88696 7.47751 5.96262
C 10.6545 5.45765 0.878265
C 7.57873 6.3899 5.4145
C 11.2195 6.68278 0.65286
C 12.0413 1.55243 4.94514
C 8.49946 10.8546 10.1108
C 6.71002 5.05852 4.90747
C 10.2917 7.67815 9.97703
C 5.98958 0.877548 7.49221
C 6.91095 12.3604 7.94977
H 7.14193 11.8118 7.06546
H 7.84341 0.193714 8.41346
H 6.38873 11.5978 8.46017
C 5.18896 1.65691 8.49318
H 4.4915 1.04407 9.07263
H 5.92684 2.18309 9.05658
H 4.56125 2.43044 8.00482
C 6.97064 1.8445 6.85554
H 7.54938 1.30888 6.11451
H 6.52102 2.76928 6.50388
H 7.74217 2.21318 7.54338
C 3.51941 11.6397 2.24858
C 4.53015 12.1154 3.28965
H 4.73403 0.637406 3.06797
H 5.53913 11.725 3.14513
H 4.32909 11.7365 4.26714
C 2.94783 10.3104 2.67998
H 2.31518 10.4671 3.57823
H 3.76982 9.65304 2.96814
H 2.36136 9.83422 1.87635
C 4.4393 11.5723 1.11445
H 4.63737 0.0615566 1.03388
H 4.34955 12.0182 0.11798
H 5.23666 10.8428 1.17251
C 0.503963 5.05426 7.70638
C 0.593281 5.34841 9.18633
H 0.377091 6.37966 9.38341
H -0.164826 4.74193 9.69414
H 1.58241 5.15935 9.62752
C 1.26063 3.68379 7.5421
H 1.98216 3.47592 8.3581
H 0.550382 2.83168 7.5461
H 1.89989 3.57931 6.66237
C 11.5071 4.88775 7.36137
H 10.8489 5.32888 8.12587
H 11.2658 5.41218 6.44052
H 11.1897 3.84551 7.19851
C 5.33641 5.82483 8.62664
C 6.50032 4.91044 8.33671
H 7.16982 4.78804 9.15205
H 7.10949 5.31788 7.54625
H 6.14078 3.9608 8.06248
C 4.37322 5.6379 7.43794
H 3.90782 4.63225 7.47596
H 4.85458 5.69505 6.45811
H 3.58543 6.37421 7.4486
C 5.97416 7.21816 8.80158
H 5.6589 7.83905 9.64544
H 5.67282 7.82318 7.98269
H 7.06439 7.19713 8.91733
C 9.16773 12.0756 4.61015
C 7.68192 11.5449 4.55233
H 7.36751 10.6556 5.09227
H 7.48187 11.3085 3.50959
H 6.92115 12.2566 4.86102
C 9.13097 0.944414 4.21916
H 9.46698 1.69558 4.9418
H 8.15814 1.25084 3.91685
H 9.832 0.981503 3.48275
C 9.99611 11.1059 3.79219
H 10.0093 10.0944 4.23358
H 11.0633 11.382 3.7529
H 9.52077 11.0726 2.8114
C 10.7064 0.209022 0.900515
C 11.4187 1.09537 1.71422
H 11.2326 2.13922 1.58087
H 12.3285 0.938987 1.35647
H 11.6219 0.646713 2.67852
C 11.5941 11.3377 1.24886
H -0.0287919 11.4206 1.92356
H 12.0841 10.9212 0.353047
H 11.1486 10.4706 1.72307
C 10.7622 0.591898 9.6889
H 11.0168 1.64849 9.51855
H 9.93393 0.341538 9.01707
H 11.667 0.0903614 9.34557
C 9.7502 6.9243 4.31972
C 11.1408 7.51702 4.31238
H 11.3908 8.14197 5.18554
H 11.8609 6.70013 4.23683
H 11.2746 8.17729 3.43495
C 9.00906 6.83341 3.07399
H 8.09134 7.40603 3.17343
H 9.53052 7.22647 2.23916
H 8.77559 5.79178 2.93053
C 9.97855 4.17073 4.64089
H 10.0309 2.00331 7.37065
H 9.32958 3.76592 8.55556
H 10.1632 3.15025 0.0959179
C 6.7383 6.82567 1.33117
C 5.37002 7.92494 3.5279
H 8.08428 3.021 5.19461
H 1.24703 8.34842 3.22829
H 8.69187 4.27141 6.71845
C 7.12203 9.54153 1.8544
H 8.24583 9.01434 4.3678
H 5.26158 9.94874 5.01501
H 9.54412 9.19261 1.96395
C 8.13425 4.52956 1.0315
H 8.11571 2.34009 9.56044
H 8.92346 5.889 8.92642
H 4.6923 8.84734 1.00118
