Created on Tue Aug 25 11:51:23 2020 

         140 atoms
         160 bonds
         292 angles
         320 dihedrals
         216 impropers

           6 atom types
          10 bond types
          19 angle types
           4 dihedral types
           1 improper types
           0.000000  12.505600 xlo xhi
           0.000000  12.523400 ylo yhi
           0.000000  10.274279 zlo zhi
           0.000000  -0.227594   0.000000 xy xz yz

Masses

    1    58.693400000 # Ni4+2
    2    15.999400000 # O_R
    3    14.006700000 # N_R
    4    12.010700000 # C_R
    5     1.007940000 # H_
    6    12.010700000 # C_2

Bond Coeffs

    1      321.720028        1.793457  # Ni4+2 O_R
    2      328.673665        1.841585  # Ni4+2 N_R
    3      646.680887        1.311940  # O_R C_R
    4      663.718927        1.345073  # N_R C_R
    5      462.655054        1.379256  # C_R C_R
    6      357.440381        1.081418  # C_R H_
    7      391.669513        1.458000  # C_R C_R
    8      389.261715        1.461000  # C_R C_2
    9      517.346067        1.328833  # C_2 C_2
   10      354.483902        1.084416  # C_2 H_

Angle Coeffs

    1      322.980216               1               4 # O_R Ni4+2 O_R
    2      343.030950               1               4 # O_R Ni4+2 N_R
    3      364.965660               1               4 # N_R Ni4+2 N_R
    4      238.346347              -1               3 # C_R O_R Ni4+2
    5      177.809033              -1               3 # Ni4+2 N_R C_R
    6      240.001032              -1               3 # C_R N_R C_R
    7      114.578032              -1               3 # C_R C_R H_
    8      222.595017              -1               3 # C_R C_R C_R
    9      204.366560              -1               3 # C_R C_R C_R
   10      307.398705              -1               3 # N_R C_R C_R
   11      159.573934              -1               3 # N_R C_R H_
   12      280.743239              -1               3 # C_2 C_R N_R
   13      203.704287              -1               3 # C_2 C_R C_R
   14      263.511421              -1               3 # O_R C_R C_R
   15      374.272657              -1               3 # O_R C_R O_R
   16      214.555074              -1               3 # C_R C_2 C_2
   17      102.542651              -1               3 # C_R C_2 H_
   18      122.161963              -1               3 # C_2 C_2 H_
   19       63.510678              -1               3 # H_ C_2 H_

Dihedral Coeffs

    1        2.245703              -1               2 # Ni4+2 O_R C_R C_R
    2        1.497136              -1               2 # Ni4+2 N_R C_R C_2
    3        0.555556              -1               2 # C_R C_R C_R O_R
    4        2.165197              -1               2 # C_R C_2 C_2 H_

Improper Coeffs

    1        2.000000        1.000000       -1.000000        0.000000               0 # Ni4+2 N_R C_R C_R

Pair Coeffs

    1        0.015000        2.524807 # Ni4+2 Ni4+2
    2        0.060000        3.118146 # O_R O_R
    3        0.069000        3.260689 # N_R N_R
    4        0.105000        3.430851 # C_R C_R
    5        0.044000        2.571134 # H_ H_
    6        0.105000        3.430851 # C_2 C_2

Atoms

       1      444        1     0.00000    2.89857    9.41116    8.59265
       2      444        1     0.00000    6.17525    3.10579    3.48481
       3      444        2     0.00000    1.44827    4.35425    3.93374
       4      444        2     0.00000    4.44160    8.15245    9.05464
       5      444        2     0.00000    4.63665    1.84729    3.87523
       6      444        2     0.00000    1.36499   10.67435    9.00295
       7      444        2     0.00000    5.80609    4.46033    4.96242
       8      444        2     0.00000    2.54244    8.03270   10.06753
       9      444        2     0.00000    0.25117    1.69264    4.94273
      10      444        2     0.00000    3.23722   10.80466   10.06262
      11      444        3     0.00000    3.69677   10.66058    7.24160
      12      444        3     0.00000    0.71256    1.86420    2.11704
      13      444        3     0.00000    2.17217    8.14409    7.25198
      14      444        3     0.00000    5.44023    4.39481    2.13747
      15      444        4     0.00000    3.48546   12.14832    5.36301
      16      444        4     0.00000    0.47488    0.38955    0.22920
      17      444        5     0.00000    2.86453   12.51808    4.55267
      18      444        5     0.00000    5.86971    0.03371    9.69377
      19      444        4     0.00000    4.76073    0.14740    5.61481
      20      444        4     0.00000    1.74333   12.36991    0.47412
      21      444        4     0.00000    5.50345   12.15023    6.68209
      22      444        4     0.00000    2.49852    0.35508    1.54004
      23      444        5     0.00000    0.24768   12.50843    6.91993
      24      444        5     0.00000    3.49155   12.50668    1.77336
      25      444        4     0.00000    2.48363    6.63370    5.40822
      26      444        4     0.00000    5.72803    5.90364    0.28669
      27      444        5     0.00000    3.13294    6.27291    4.61605
      28      444        5     0.00000   -0.10828    6.26667    9.76620
      29      444        4     0.00000    2.92756    7.68099    6.23068
      30      444        4     0.00000    6.18830    4.86756    1.11596
      31      444        5     0.00000    3.89994    8.14655    6.08890
      32      444        4     0.00000    2.98256   11.13588    6.19748
      33      444        4     0.00000   -0.01036    1.40553    1.07106
      34      444        5     0.00000    5.26093    1.85011    0.92351
      35      444        4     0.00000    4.93641   11.13810    7.47507
      36      444        4     0.00000    1.94823    1.37190    2.34060
      37      444        5     0.00000    5.48559   10.70967    8.30944
      38      444        5     0.00000    2.50886    1.79214    3.17267
      39      444        4     0.00000    0.94573    7.62654    7.47302
      40      444        4     0.00000    4.21083    4.90458    2.35686
      41      444        4     0.00000    0.43859    6.57577    6.69176
      42      444        4     0.00000    3.68763    5.94500    1.56944
      43      444        5     0.00000    5.70774    6.17693    6.91975
      44      444        5     0.00000    2.69824    6.32683    1.80071
      45      444        4     0.00000    1.22745    6.06471    5.65205
      46      444        4     0.00000    4.46338    6.45777    0.52027
      47      444        4     0.00000    5.31260    1.24381    4.79419
      48      444        4     0.00000    2.05020   11.26755    9.92158
      49      444        4     0.00000    0.73548    4.94016    4.83586
      50      444        4     0.00000    3.73174    7.56629    9.95688
      51      444        1     0.00000    9.15137    9.41116    8.59265
      52      444        1     0.00000   12.42805    3.10579    3.48481
      53      444        2     0.00000    7.70109    4.35425    3.93374
      54      444        2     0.00000   10.69440    8.15245    9.05464
      55      444        2     0.00000   10.88945    1.84729    3.87523
      56      444        2     0.00000    7.61779   10.67435    9.00295
      57      444        2     0.00000   12.05889    4.46033    4.96242
      58      444        2     0.00000    8.79524    8.03270   10.06753
      59      444        2     0.00000    6.50397    1.69264    4.94273
      60      444        2     0.00000    9.49002   10.80466   10.06262
      61      444        3     0.00000    9.94957   10.66058    7.24160
      62      444        3     0.00000    6.96536    1.86420    2.11704
      63      444        3     0.00000    8.42499    8.14409    7.25198
      64      444        3     0.00000   11.69303    4.39481    2.13747
      65      444        4     0.00000    9.73826   12.14832    5.36301
      66      444        4     0.00000    6.72768    0.38955    0.22920
      67      444        5     0.00000    9.11733   12.51808    4.55267
      68      444        5     0.00000   12.12251    0.03371    9.69377
      69      444        4     0.00000   11.01353    0.14740    5.61481
      70      444        4     0.00000    7.99613   12.36991    0.47412
      71      444        4     0.00000   11.75625   12.15023    6.68209
      72      444        4     0.00000    8.75132    0.35508    1.54004
      73      444        5     0.00000    6.50047   12.50843    6.91993
      74      444        5     0.00000    9.74435   12.50668    1.77336
      75      444        4     0.00000    8.73644    6.63370    5.40822
      76      444        4     0.00000   11.98084    5.90364    0.28669
      77      444        5     0.00000    9.38574    6.27291    4.61605
      78      444        5     0.00000    6.14452    6.26667    9.76620
      79      444        4     0.00000    9.18036    7.68099    6.23068
      80      444        4     0.00000   12.44110    4.86756    1.11596
      81      444        5     0.00000   10.15274    8.14655    6.08890
      82      444        5     0.00000    7.16869    4.41889    0.97634
      83      444        4     0.00000    9.23536   11.13588    6.19748
      84      444        4     0.00000    6.24244    1.40553    1.07106
      85      444        4     0.00000   11.18921   11.13810    7.47507
      86      444        4     0.00000    8.20102    1.37190    2.34060
      87      444        5     0.00000   11.73839   10.70967    8.30944
      88      444        4     0.00000    7.19853    7.62654    7.47302
      89      444        4     0.00000   10.46363    4.90458    2.35686
      90      444        5     0.00000    9.88885    4.47744    3.17528
      91      444        4     0.00000    6.69139    6.57577    6.69176
      92      444        4     0.00000    9.94043    5.94500    1.56944
      93      444        5     0.00000   11.96054    6.17693    6.91975
      94      444        5     0.00000    8.95104    6.32683    1.80071
      95      444        4     0.00000    7.48025    6.06471    5.65205
      96      444        4     0.00000   10.71618    6.45777    0.52027
      97      444        4     0.00000   11.56540    1.24381    4.79419
      98      444        4     0.00000    8.30300   11.26755    9.92158
      99      444        4     0.00000    6.98827    4.94016    4.83586
     100      444        4     0.00000    9.98454    7.56629    9.95688
     101      444        6     0.00000    1.57333   10.52746    5.93936
     102      444        6     0.00000    1.01371    9.55785    6.68309
     103      444        5     0.00000    0.96295   10.86555    5.12836
     104      444        5     0.00000    1.48929    9.10278    7.53760
     105      444        5     0.00000    0.02291    9.19764    6.42314
     106      444        6     0.00000   11.09508    2.03742    0.81856
     107      444        6     0.00000   10.55192    3.01148    1.56868
     108      444        5     0.00000   10.47819    1.71353    0.00671
     109      444        5     0.00000   11.03592    3.45419    2.42494
     110      444        5     0.00000    9.56647    3.38862    1.31242
     111      444        6     0.00000    0.09593    8.23029    8.63017
     112      444        6     0.00000    0.49814    9.23521    9.42693
     113      444        5     0.00000   11.62292    7.85937    8.85224
     114      444        5     0.00000    1.45514    9.72562    9.34268
     115      444        5     0.00000   -0.16733    9.58858   10.20877
     116      444        6     0.00000    3.36975    4.30312    3.52362
     117      444        6     0.00000    3.78429    3.30888    4.32743
     118      444        5     0.00000    2.38869    4.66703    3.74641
     119      444        5     0.00000    4.74538    2.82647    4.24359
     120      444        5     0.00000    3.12517    2.95629    5.11500
     121      444        6     0.00000    7.82613   10.52746    5.93936
     122      444        6     0.00000    7.26651    9.55785    6.68309
     123      444        5     0.00000    7.21575   10.86555    5.12836
     124      444        5     0.00000    7.74209    9.10278    7.53760
     125      444        5     0.00000    6.27571    9.19764    6.42314
     126      444        6     0.00000    9.01910    1.96646    3.52712
     127      444        6     0.00000    8.57766    2.93680    4.34568
     128      444        5     0.00000   10.00488    1.61725    3.75266
     129      444        5     0.00000    7.60817    3.40207    4.26161
     130      444        5     0.00000    9.22220    3.28665    5.14642
     131      444        6     0.00000    6.34873    8.23029    8.63016
     132      444        6     0.00000    6.75096    9.23521    9.42692
     133      444        5     0.00000    5.37012    7.85939    8.85224
     134      444        5     0.00000    7.70794    9.72563    9.34268
     135      444        5     0.00000    6.08547    9.58859   10.20877
     136      444        6     0.00000    1.33481    4.22856    0.87896
     137      444        6     0.00000    1.85464    3.23489    1.61981
     138      444        5     0.00000    1.97057    4.56335    0.08631
     139      444        5     0.00000    1.34984    2.77927    2.45708
     140      444        5     0.00000    2.84186    2.85440    1.37563

Bonds

       1        1        1        4
       2        1        1        6
       3        1        1        8
       4        1        1       10
       5        2        1       11
       6        2        1       13
       7        1        2        5
       8        1        2        7
       9        2        2       14
      10        1        2       53
      11        1        2       59
      12        2        2       62
      13        3        3       49
      14        1        3       52
      15        3        4       50
      16        3        5       47
      17        3        6       48
      18        3        7       99
      19        3        8       50
      20        1        9       52
      21        3        9       97
      22        3       10       48
      23        4       11       32
      24        4       11       35
      25        4       12       33
      26        4       12       36
      27        2       12       52
      28        4       13       29
      29        4       13       39
      30        4       14       30
      31        4       14       40
      32        6       15       17
      33        5       15       19
      34        5       15       32
      35        5       16       20
      36        5       16       33
      37        6       16       68
      38        6       18       66
      39        5       19       21
      40        7       19       47
      41        5       20       22
      42        7       20       48
      43        5       21       35
      44        6       21       73
      45        6       22       24
      46        5       22       36
      47        6       23       71
      48        6       25       27
      49        5       25       29
      50        5       25       45
      51        5       26       30
      52        5       26       46
      53        6       26       78
      54        6       28       76
      55        6       29       31
      56        6       30       82
      57        8       32      101
      58        8       33      106
      59        6       34       84
      60        6       35       37
      61        6       36       38
      62        5       39       41
      63        8       39      111
      64        5       40       42
      65        8       40      116
      66        5       41       45
      67        6       41       93
      68        6       42       44
      69        5       42       46
      70        6       43       91
      71        7       45       49
      72        7       46       50
      73        3       47       59
      74        3       49       57
      75        1       51       54
      76        1       51       56
      77        1       51       58
      78        1       51       60
      79        2       51       61
      80        2       51       63
      81        1       52       55
      82        1       52       57
      83        2       52       64
      84        3       53       99
      85        3       54      100
      86        3       55       97
      87        3       56       98
      88        3       58      100
      89        3       60       98
      90        4       61       83
      91        4       61       85
      92        4       62       84
      93        4       62       86
      94        4       63       79
      95        4       63       88
      96        4       64       80
      97        4       64       89
      98        6       65       67
      99        5       65       69
     100        5       65       83
     101        5       66       70
     102        5       66       84
     103        5       69       71
     104        7       69       97
     105        5       70       72
     106        7       70       98
     107        5       71       85
     108        6       72       74
     109        5       72       86
     110        6       75       77
     111        5       75       79
     112        5       75       95
     113        5       76       80
     114        5       76       96
     115        6       79       81
     116        8       80      136
     117        8       83      121
     118        6       85       87
     119        8       86      126
     120        5       88       91
     121        8       88      131
     122        6       89       90
     123        5       89       92
     124        5       91       95
     125        6       92       94
     126        5       92       96
     127        7       95       99
     128        7       96      100
     129        9      101      102
     130       10      101      103
     131       10      102      104
     132       10      102      105
     133        9      106      107
     134       10      106      108
     135       10      107      109
     136       10      107      110
     137        9      111      112
     138       10      111      113
     139       10      112      114
     140       10      112      115
     141        9      116      117
     142       10      116      118
     143       10      117      119
     144       10      117      120
     145        9      121      122
     146       10      121      123
     147       10      122      124
     148       10      122      125
     149        9      126      127
     150       10      126      128
     151       10      127      129
     152       10      127      130
     153        9      131      132
     154       10      131      133
     155       10      132      134
     156       10      132      135
     157        9      136      137
     158       10      136      138
     159       10      137      139
     160       10      137      140

Angles

       1        1        4        1        6
       2        1        4        1        8
       3        1        4        1       10
       4        2        4        1       11
       5        2        4        1       13
       6        1        6        1        8
       7        1        6        1       10
       8        2        6        1       11
       9        2        6        1       13
      10        1        8        1       10
      11        2        8        1       11
      12        2        8        1       13
      13        2       10        1       11
      14        2       10        1       13
      15        3       11        1       13
      16        2       14        2        5
      17        2       14        2        7
      18        2       14        2       53
      19        2       14        2       59
      20        3       14        2       62
      21        1        5        2        7
      22        1        5        2       53
      23        1        5        2       59
      24        2        5        2       62
      25        1        7        2       53
      26        1        7        2       59
      27        2        7        2       62
      28        1       53        2       59
      29        2       53        2       62
      30        2       59        2       62
      31        4       49        3       52
      32        4        1        4       50
      33        4        2        5       47
      34        4        1        6       48
      35        4        2        7       99
      36        4        1        8       50
      37        4       52        9       97
      38        4        1       10       48
      39        5        1       11       32
      40        5        1       11       35
      41        6       32       11       35
      42        6       33       12       36
      43        5       33       12       52
      44        5       36       12       52
      45        5        1       13       29
      46        5        1       13       39
      47        6       29       13       39
      48        5        2       14       30
      49        5        2       14       40
      50        6       30       14       40
      51        7       19       15       17
      52        8       19       15       32
      53        7       17       15       32
      54        8       20       16       33
      55        7       20       16       68
      56        7       33       16       68
      57        8       15       19       21
      58        9       15       19       47
      59        9       21       19       47
      60        8       16       20       22
      61        9       16       20       48
      62        9       22       20       48
      63        8       19       21       35
      64        7       19       21       73
      65        7       35       21       73
      66        8       20       22       36
      67        7       20       22       24
      68        7       36       22       24
      69        8       29       25       45
      70        7       29       25       27
      71        7       45       25       27
      72        8       30       26       46
      73        7       30       26       78
      74        7       46       26       78
      75       10       13       29       25
      76       11       13       29       31
      77        7       25       29       31
      78       10       14       30       26
      79       11       14       30       82
      80        7       26       30       82
      81       12      101       32       11
      82       13      101       32       15
      83       10       11       32       15
      84       10       12       33       16
      85       12       12       33      106
      86       13       16       33      106
      87       10       21       35       11
      88        7       21       35       37
      89       11       11       35       37
      90       10       12       36       22
      91       11       12       36       38
      92        7       22       36       38
      93       10       13       39       41
      94       12       13       39      111
      95       13       41       39      111
      96       10       14       40       42
      97       12       14       40      116
      98       13       42       40      116
      99        8       39       41       45
     100        7       39       41       93
     101        7       45       41       93
     102        8       40       42       46
     103        7       40       42       44
     104        7       46       42       44
     105        8       25       45       41
     106        9       25       45       49
     107        9       41       45       49
     108        8       26       46       42
     109        9       26       46       50
     110        9       42       46       50
     111       14        5       47       19
     112       15        5       47       59
     113       14       19       47       59
     114       14       10       48       20
     115       15       10       48        6
     116       14       20       48        6
     117       14        3       49       45
     118       15        3       49       57
     119       14       45       49       57
     120       14        8       50       46
     121       15        8       50        4
     122       14       46       50        4
     123        1       54       51       56
     124        1       54       51       58
     125        1       54       51       60
     126        2       54       51       61
     127        2       54       51       63
     128        1       56       51       58
     129        1       56       51       60
     130        2       56       51       61
     131        2       56       51       63
     132        1       58       51       60
     133        2       58       51       61
     134        2       58       51       63
     135        2       60       51       61
     136        2       60       51       63
     137        3       61       51       63
     138        2        9       52       12
     139        1        9       52       55
     140        1        9       52        3
     141        1        9       52       57
     142        2        9       52       64
     143        2       12       52       55
     144        2       12       52        3
     145        2       12       52       57
     146        3       12       52       64
     147        1       55       52        3
     148        1       55       52       57
     149        2       55       52       64
     150        1        3       52       57
     151        2        3       52       64
     152        2       57       52       64
     153        4        2       53       99
     154        4       51       54      100
     155        4       52       55       97
     156        4       51       56       98
     157        4       49       57       52
     158        4       51       58      100
     159        4        2       59       47
     160        4       51       60       98
     161        5       51       61       83
     162        5       51       61       85
     163        6       83       61       85
     164        5        2       62       86
     165        5        2       62       84
     166        6       86       62       84
     167        5       51       63       79
     168        5       51       63       88
     169        6       79       63       88
     170        5       89       64       52
     171        6       89       64       80
     172        5       52       64       80
     173        7       69       65       67
     174        8       69       65       83
     175        7       67       65       83
     176        7       70       66       18
     177        8       70       66       84
     178        7       18       66       84
     179        9       65       69       97
     180        8       65       69       71
     181        9       97       69       71
     182        8       66       70       72
     183        9       66       70       98
     184        9       72       70       98
     185        7       85       71       23
     186        8       85       71       69
     187        7       23       71       69
     188        7       70       72       74
     189        8       70       72       86
     190        7       74       72       86
     191        8       79       75       95
     192        7       79       75       77
     193        7       95       75       77
     194        7       28       76       80
     195        7       28       76       96
     196        8       80       76       96
     197       10       63       79       75
     198       11       63       79       81
     199        7       75       79       81
     200       12      136       80       64
     201       13      136       80       76
     202       10       64       80       76
     203       12      121       83       61
     204       13      121       83       65
     205       10       61       83       65
     206        7       66       84       34
     207       10       66       84       62
     208       11       34       84       62
     209       10       71       85       61
     210        7       71       85       87
     211       11       61       85       87
     212       12       62       86      126
     213       10       62       86       72
     214       13      126       86       72
     215       12       63       88      131
     216       10       63       88       91
     217       13      131       88       91
     218       10       64       89       92
     219       11       64       89       90
     220        7       92       89       90
     221        7       95       91       43
     222        8       95       91       88
     223        7       43       91       88
     224        8       89       92       96
     225        7       89       92       94
     226        7       96       92       94
     227        8       75       95       91
     228        9       75       95       99
     229        9       91       95       99
     230        8       92       96       76
     231        9       92       96      100
     232        9       76       96      100
     233       14       69       97        9
     234       14       69       97       55
     235       15        9       97       55
     236       14       60       98       70
     237       15       60       98       56
     238       14       70       98       56
     239       14       53       99       95
     240       15       53       99        7
     241       14       95       99        7
     242       14       58      100       96
     243       15       58      100       54