ITEM: TIMESTEP
0
ITEM: NUMBER OF ATOMS
140
ITEM: BOX BOUNDS xy xz yz pp pp pp
-2.2759399999999999e-01 1.2505599999999999e+01 0.0000000000000000e+00
0.0000000000000000e+00 1.2523400000000001e+01 -2.2759399999999999e-01
0.0000000000000000e+00 1.0274279000000000e+01 0.0000000000000000e+00
ITEM: ATOMS id type x y z
1 1 3.00919 9.53174 8.63764
2 1 6.14752 3.38234 3.77689
3 2 1.1599 4.26033 3.74562
4 2 4.55571 8.55263 8.66699
5 2 4.55169 2.47986 3.84324
6 2 1.51016 10.4944 8.9588
7 2 5.77094 4.57291 5.03726
8 2 2.77365 8.35559 9.94735
9 2 0.425406 1.88444 4.80723
10 2 3.49635 10.7622 9.90053
11 3 3.55413 10.831 7.19696
12 3 0.609762 1.93421 2.09994
13 3 2.20616 8.19365 7.32657
14 3 5.67444 4.75202 2.27115
15 4 3.23706 12.5056 5.38346
16 4 0.406261 12.3857 0.800163
17 5 2.69973 0.293225 4.49673
18 5 5.76312 0.360994 9.85808
19 4 4.4199 0.6592 5.73842
20 4 1.79841 12.2604 0.606567
21 4 5.08171 0.19605 6.87654
22 4 2.58191 0.647525 1.33421
23 5 11.9299 1.02583 7.44495
24 5 3.6378 0.469704 1.41714
25 4 1.88799 7.11959 5.14455
26 4 4.91668 5.42875 10.2267
27 5 1.97932 7.27228 4.07783
28 5 11.2493 5.72056 9.39943
29 4 2.67712 7.92796 6.06113
30 4 5.76216 4.51885 0.905226
31 5 3.53661 8.468 5.69043
32 4 2.78795 11.335 6.12347
33 4 12.3497 1.11205 1.26157
34 5 5.13525 2.03443 1.21803
35 4 4.70308 11.5088 7.51057
36 4 1.97029 1.70441 2.10795
37 5 5.30684 11.1477 8.31907
38 5 2.58721 2.33838 2.69666
39 4 1.13754 7.43521 7.75633
40 4 5.21246 6.02777 2.62078
41 4 0.629993 6.30385 6.98983
42 4 5.10443 7.07992 1.66375
43 5 5.67961 6.47775 6.83591
44 5 4.8887 8.08527 2.01014
45 4 1.00484 6.11938 5.64115
46 4 4.89008 6.77919 0.323098
47 4 5.08469 1.78259 4.88188
48 4 2.20637 11.2081 9.87709
49 4 0.476669 4.87533 4.75397
50 4 3.96569 7.82108 9.66377
51 1 9.00711 9.56625 8.99681
52 1 12.3312 3.08506 3.57139
53 2 7.70405 4.27943 4.04028
54 2 10.3884 8.54097 9.33102
55 2 10.9999 1.90325 3.73127
56 2 7.53358 10.6354 9.02359
57 2 11.8167 4.19792 4.94481
58 2 8.68207 8.48299 0.0762302
59 2 6.31803 2.2267 5.11103
60 2 9.38864 10.804 10.2232
61 3 9.87785 10.7683 7.52301
62 3 6.85691 2.00324 2.47337
63 3 8.41676 8.1997 7.65444
64 3 11.4541 4.34281 2.25034
65 4 10.4024 11.5467 5.20734
66 4 6.57441 0.584902 0.46245
67 5 10.304 11.3749 4.14419
68 5 12.2621 11.5714 0.522464
69 4 11.1693 0.127682 5.6528
70 4 7.77383 12.4063 0.709389
71 4 11.3092 0.238258 7.04397
72 4 8.45008 0.212524 1.89625
73 5 5.96703 0.713322 7.22543
74 5 9.33659 12.1736 2.16369
75 4 8.89414 6.68169 5.77709
76 4 11.2556 5.66325 0.180095
77 5 9.61677 6.26041 5.1054
78 5 4.81893 5.13111 9.18954
79 4 9.3168 7.68315 6.73203
80 4 11.9759 4.73021 1.01291
81 5 10.3342 8.05295 6.7036
82 5 6.45929 3.80024 0.524429
83 4 9.63067 10.7291 6.13338
84 4 6.0949 1.57991 1.39579
85 4 10.7345 11.783 7.94352
86 4 7.93604 1.18053 2.82451
87 5 11.0008 11.8516 8.96829
88 4 7.3307 7.38256 7.88111
89 4 10.3491 5.04121 2.69235
90 5 9.90315 4.74727 3.61183
91 4 6.70617 6.81041 6.7497
92 4 9.85545 6.2194 2.02141
93 5 -0.150041 5.68168 7.40504
94 5 9.07874 6.81325 2.48567
95 4 7.5409 6.23382 5.77034
96 4 10.3352 6.57265 0.747596
97 4 11.7448 1.2318 4.65421
98 4 8.1823 11.358 9.99515
99 4 7.03356 5.00105 4.97536
100 4 9.91292 7.92268 0.0294183
101 6 1.79651 10.5003 5.4297
102 6 0.609918 10.2354 5.95391
103 5 2.00515 10.1769 4.41302
104 5 0.345011 10.618 6.91708
105 5 -0.0890539 9.60016 5.4195
106 6 11.4069 1.73295 0.298734
107 6 10.223 2.22155 0.646217
108 5 11.438 1.71944 9.52405
109 5 9.96356 2.36714 1.67483
110 5 9.30091 2.54232 10.1524
111 6 0.278274 8.04874 8.72045
112 6 0.35576 7.75274 10.0181
113 5 -0.176212 8.97673 8.41547
114 5 0.183526 8.43324 0.489297
115 5 1.14154 6.89479 0.0690533
116 6 4.36054 6.16289 3.75738
117 6 3.55053 5.15997 4.03639
118 5 4.62077 6.88412 4.51729
119 5 3.36725 4.41568 3.2792
120 5 3.3056 4.93192 5.06851
121 6 8.45353 10.0456 5.56828
122 6 7.23397 10.3535 5.97482
123 5 8.57604 9.40767 4.69672
124 5 7.11125 11.1391 6.69456
125 5 6.36649 9.89033 5.51471
126 6 8.20443 0.859638 4.24105
127 6 8.76755 1.71618 5.10742
128 5 7.79161 12.4694 4.62387
129 5 9.12759 2.67916 4.79858
130 5 8.78521 1.47318 6.16519
131 6 7.41934 6.44977 9.02512
132 6 8.05945 5.27463 8.92282
133 5 7.06715 6.75372 9.9876
134 5 8.18543 4.65437 9.80039
135 5 8.51097 4.95844 7.98958
136 6 0.732801 4.17391 0.490858
137 6 1.91134 4.61302 0.925172
138 5 0.481426 3.55048 9.8782
139 5 1.97009 5.41322 1.65354
140 5 2.82169 4.1948 0.514663
