ITEM: TIMESTEP
0
ITEM: NUMBER OF ATOMS
148
ITEM: BOX BOUNDS xy xz yz pp pp pp
-2.2759399999999999e-01 1.2505599999999999e+01 0.0000000000000000e+00
0.0000000000000000e+00 1.2523400000000001e+01 -2.2759399999999999e-01
0.0000000000000000e+00 1.0274279000000000e+01 0.0000000000000000e+00
ITEM: ATOMS id type x y z
1 1 2.7968 9.28499 8.82325
2 1 6.00989 2.83758 3.58243
3 2 1.14566 4.15182 3.55451
4 2 4.30802 8.31136 9.11878
5 2 4.53138 1.78364 3.73366
6 2 1.28091 10.2643 8.93433
7 2 5.59362 3.99962 4.86403
8 2 2.39165 8.18834 10.1868
9 2 0.118023 1.9942 4.71472
10 2 3.15457 10.5814 10.0656
11 3 3.54499 10.4372 7.36929
12 3 0.356064 1.81124 2.11729
13 3 2.11693 7.93414 7.41996
14 3 5.26329 4.09659 2.26899
15 4 3.52045 11.5495 5.14313
16 4 0.025375 0.0518257 0.528954
17 4 4.66643 12.3391 5.493
18 4 1.44502 12.2939 0.383793
19 4 5.36531 11.8916 6.61418
20 4 2.27765 0.745601 0.990132
21 5 3.34866 0.686664 0.87047
22 4 2.39142 6.55254 5.36643
23 4 5.75491 5.93113 0.743257
24 5 3.01516 6.28802 4.53228
25 4 2.89313 7.51329 6.3496
26 4 6.08093 4.6756 1.36541
27 5 3.89641 7.90181 6.23713
28 5 0.421271 4.0204 0.76218
29 4 2.97488 10.5893 6.11279
30 4 12.1623 0.692057 1.73537
31 5 2.03323 10.102 5.90436
32 5 5.28737 2.0126 0.663687
33 4 4.75364 11.0468 7.5925
34 4 1.69837 1.82161 1.76751
35 5 5.25487 10.8826 8.53131
36 5 2.34496 2.58875 2.14863
37 4 0.783563 7.55293 7.37017
38 4 4.04506 4.68979 2.50622
39 5 0.0490715 8.21161 7.76507
40 5 3.47052 4.34931 3.34569
41 4 0.35335 6.38548 6.61428
42 4 3.60415 5.86031 1.78229
43 5 2.70586 6.3508 2.10557
44 4 1.11115 5.94201 5.51446
45 4 4.43154 6.48485 0.817086
46 4 5.2264 1.05227 4.65332
47 4 1.86178 11.005 9.92145
48 4 0.48168 4.86602 4.50089
49 4 3.66111 7.71491 10.1705
50 1 9.11424 9.42532 8.61235
51 1 12.1519 3.10116 3.45708
52 2 7.5027 3.88693 3.75223
53 2 10.587 8.40457 8.91519
54 2 10.661 2.10635 3.69841
55 2 7.64179 10.463 8.68338
56 2 11.7549 4.30908 4.66239
57 2 8.66516 8.36708 9.98887
58 2 6.46247 1.61046 4.83025
59 2 9.53352 10.6884 9.81738
60 3 9.8939 10.5661 7.14703
61 3 6.73278 1.63799 2.1751
62 3 8.35804 8.06474 7.24708
63 3 11.3717 4.25446 2.10914
64 4 9.49895 12.3325 5.50345
65 4 6.61702 0.650182 10.2125
66 5 8.74991 0.411247 5.04909
67 4 10.8429 0.259772 5.53595
68 4 7.81631 12.2028 0.34812
69 4 11.7031 12.1442 6.45342
70 4 8.30451 12.3591 1.65668
71 5 6.3968 12.1478 6.70728
72 5 9.12054 11.7385 2.00355
73 4 8.56149 6.59442 5.25321
74 4 11.8763 5.89714 0.439267
75 5 9.11815 6.36078 4.37735
76 4 9.04855 7.6736 6.11575
77 4 12.0615 4.60773 1.02055
78 5 9.99397 8.1443 5.88294
79 5 7.07187 4.25997 1.24701
80 4 9.07415 11.1774 6.23605
81 4 6.15265 1.43025 0.947087
82 5 8.06875 10.8106 6.10335
83 5 11.1749 0.510296 2.11846
84 4 11.2355 10.951 7.16265
85 4 7.87943 0.941244 2.4534
86 5 11.8921 10.4387 7.80927
87 5 8.50673 1.29178 3.23096
88 4 7.06643 7.54931 7.3645
89 4 10.2215 4.94625 2.39602
90 5 6.3186 8.14407 7.84465
91 5 9.64424 4.63795 3.23862
92 4 6.66592 6.30632 6.68798
93 4 9.87562 6.16075 1.70949
94 5 9.10861 6.78983 2.12
95 4 7.38469 5.84305 5.56921
96 4 10.6548 6.62799 0.633555
97 4 11.3638 1.47103 4.65942
98 4 8.29021 11.2042 9.62406
99 4 6.82985 4.57817 4.70901
100 4 9.92475 7.85623 9.97764
101 6 2.93367 11.6506 3.75717
102 7 2.12693 10.4771 3.41973
103 5 3.7617 11.7457 3.01967
104 5 2.3114 0.0420073 3.70456
105 5 2.2497 10.2327 2.41158
106 5 1.11689 10.6703 3.61378
107 6 11.5257 0.598868 9.61041
108 7 10.5576 1.64614 9.96109
109 5 11 12.3207 9.11971
110 5 12.1908 1.10056 8.92444
111 5 9.91031 1.2229 0.0511205
112 5 10.3292 2.22743 9.12136
113 6 11.5925 5.60492 6.91618
114 7 10.9142 5.8524 8.14957
115 5 11.8785 4.52566 6.93217
116 5 10.8857 5.80205 6.09553
117 5 10.719 4.92653 8.59949
118 5 9.96925 6.20975 7.93485
119 6 6.87965 6.69825 0.2092
120 7 7.59612 5.78349 9.82347
121 5 6.34477 7.50602 9.83269
122 5 7.33579 7.18864 1.0812
123 5 7.09636 5.11025 9.22127
124 5 8.23238 6.25406 9.17434
125 6 0.583995 0.27843 6.62839
126 7 1.50442 12.4698 7.68826
127 5 1.10935 0.125081 5.66827
128 5 0.384501 1.35831 6.79807
129 5 2.45772 0.128097 7.31809
130 5 1.56578 0.71935 8.38032
131 6 6.68419 1.21188 8.82634
132 7 7.13212 2.59072 8.87247
133 5 5.66807 1.17946 8.38301
134 5 7.41388 0.653163 8.21197
135 5 6.296 3.16926 9.10157
136 5 7.50597 2.87188 7.9366
137 6 5.4503 5.48627 7.07889
138 7 4.83075 5.7803 8.33625
139 5 4.69854 5.58511 6.27562
140 5 5.77387 4.42333 7.12958
141 5 4.689 4.87837 8.84847
142 5 3.86888 6.09612 8.14437
143 6 0.584139 6.57438 0.0421495
144 7 1.26783 5.62686 9.64988
145 5 0.144654 7.46828 9.73765
146 5 1.01433 6.92374 0.993302
147 5 0.775107 4.98013 8.99436
148 5 2.01408 6.09505 9.12508
