ITEM: TIMESTEP
0
ITEM: NUMBER OF ATOMS
148
ITEM: BOX BOUNDS xy xz yz pp pp pp
-2.2759399999999999e-01 1.2505599999999999e+01 0.0000000000000000e+00
0.0000000000000000e+00 1.2523400000000001e+01 -2.2759399999999999e-01
0.0000000000000000e+00 1.0274279000000000e+01 0.0000000000000000e+00
ITEM: ATOMS id type x y z
1 1 3.30194 9.58122 8.71427
2 1 5.89609 3.3357 3.57606
3 2 1.67331 3.84605 4.25957
4 2 4.84386 8.66684 8.81054
5 2 4.33978 2.36328 3.68065
6 2 1.82688 10.5072 8.97807
7 2 5.36137 4.69179 4.68026
8 2 3.03953 8.46822 10.086
9 2 0.421255 1.64053 5.18705
10 2 3.78278 10.9039 9.89237
11 3 3.76197 10.7817 7.19542
12 3 0.818515 1.72297 2.49062
13 3 2.5739 8.16653 7.46217
14 3 5.54991 4.49454 1.95646
15 4 3.1246 0.248188 5.9228
16 4 1.06208 0.848808 0.209158
17 5 2.40714 1.02924 6.02222
18 5 6.22352 0.556484 9.44209
19 4 4.44565 0.591119 5.67547
20 4 2.06768 12.411 0.567258
21 4 5.35207 12.5112 6.55856
22 4 2.48972 12.4984 1.90439
23 5 11.4765 1.07499 7.82805
24 5 3.29215 11.8611 2.25465
25 4 2.7055 6.57224 5.55548
26 4 6.2024 6.6035 0.913743
27 5 3.23651 6.24227 4.68676
28 5 11.7883 5.44601 9.61851
29 4 3.21597 7.71564 6.29086
30 4 6.54114 5.38129 1.56214
31 5 0.674788 3.88829 0.902458
32 4 2.813 11.4587 6.40603
33 4 0.241894 1.47719 1.24318
34 5 5.51412 2.366 0.627637
35 4 5.0302 11.2994 7.21451
36 4 1.92895 0.959753 2.80016
37 5 5.7423 10.8837 7.88103
38 5 2.35687 1.066 3.75566
39 4 1.5134 7.40345 7.9206
40 4 4.30492 4.71241 1.39265
41 5 0.994829 7.7062 8.81993
42 4 1.13598 6.16239 7.29831
43 4 4.19537 5.54791 0.23233
44 5 6.20839 5.3696 7.41305
45 5 3.07187 5.50657 9.89873
46 4 1.65592 5.77558 6.05107
47 4 5.02394 6.67483 0.157968
48 4 4.89191 1.84022 4.84207
49 4 2.50235 11.3473 9.82017
50 4 1.06645 4.52957 5.25899
51 4 4.28411 8.00656 9.86095
52 1 9.01528 9.28895 9.06503
53 1 0.131217 2.95936 3.96665
54 2 7.35037 4.25746 3.87937
55 2 10.5935 8.38302 9.25965
56 2 11.0844 2.03587 4.05854
57 2 7.43074 10.1762 9.20992
58 2 12.3024 4.09515 5.34626
59 2 8.92378 8.00408 0.0544112
60 2 6.09817 2.34416 5.00371
61 2 9.4866 10.4866 0.125735
62 3 9.67832 10.6902 7.74881
63 3 6.67951 1.86968 2.35722
64 3 8.42246 7.98933 7.61752
65 3 12.0237 4.41691 2.63212
66 4 10.1436 11.5673 5.49048
67 4 6.72949 0.593643 0.211168
68 5 10.1293 11.3265 4.43646
69 5 0.68628 1.12315 9.4508
70 4 10.8754 0.177075 5.96251
71 4 7.52945 12.0782 0.761117
72 4 10.9468 0.248233 7.37381
73 4 7.81668 12.2042 2.11586
74 5 6.16308 0.573278 6.95782
75 5 8.40091 11.4258 2.59405
76 4 8.15355 7.17618 5.3171
77 4 11.8316 5.52077 0.399051
78 5 8.3099 7.40405 4.27258
79 5 6.8206 7.47588 1.04319
80 4 8.92671 7.86989 6.32409
81 4 12.4433 4.54782 1.30731
82 5 7.57703 5.17927 1.77671
83 4 9.32188 10.7934 6.42031
84 4 6.24265 1.69149 1.04588
85 5 8.44481 10.2856 6.05726
86 4 10.6478 11.579 8.17524
87 4 7.53227 0.894061 2.84258
88 4 7.41042 7.10717 7.95701
89 4 11.0455 5.31408 3.03283
90 5 6.97383 7.16797 8.92325
91 4 6.92767 6.09675 7.05774
92 4 10.8125 6.54316 2.27882
93 5 0.407385 5.53078 7.7748
94 5 10.2361 7.34015 2.73222
95 4 7.26935 6.12881 5.69588
96 4 10.9862 6.55312 0.884525
97 4 11.6552 1.21606 4.99648
98 4 8.00054 10.9332 10.1858
99 4 6.64364 5.1102 4.6623
100 4 9.99715 7.5994 10.1984
101 6 1.83243 10.6978 5.5361
102 7 0.839731 9.97528 6.29484
103 5 1.3061 11.4044 4.85063
104 5 2.34571 10.0194 4.84493
105 5 -0.050447 10.5069 6.24156
106 5 0.666329 9.05765 5.83126
107 6 11.2365 1.31599 1.1177
108 7 10.5229 2.57469 0.994372
109 5 10.8528 0.733863 1.97956
110 5 10.9825 0.720666 0.216945
111 5 9.5104 2.40948 1.19493
112 5 10.6098 2.9254 0.0122192
113 6 4.55977 8.2572 5.83833
114 7 4.46723 9.07986 4.63874
115 5 5.14646 8.77404 6.59593
116 5 5.16121 7.38666 5.57082
117 5 5.38916 9.54289 4.46429
118 5 4.21217 8.49188 3.81245
119 6 3.1366 4.67866 2.26489
120 7 2.39866 5.95157 2.28329
121 5 2.50789 3.82575 1.96692
122 5 3.52623 4.52653 3.26802
123 5 1.93594 6.14792 1.36966
124 5 3.03791 6.74667 2.51226
125 6 11.8078 10.9979 8.89635
126 7 11.8865 10.6152 0.0252702
127 5 0.0781791 11.7407 8.78523
128 5 12.0916 10.0849 8.35195
129 5 0.0725079 9.86946 0.271117
130 5 12.0028 11.3932 0.694503
131 6 8.31769 1.13855 4.0371
132 7 7.72111 0.45684 5.15593
133 5 9.29792 0.728904 3.82565
134 5 8.40637 2.20017 4.23663
135 5 7.53788 11.972 4.95843
136 5 8.20941 0.686774 6.05007
137 6 10.3684 8.18093 6.01361
138 7 11.0826 6.96985 5.68554
139 5 10.4119 8.84191 5.1228
140 5 10.8808 8.66625 6.86038
141 5 11.997 7.20768 5.24308
142 5 11.1977 6.40651 6.55445
143 6 9.84653 4.75541 3.68847
144 7 9.97222 4.42046 5.10626
145 5 9.54569 3.86198 3.10741
146 5 9.08458 5.52597 3.56909
147 5 9.61134 3.47734 5.34319
148 5 9.52379 5.08757 5.75173
