Created on Wed Aug 12 10:59:48 2020 

         124 atoms
         144 bonds
         268 angles
         288 dihedrals
         192 impropers

           7 atom types
          10 bond types
          18 angle types
           3 dihedral types
           1 improper types
           0.000000  12.505600 xlo xhi
           0.000000  12.523400 ylo yhi
           0.000000  10.274279 zlo zhi
           0.000000  -0.227594   0.000000 xy xz yz

Masses

    1    58.693400000 # Ni4+2
    2    15.999400000 # O_R
    3    14.006700000 # N_R
    4    12.010700000 # C_R
    5     1.007940000 # H_
    6    12.010700000 # C_2
    7    32.065000000 # S_2

Bond Coeffs

    1      321.720028        1.793457  # Ni4+2 O_R
    2      328.673665        1.841585  # Ni4+2 N_R
    3      646.680887        1.311940  # O_R C_R
    4      663.718927        1.345073  # N_R C_R
    5      462.655054        1.379256  # C_R C_R
    6      357.440381        1.081418  # C_R H_
    7      391.669513        1.458000  # C_R C_R
    8      389.261715        1.461000  # C_R C_2
    9      583.155474        1.433030  # C_2 S_2
   10      354.483902        1.084416  # C_2 H_

Angle Coeffs

    1      322.980216               1               4 # O_R Ni4+2 O_R
    2      343.030950               1               4 # O_R Ni4+2 N_R
    3      364.965660               1               4 # N_R Ni4+2 N_R
    4      238.346347              -1               3 # C_R O_R Ni4+2
    5      177.809033              -1               3 # Ni4+2 N_R C_R
    6      240.001032              -1               3 # C_R N_R C_R
    7      114.578032              -1               3 # C_R C_R H_
    8      222.595017              -1               3 # C_R C_R C_R
    9      204.366560              -1               3 # C_R C_R C_R
   10      307.398705              -1               3 # N_R C_R C_R
   11      280.743239              -1               3 # N_R C_R C_2
   12      203.704287              -1               3 # C_R C_R C_2
   13      159.573934              -1               3 # N_R C_R H_
   14      263.511421              -1               3 # O_R C_R C_R
   15      374.272657              -1               3 # O_R C_R O_R
   16      272.481264              -1               3 # C_R C_2 S_2
   17      102.542651              -1               3 # C_R C_2 H_
   18      150.379226              -1               3 # S_2 C_2 H_

Dihedral Coeffs

    1        2.245703              -1               2 # Ni4+2 O_R C_R C_R
    2        1.497136              -1               2 # Ni4+2 N_R C_R C_2
    3        0.555556              -1               2 # C_R C_R C_R O_R

Improper Coeffs

    1        2.000000        1.000000       -1.000000        0.000000               0 # Ni4+2 N_R C_R C_R

Pair Coeffs

    1        0.015000        2.524807 # Ni4+2 Ni4+2
    2        0.060000        3.118146 # O_R O_R
    3        0.069000        3.260689 # N_R N_R
    4        0.105000        3.430851 # C_R C_R
    5        0.044000        2.571134 # H_ H_
    6        0.105000        3.430851 # C_2 C_2
    7        0.274000        3.594776 # S_2 S_2

Atoms

       1      444        1     0.00000    2.89857    9.41116    8.59265
       2      444        1     0.00000    6.17525    3.10579    3.48481
       3      444        2     0.00000    1.44827    4.35425    3.93374
       4      444        2     0.00000    4.44160    8.15245    9.05464
       5      444        2     0.00000    4.63665    1.84729    3.87523
       6      444        2     0.00000    1.36499   10.67435    9.00295
       7      444        2     0.00000    5.80609    4.46033    4.96242
       8      444        2     0.00000    2.54244    8.03270   10.06753
       9      444        2     0.00000    0.25117    1.69264    4.94273
      10      444        2     0.00000    3.23722   10.80466   10.06262
      11      444        3     0.00000    3.69677   10.66058    7.24160
      12      444        3     0.00000    0.71256    1.86420    2.11704
      13      444        3     0.00000    2.17217    8.14409    7.25198
      14      444        3     0.00000    5.44023    4.39481    2.13747
      15      444        4     0.00000    3.48546   12.14832    5.36301
      16      444        4     0.00000    0.47488    0.38955    0.22920
      17      444        5     0.00000    2.86453   12.51808    4.55267
      18      444        5     0.00000    5.86971    0.03371    9.69377
      19      444        4     0.00000    4.76073    0.14740    5.61481
      20      444        4     0.00000    1.74333   12.36991    0.47412
      21      444        4     0.00000    5.50345   12.15023    6.68209
      22      444        4     0.00000    2.49852    0.35508    1.54004
      23      444        5     0.00000    0.24768   12.50843    6.91993
      24      444        5     0.00000    3.49155   12.50668    1.77336
      25      444        4     0.00000    2.48363    6.63370    5.40822
      26      444        4     0.00000    5.72803    5.90364    0.28669
      27      444        5     0.00000    3.13294    6.27291    4.61605
      28      444        5     0.00000   -0.10828    6.26667    9.76620
      29      444        4     0.00000    2.92756    7.68099    6.23068
      30      444        4     0.00000    6.18830    4.86756    1.11596
      31      444        4     0.00000    2.98256   11.13588    6.19748
      32      444        4     0.00000   -0.01036    1.40553    1.07106
      33      444        5     0.00000    5.26093    1.85011    0.92351
      34      444        4     0.00000    4.93641   11.13810    7.47507
      35      444        4     0.00000    1.94823    1.37190    2.34060
      36      444        5     0.00000    5.48559   10.70967    8.30944
      37      444        4     0.00000    0.94573    7.62654    7.47302
      38      444        4     0.00000    4.21083    4.90458    2.35686
      39      444        5     0.00000    0.36328    8.05184    8.28732
      40      444        5     0.00000    3.63605    4.47744    3.17528
      41      444        4     0.00000    0.43859    6.57577    6.69176
      42      444        4     0.00000    3.68763    5.94500    1.56944
      43      444        5     0.00000    5.70774    6.17693    6.91975
      44      444        5     0.00000    2.69824    6.32683    1.80071
      45      444        4     0.00000    1.22745    6.06471    5.65205
      46      444        4     0.00000    4.46338    6.45777    0.52027
      47      444        4     0.00000    5.31260    1.24381    4.79419
      48      444        4     0.00000    2.05020   11.26755    9.92158
      49      444        4     0.00000    0.73548    4.94016    4.83586
      50      444        4     0.00000    3.73174    7.56629    9.95688
      51      444        1     0.00000    9.15137    9.41116    8.59265
      52      444        1     0.00000   12.42805    3.10579    3.48481
      53      444        2     0.00000    7.70109    4.35425    3.93374
      54      444        2     0.00000   10.69440    8.15245    9.05464
      55      444        2     0.00000   10.88945    1.84729    3.87523
      56      444        2     0.00000    7.61779   10.67435    9.00295
      57      444        2     0.00000   12.05889    4.46033    4.96242
      58      444        2     0.00000    8.79524    8.03270   10.06753
      59      444        2     0.00000    6.50397    1.69264    4.94273
      60      444        2     0.00000    9.49002   10.80466   10.06262
      61      444        3     0.00000    9.94957   10.66058    7.24160
      62      444        3     0.00000    6.96536    1.86420    2.11704
      63      444        3     0.00000    8.42499    8.14409    7.25198
      64      444        3     0.00000   11.69303    4.39481    2.13747
      65      444        4     0.00000    9.73826   12.14832    5.36301
      66      444        4     0.00000    6.72768    0.38955    0.22920
      67      444        5     0.00000    9.11733   12.51808    4.55267
      68      444        5     0.00000   12.12251    0.03371    9.69377
      69      444        4     0.00000   11.01353    0.14740    5.61481
      70      444        4     0.00000    7.99613   12.36991    0.47412
      71      444        4     0.00000   11.75625   12.15023    6.68209
      72      444        4     0.00000    8.75132    0.35508    1.54004
      73      444        5     0.00000    6.50047   12.50843    6.91993
      74      444        5     0.00000    9.74435   12.50668    1.77336
      75      444        4     0.00000    8.73644    6.63370    5.40822
      76      444        4     0.00000   11.98084    5.90364    0.28669
      77      444        5     0.00000    9.38574    6.27291    4.61605
      78      444        5     0.00000    6.14452    6.26667    9.76620
      79      444        4     0.00000    9.18036    7.68099    6.23068
      80      444        4     0.00000   12.44110    4.86756    1.11596
      81      444        5     0.00000   10.15274    8.14655    6.08890
      82      444        4     0.00000    9.23536   11.13588    6.19748
      83      444        4     0.00000    6.24244    1.40553    1.07106
      84      444        5     0.00000    8.24672   10.70905    6.04703
      85      444        5     0.00000   11.51373    1.85011    0.92351
      86      444        4     0.00000   11.18921   11.13810    7.47507
      87      444        4     0.00000    8.20102    1.37190    2.34060
      88      444        4     0.00000    7.19853    7.62654    7.47302
      89      444        4     0.00000   10.46363    4.90458    2.35686
      90      444        5     0.00000    9.88885    4.47744    3.17528
      91      444        4     0.00000    6.69139    6.57577    6.69176
      92      444        4     0.00000    9.94043    5.94500    1.56944
      93      444        5     0.00000   11.96054    6.17693    6.91975
      94      444        5     0.00000    8.95104    6.32683    1.80071
      95      444        4     0.00000    7.48025    6.06471    5.65205
      96      444        4     0.00000   10.71618    6.45777    0.52027
      97      444        4     0.00000   11.56540    1.24381    4.79419
      98      444        4     0.00000    8.30300   11.26755    9.92158
      99      444        4     0.00000    6.98827    4.94016    4.83586
     100      444        4     0.00000    9.98454    7.56629    9.95688
     101      444        6     0.00000    1.61390   10.43576    6.02655
     102      444        7     0.00000    0.71117   10.84196    5.24277
     103      444        5     0.00000    1.30546    9.76550    6.82392
     104      444        6     0.00000    2.67111    2.05905    3.52608
     105      444        7     0.00000    3.74904    1.63791    4.03098
     106      444        5     0.00000    2.07589    2.73422    4.13439
     107      444        6     0.00000    4.26776    8.43584    6.07299
     108      444        7     0.00000    5.20222    8.05416    5.31449
     109      444        5     0.00000    4.53166    9.13328    6.86300
     110      444        6     0.00000    7.56605    4.17442    0.99827
     111      444        7     0.00000    8.34364    4.32195    0.01451
     112      444        5     0.00000    7.72921    3.30255    1.62549
     113      444        6     0.00000   11.89571   10.43875    8.66362
     114      444        7     0.00000    0.46927   10.84590    9.17732
     115      444        5     0.00000   11.28855    9.76862    9.26566
     116      444        6     0.00000    8.90227    2.02032    3.56039
     117      444        7     0.00000   10.12206    1.85310    3.84031
     118      444        5     0.00000    8.41169    2.88280    4.00274
     119      444        6     0.00000    6.44130    8.32559    8.62773
     120      444        7     0.00000    5.36729    7.88939    9.12815
     121      444        5     0.00000    7.00912    9.03255    9.22605
     122      444        6     0.00000    1.29017    4.13664    0.96389
     123      444        7     0.00000    2.21918    4.53197    0.20569
     124      444        5     0.00000    1.56501    3.44755    1.75750

Bonds

       1        1        1        4
       2        1        1        6
       3        1        1        8
       4        1        1       10
       5        2        1       11
       6        2        1       13
       7        1        2        5
       8        1        2        7
       9        2        2       14
      10        1        2       53
      11        1        2       59
      12        2        2       62
      13        3        3       49
      14        1        3       52
      15        3        4       50
      16        3        5       47
      17        3        6       48
      18        3        7       99
      19        3        8       50
      20        1        9       52
      21        3        9       97
      22        3       10       48
      23        4       11       31
      24        4       11       34
      25        4       12       32
      26        4       12       35
      27        2       12       52
      28        4       13       29
      29        4       13       37
      30        4       14       30
      31        4       14       38
      32        6       15       17
      33        5       15       19
      34        5       15       31
      35        5       16       20
      36        5       16       32
      37        6       16       68
      38        6       18       66
      39        5       19       21
      40        7       19       47
      41        5       20       22
      42        7       20       48
      43        5       21       34
      44        6       21       73
      45        6       22       24
      46        5       22       35
      47        6       23       71
      48        6       25       27
      49        5       25       29
      50        5       25       45
      51        5       26       30
      52        5       26       46
      53        6       26       78
      54        6       28       76
      55        8       29      107
      56        8       30      110
      57        8       31      101
      58        6       32       85
      59        6       33       83
      60        6       34       36
      61        8       35      104
      62        6       37       39
      63        5       37       41
      64        6       38       40
      65        5       38       42
      66        5       41       45
      67        6       41       93
      68        6       42       44
      69        5       42       46
      70        6       43       91
      71        7       45       49
      72        7       46       50
      73        3       47       59
      74        3       49       57
      75        1       51       54
      76        1       51       56
      77        1       51       58
      78        1       51       60
      79        2       51       61
      80        2       51       63
      81        1       52       55
      82        1       52       57
      83        2       52       64
      84        3       53       99
      85        3       54      100
      86        3       55       97
      87        3       56       98
      88        3       58      100
      89        3       60       98
      90        4       61       82
      91        4       61       86
      92        4       62       83
      93        4       62       87
      94        4       63       79
      95        4       63       88
      96        4       64       80
      97        4       64       89
      98        6       65       67
      99        5       65       69
     100        5       65       82
     101        5       66       70
     102        5       66       83
     103        5       69       71
     104        7       69       97
     105        5       70       72
     106        7       70       98
     107        5       71       86
     108        6       72       74
     109        5       72       87
     110        6       75       77
     111        5       75       79
     112        5       75       95
     113        5       76       80
     114        5       76       96
     115        6       79       81
     116        8       80      122
     117        6       82       84
     118        8       86      113
     119        8       87      116
     120        5       88       91
     121        8       88      119
     122        6       89       90
     123        5       89       92
     124        5       91       95
     125        6       92       94
     126        5       92       96
     127        7       95       99
     128        7       96      100
     129        9      101      102
     130       10      101      103
     131        9      104      105
     132       10      104      106
     133        9      107      108
     134       10      107      109
     135        9      110      111
     136       10      110      112
     137        9      113      114
     138       10      113      115
     139        9      116      117
     140       10      116      118
     141        9      119      120
     142       10      119      121
     143        9      122      123
     144       10      122      124

Angles

       1        1        4        1        6
       2        1        4        1        8
       3        1        4        1       10
       4        2        4        1       11
       5        2        4        1       13
       6        1        6        1        8
       7        1        6        1       10
       8        2        6        1       11
       9        2        6        1       13
      10        1        8        1       10
      11        2        8        1       11
      12        2        8        1       13
      13        2       10        1       11
      14        2       10        1       13
      15        3       11        1       13
      16        2       14        2        5
      17        2       14        2        7
      18        2       14        2       53
      19        2       14        2       59
      20        3       14        2       62
      21        1        5        2        7
      22        1        5        2       53
      23        1        5        2       59
      24        2        5        2       62
      25        1        7        2       53
      26        1        7        2       59
      27        2        7        2       62
      28        1       53        2       59
      29        2       53        2       62
      30        2       59        2       62
      31        4       49        3       52
      32        4        1        4       50
      33        4        2        5       47
      34        4        1        6       48
      35        4        2        7       99
      36        4        1        8       50
      37        4       52        9       97
      38        4        1       10       48
      39        5        1       11       31
      40        5        1       11       34
      41        6       31       11       34
      42        6       32       12       35
      43        5       32       12       52
      44        5       35       12       52
      45        5        1       13       29
      46        5        1       13       37
      47        6       29       13       37
      48        5        2       14       30
      49        5        2       14       38
      50        6       30       14       38
      51        7       19       15       17
      52        8       19       15       31
      53        7       17       15       31
      54        8       20       16       32
      55        7       20       16       68
      56        7       32       16       68
      57        8       15       19       21
      58        9       15       19       47
      59        9       21       19       47
      60        8       16       20       22
      61        9       16       20       48
      62        9       22       20       48
      63        8       19       21       34
      64        7       19       21       73
      65        7       34       21       73
      66        8       20       22       35
      67        7       20       22       24
      68        7       35       22       24
      69        8       29       25       45
      70        7       29       25       27
      71        7       45       25       27
      72        8       30       26       46
      73        7       30       26       78
      74        7       46       26       78
      75       10       13       29       25
      76       11       13       29      107
      77       12       25       29      107
      78       10       14       30       26
      79       11       14       30      110
      80       12       26       30      110
      81       11      101       31       11
      82       12      101       31       15
      83       10       11       31       15
      84       10       12       32       16
      85       13       12       32       85
      86        7       16       32       85
      87       10       21       34       11
      88        7       21       34       36
      89       13       11       34       36
      90       10       12       35       22
      91       11       12       35      104
      92       12       22       35      104
      93       10       13       37       41
      94       13       13       37       39
      95        7       41       37       39
      96       10       14       38       42
      97       13       14       38       40
      98        7       42       38       40
      99        8       37       41       45
     100        7       37       41       93
     101        7       45       41       93
     102        8       38       42       46
     103        7       38       42       44
     104        7       46       42       44
     105        8       25       45       41
     106        9       25       45       49
     107        9       41       45       49
     108        8       26       46       42
     109        9       26       46       50
     110        9       42       46       50
     111       14        5       47       19
     112       15        5       47       59
     113       14       19       47       59
     114       14       10       48       20
     115       15       10       48        6
     116       14       20       48        6
     117       14        3       49       45
     118       15        3       49       57
     119       14       45       49       57
     120       14        8       50       46
     121       15        8       50        4
     122       14       46       50        4
     123        1       54       51       56
     124        1       54       51       58
     125        1       54       51       60
     126        2       54       51       61
     127        2       54       51       63
     128        1       56       51       58
     129        1       56       51       60
     130        2       56       51       61
     131        2       56       51       63
     132        1       58       51       60
     133        2       58       51       61
     134        2       58       51       63
     135        2       60       51       61
     136        2       60       51       63
     137        3       61       51       63
     138        2        9       52       12
     139        1        9       52       55
     140        1        9       52        3
     141        1        9       52       57
     142        2        9       52       64
     143        2       12       52       55
     144        2       12       52        3
     145        2       12       52       57
     146        3       12       52       64
     147        1       55       52        3
     148        1       55       52       57
     149        2       55       52       64
     150        1        3       52       57
     151        2        3       52       64
     152        2       57       52       64
     153        4        2       53       99
     154        4       51       54      100
     155        4       52       55       97
     156        4       51       56       98
     157        4       49       57       52
     158        4       51       58      100
     159        4        2       59       47
     160        4       51       60       98
     161        5       51       61       82
     162        5       51       61       86
     163        6       82       61       86
     164        5        2       62       87
     165        5        2       62       83
     166        6       87       62       83
     167        5       51       63       79
     168        5       51       63       88
     169        6       79       63       88
     170        5       89       64       52
     171        6       89       64       80
     172        5       52       64       80
     173        7       69       65       67
     174        8       69       65       82
     175        7       67       65       82
     176        7       70       66       18
     177        8       70       66       83
     178        7       18       66       83
     179        9       65       69       97
     180        8       65       69       71
     181        9       97       69       71
     182        8       66       70       72
     183        9       66       70       98
     184        9       72       70       98
     185        7       86       71       23
     186        8       86       71       69
     187        7       23       71       69
     188        7       70       72       74
     189        8       70       72       87
     190        7       74       72       87
     191        8       79       75       95
     192        7       79       75       77
     193        7       95       75       77
     194        7       28       76       80
     195        7       28       76       96
     196        8       80       76       96
     197       10       63       79       75
     198       13       63       79       81
     199        7       75       79       81
     200       11      122       80       64
     201       12      122       80       76
     202       10       64       80       76
     203       10       61       82       65
     204       13       61       82       84
     205        7       65       82       84
     206        7       66       83       33
     207       10       66       83       62
     208       13       33       83       62
     209       10       71       86       61
     210       12       71       86      113
     211       11       61       86      113
     212       11       62       87      116
     213       10       62       87       72
     214       12      116       87       72
     215       11       63       88      119
     216       10       63       88       91
     217       12      119       88       91
     218       10       64       89       92
     219       13       64       89       90
     220        7       92       89       90
     221        7       95       91       43
     222        8       95       91       88
     223        7       43       91       88
     224        8       89       92       96
     225        7       89       92       94
     226        7       96       92       94
     227        8       75       95       91
     228        9       75       95       99
     229        9       91       95       99
     230        8       92       96       76
     231        9       92       96      100
     232        9       76       96      100
     233       14       69       97        9
     234       14       69       97       55
     235       15        9       97       55
     236       14       60       98       70
     237       15       60       98       56
     238       14       70       98       56
     239       14       53       99       95
     240       15       53       99        7
     241       14       95       99        7
     242       14       58      100       96
     243       15       58      100       54
     244       14       96      100       54
     245       16       31      101      102
     246       17       31      101      103
     247       18      102      101      103
     248       16       35      104      105
     249       17       35      104      106
     250       18      105      104      106
     251       16       29      107      108
     252       17       29      107      109
     253       18      108      107      109
     254       16       30      110      111
     255       17       30      110      112
     256       18      111      110      112
     257       16       86      113      114
     258       17       86      113      115
     259       18      114      113      115
     260       16       87      116      117
     261       17       87      116      118
     262       18      117      116      118
     263       16       88      119      120
     264       17       88      119      121
     265       18      120      119      121
     266       16       80      122      123
     267       17       80      122      124
     268       18      123      122      124

Dihedrals

       1        1       52        3       49       45
       2        1       52        3       49       57
       3        1        1        4       50        8
       4        1        1        4       50       46
       5        1        2        5       47       19
       6        1        2        5       47       59
       7        1        1        6       48       10
       8        1        1        6       48       20
       9        1        2        7       99       53
      10        1        2        7       99       95
      11        1        1        8       50       46
      12        1        1        8       50        4