Created on Wed Aug 12 10:59:31 2020 

         124 atoms
         144 bonds
         268 angles
         288 dihedrals
         192 impropers

           7 atom types
          10 bond types
          17 angle types
           3 dihedral types
           1 improper types
           0.000000  12.505600 xlo xhi
           0.000000  12.523400 ylo yhi
           0.000000  10.274279 zlo zhi
           0.000000  -0.227594   0.000000 xy xz yz

Masses

    1    58.693400000 # Ni4+2
    2    15.999400000 # O_R
    3    14.006700000 # N_R
    4    12.010700000 # C_R
    5     1.007940000 # H_
    6    12.010700000 # C_2
    7    32.065000000 # S_2

Bond Coeffs

    1      321.720028        1.793457  # Ni4+2 O_R
    2      328.673665        1.841585  # Ni4+2 N_R
    3      646.680887        1.311940  # O_R C_R
    4      663.718927        1.345073  # N_R C_R
    5      462.655054        1.379256  # C_R C_R
    6      357.440381        1.081418  # C_R H_
    7      391.669513        1.458000  # C_R C_R
    8      389.261715        1.461000  # C_R C_2
    9      583.155474        1.433030  # C_2 S_2
   10      354.483902        1.084416  # C_2 H_

Angle Coeffs

    1      322.980216               1               4 # O_R Ni4+2 O_R
    2      343.030950               1               4 # O_R Ni4+2 N_R
    3      364.965660               1               4 # N_R Ni4+2 N_R
    4      238.346347              -1               3 # C_R O_R Ni4+2
    5      177.809033              -1               3 # Ni4+2 N_R C_R
    6      240.001032              -1               3 # C_R N_R C_R
    7      114.578032              -1               3 # C_R C_R H_
    8      222.595017              -1               3 # C_R C_R C_R
    9      204.366560              -1               3 # C_R C_R C_R
   10      203.704287              -1               3 # C_R C_R C_2
   11      307.398705              -1               3 # N_R C_R C_R
   12      159.573934              -1               3 # N_R C_R H_
   13      263.511421              -1               3 # O_R C_R C_R
   14      374.272657              -1               3 # O_R C_R O_R
   15      272.481264              -1               3 # C_R C_2 S_2
   16      102.542651              -1               3 # C_R C_2 H_
   17      150.379226              -1               3 # S_2 C_2 H_

Dihedral Coeffs

    1        2.245703              -1               2 # Ni4+2 O_R C_R C_R
    2        1.497136              -1               2 # Ni4+2 N_R C_R C_R
    3        0.555556              -1               2 # C_R C_R C_R O_R

Improper Coeffs

    1        2.000000        1.000000       -1.000000        0.000000               0 # Ni4+2 N_R C_R C_R

Pair Coeffs

    1        0.015000        2.524807 # Ni4+2 Ni4+2
    2        0.060000        3.118146 # O_R O_R
    3        0.069000        3.260689 # N_R N_R
    4        0.105000        3.430851 # C_R C_R
    5        0.044000        2.571134 # H_ H_
    6        0.105000        3.430851 # C_2 C_2
    7        0.274000        3.594776 # S_2 S_2

Atoms

       1      444        1     0.00000    2.89857    9.41116    8.59265
       2      444        1     0.00000    6.17525    3.10579    3.48481
       3      444        2     0.00000    1.44827    4.35425    3.93374
       4      444        2     0.00000    4.44160    8.15245    9.05464
       5      444        2     0.00000    4.63665    1.84729    3.87523
       6      444        2     0.00000    1.36499   10.67435    9.00295
       7      444        2     0.00000    5.80609    4.46033    4.96242
       8      444        2     0.00000    2.54244    8.03270   10.06753
       9      444        2     0.00000    0.25117    1.69264    4.94273
      10      444        2     0.00000    3.23722   10.80466   10.06262
      11      444        3     0.00000    3.69677   10.66058    7.24160
      12      444        3     0.00000    0.71256    1.86420    2.11704
      13      444        3     0.00000    2.17217    8.14409    7.25198
      14      444        3     0.00000    5.44023    4.39481    2.13747
      15      444        4     0.00000    3.48546   12.14832    5.36301
      16      444        4     0.00000    0.47488    0.38955    0.22920
      17      444        5     0.00000    2.86453   12.51808    4.55267
      18      444        5     0.00000    5.86971    0.03371    9.69377
      19      444        4     0.00000    4.76073    0.14740    5.61481
      20      444        4     0.00000    1.74333   12.36991    0.47412
      21      444        4     0.00000    5.50345   12.15023    6.68209
      22      444        4     0.00000    2.49852    0.35508    1.54004
      23      444        5     0.00000    0.24768   12.50843    6.91993
      24      444        4     0.00000    2.48363    6.63370    5.40822
      25      444        4     0.00000    5.72803    5.90364    0.28669
      26      444        4     0.00000    2.92756    7.68099    6.23068
      27      444        4     0.00000    6.18830    4.86756    1.11596
      28      444        5     0.00000    3.89994    8.14655    6.08890
      29      444        5     0.00000    0.91589    4.41889    0.97634
      30      444        4     0.00000    2.98256   11.13588    6.19748
      31      444        4     0.00000   -0.01036    1.40553    1.07106
      32      444        5     0.00000    1.99392   10.70905    6.04703
      33      444        5     0.00000    5.26093    1.85011    0.92351
      34      444        4     0.00000    4.93641   11.13810    7.47507
      35      444        4     0.00000    1.94823    1.37190    2.34060
      36      444        5     0.00000    5.48559   10.70967    8.30944
      37      444        5     0.00000    2.50886    1.79214    3.17267
      38      444        4     0.00000    0.94573    7.62654    7.47302
      39      444        4     0.00000    4.21083    4.90458    2.35686
      40      444        5     0.00000    0.36328    8.05184    8.28732
      41      444        5     0.00000    3.63605    4.47744    3.17528
      42      444        4     0.00000    0.43859    6.57577    6.69176
      43      444        4     0.00000    3.68763    5.94500    1.56944
      44      444        5     0.00000    5.70774    6.17693    6.91975
      45      444        4     0.00000    1.22745    6.06471    5.65205
      46      444        4     0.00000    4.46338    6.45777    0.52027
      47      444        4     0.00000    5.31260    1.24381    4.79419
      48      444        4     0.00000    2.05020   11.26755    9.92158
      49      444        4     0.00000    0.73548    4.94016    4.83586
      50      444        4     0.00000    3.73174    7.56629    9.95688
      51      444        1     0.00000    9.15137    9.41116    8.59265
      52      444        1     0.00000   12.42805    3.10579    3.48481
      53      444        2     0.00000    7.70109    4.35425    3.93374
      54      444        2     0.00000   10.69440    8.15245    9.05464
      55      444        2     0.00000   10.88945    1.84729    3.87523
      56      444        2     0.00000    7.61779   10.67435    9.00295
      57      444        2     0.00000   12.05889    4.46033    4.96242
      58      444        2     0.00000    8.79524    8.03270   10.06753
      59      444        2     0.00000    6.50397    1.69264    4.94273
      60      444        2     0.00000    9.49002   10.80466   10.06262
      61      444        3     0.00000    9.94957   10.66058    7.24160
      62      444        3     0.00000    6.96536    1.86420    2.11704
      63      444        3     0.00000    8.42499    8.14409    7.25198
      64      444        3     0.00000   11.69303    4.39481    2.13747
      65      444        4     0.00000    9.73826   12.14832    5.36301
      66      444        4     0.00000    6.72768    0.38955    0.22920
      67      444        5     0.00000   12.12251    0.03371    9.69377
      68      444        4     0.00000   11.01353    0.14740    5.61481
      69      444        4     0.00000    7.99613   12.36991    0.47412
      70      444        4     0.00000   11.75625   12.15023    6.68209
      71      444        4     0.00000    8.75132    0.35508    1.54004
      72      444        4     0.00000    8.73644    6.63370    5.40822
      73      444        4     0.00000   11.98084    5.90364    0.28669
      74      444        5     0.00000    6.14452    6.26667    9.76620
      75      444        4     0.00000    9.18036    7.68099    6.23068
      76      444        4     0.00000   12.44110    4.86756    1.11596
      77      444        5     0.00000   10.15274    8.14655    6.08890
      78      444        5     0.00000    7.16869    4.41889    0.97634
      79      444        4     0.00000    9.23536   11.13588    6.19748
      80      444        4     0.00000    6.24244    1.40553    1.07106
      81      444        5     0.00000    8.24672   10.70905    6.04703
      82      444        5     0.00000   11.51373    1.85011    0.92351
      83      444        4     0.00000   11.18921   11.13810    7.47507
      84      444        4     0.00000    8.20102    1.37190    2.34060
      85      444        5     0.00000   11.73839   10.70967    8.30944
      86      444        5     0.00000    8.76167    1.79214    3.17267
      87      444        4     0.00000    7.19853    7.62654    7.47302
      88      444        4     0.00000   10.46363    4.90458    2.35686
      89      444        5     0.00000    6.61608    8.05184    8.28732
      90      444        5     0.00000    9.88885    4.47744    3.17528
      91      444        4     0.00000    6.69139    6.57577    6.69176
      92      444        4     0.00000    9.94043    5.94500    1.56944
      93      444        5     0.00000   11.96054    6.17693    6.91975
      94      444        5     0.00000    8.95104    6.32683    1.80071
      95      444        4     0.00000    7.48025    6.06471    5.65205
      96      444        4     0.00000   10.71618    6.45777    0.52027
      97      444        4     0.00000   11.56540    1.24381    4.79419
      98      444        4     0.00000    8.30300   11.26755    9.92158
      99      444        4     0.00000    6.98827    4.94016    4.83586
     100      444        4     0.00000    9.98454    7.56629    9.95688
     101      444        6     0.00000    6.89460    0.04208    7.14144
     102      444        7     0.00000    7.64589    0.79411    6.46009
     103      444        5     0.00000    7.37091   11.96268    7.90952
     104      444        6     0.00000    3.90902   12.48353    1.95594
     105      444        7     0.00000    4.50304   11.47096    1.49111
     106      444        5     0.00000    4.29047    0.36707    2.88818
     107      444        6     0.00000    3.49516    6.23772    4.34005
     108      444        7     0.00000    3.21830    5.45404    3.38957
     109      444        5     0.00000    4.36581    6.87476    4.21226
     110      444        6     0.00000    2.30296    6.39674    2.01281
     111      444        7     0.00000    1.58603    7.18096    1.33072
     112      444        5     0.00000    1.79621    5.79838    2.76473
     113      444        6     0.00000    8.78276    0.00274    4.23673
     114      444        7     0.00000    8.95918    1.01001    3.49612
     115      444        5     0.00000    7.77918   12.11148    4.26924
     116      444        6     0.00000   10.16182   12.48354    1.95594
     117      444        7     0.00000   10.75585   11.47097    1.49111
     118      444        5     0.00000   10.54326    0.36709    2.88818
     119      444        6     0.00000    9.74797    6.23772    4.34006
     120      444        7     0.00000    9.47113    5.45403    3.38958
     121      444        5     0.00000   10.61862    6.87475    4.21227
     122      444        6     0.00000    0.25796    6.30790    9.49195
     123      444        7     0.00000   -0.02738    7.08118    8.53548
     124      444        5     0.00000    1.13829    5.68293    9.37103

Bonds

       1        1        1        4
       2        1        1        6
       3        1        1        8
       4        1        1       10
       5        2        1       11
       6        2        1       13
       7        1        2        5
       8        1        2        7
       9        2        2       14
      10        1        2       53
      11        1        2       59
      12        2        2       62
      13        3        3       49
      14        1        3       52
      15        3        4       50
      16        3        5       47
      17        3        6       48
      18        3        7       99
      19        3        8       50
      20        1        9       52
      21        3        9       97
      22        3       10       48
      23        4       11       30
      24        4       11       34
      25        4       12       31
      26        4       12       35
      27        2       12       52
      28        4       13       26
      29        4       13       38
      30        4       14       27
      31        4       14       39
      32        6       15       17
      33        5       15       19
      34        5       15       30
      35        5       16       20
      36        5       16       31
      37        6       16       67
      38        6       18       66
      39        5       19       21
      40        7       19       47
      41        5       20       22
      42        7       20       48
      43        5       21       34
      44        8       21      101
      45        5       22       35
      46        8       22      104
      47        6       23       70
      48        5       24       26
      49        5       24       45
      50        8       24      107
      51        5       25       27
      52        5       25       46
      53        6       25       74
      54        6       26       28
      55        6       27       78
      56        6       29       76
      57        6       30       32
      58        6       31       82
      59        6       33       80
      60        6       34       36
      61        6       35       37
      62        6       38       40
      63        5       38       42
      64        6       39       41
      65        5       39       43
      66        5       42       45
      67        6       42       93
      68        5       43       46
      69        8       43      110
      70        6       44       91
      71        7       45       49
      72        7       46       50
      73        3       47       59
      74        3       49       57
      75        1       51       54
      76        1       51       56
      77        1       51       58
      78        1       51       60
      79        2       51       61
      80        2       51       63
      81        1       52       55
      82        1       52       57
      83        2       52       64
      84        3       53       99
      85        3       54      100
      86        3       55       97
      87        3       56       98
      88        3       58      100
      89        3       60       98
      90        4       61       79
      91        4       61       83
      92        4       62       80
      93        4       62       84
      94        4       63       75
      95        4       63       87
      96        4       64       76
      97        4       64       88
      98        5       65       68
      99        5       65       79
     100        8       65      113
     101        5       66       69
     102        5       66       80
     103        5       68       70
     104        7       68       97
     105        5       69       71
     106        7       69       98
     107        5       70       83
     108        5       71       84
     109        8       71      116
     110        5       72       75
     111        5       72       95
     112        8       72      119
     113        5       73       76
     114        5       73       96
     115        8       73      122
     116        6       75       77
     117        6       79       81
     118        6       83       85
     119        6       84       86
     120        6       87       89
     121        5       87       91
     122        6       88       90
     123        5       88       92
     124        5       91       95
     125        6       92       94
     126        5       92       96
     127        7       95       99
     128        7       96      100
     129        9      101      102
     130       10      101      103
     131        9      104      105
     132       10      104      106
     133        9      107      108
     134       10      107      109
     135        9      110      111
     136       10      110      112
     137        9      113      114
     138       10      113      115
     139        9      116      117
     140       10      116      118
     141        9      119      120
     142       10      119      121
     143        9      122      123
     144       10      122      124

Angles

       1        1        4        1        6
       2        1        4        1        8
       3        1        4        1       10
       4        2        4        1       11
       5        2        4        1       13
       6        1        6        1        8
       7        1        6        1       10
       8        2        6        1       11
       9        2        6        1       13
      10        1        8        1       10
      11        2        8        1       11
      12        2        8        1       13
      13        2       10        1       11
      14        2       10        1       13
      15        3       11        1       13
      16        2       14        2        5
      17        2       14        2        7
      18        2       14        2       53
      19        2       14        2       59
      20        3       14        2       62
      21        1        5        2        7
      22        1        5        2       53
      23        1        5        2       59
      24        2        5        2       62
      25        1        7        2       53
      26        1        7        2       59
      27        2        7        2       62
      28        1       53        2       59
      29        2       53        2       62
      30        2       59        2       62
      31        4       49        3       52
      32        4        1        4       50
      33        4        2        5       47
      34        4        1        6       48
      35        4        2        7       99
      36        4        1        8       50
      37        4       52        9       97
      38        4        1       10       48
      39        5        1       11       30
      40        5        1       11       34
      41        6       30       11       34
      42        6       31       12       35
      43        5       31       12       52
      44        5       35       12       52
      45        5        1       13       26
      46        5        1       13       38
      47        6       26       13       38
      48        5        2       14       27
      49        5        2       14       39
      50        6       27       14       39
      51        7       19       15       17
      52        8       19       15       30
      53        7       17       15       30
      54        8       20       16       31
      55        7       20       16       67
      56        7       31       16       67
      57        8       15       19       21
      58        9       15       19       47
      59        9       21       19       47
      60        8       16       20       22
      61        9       16       20       48
      62        9       22       20       48
      63        8       19       21       34
      64       10       19       21      101
      65       10       34       21      101
      66        8       20       22       35
      67       10       20       22      104
      68       10       35       22      104
      69        8       26       24       45
      70       10       26       24      107
      71       10       45       24      107
      72        8       27       25       46
      73        7       27       25       74
      74        7       46       25       74
      75       11       13       26       24
      76       12       13       26       28
      77        7       24       26       28
      78       11       14       27       25
      79       12       14       27       78
      80        7       25       27       78
      81       11       11       30       15
      82       12       11       30       32
      83        7       15       30       32
      84       11       12       31       16
      85       12       12       31       82
      86        7       16       31       82
      87       11       21       34       11
      88        7       21       34       36
      89       12       11       34       36
      90       11       12       35       22
      91       12       12       35       37
      92        7       22       35       37
      93       11       13       38       42
      94       12       13       38       40
      95        7       42       38       40
      96       11       14       39       43
      97       12       14       39       41
      98        7       43       39       41
      99        8       38       42       45
     100        7       38       42       93
     101        7       45       42       93
     102        8       39       43       46
     103       10       39       43      110
     104       10       46       43      110
     105        8       24       45       42
     106        9       24       45       49
     107        9       42       45       49
     108        8       25       46       43
     109        9       25       46       50
     110        9       43       46       50
     111       13        5       47       19
     112       14        5       47       59
     113       13       19       47       59
     114       13       10       48       20
     115       14       10       48        6
     116       13       20       48        6
     117       13        3       49       45
     118       14        3       49       57
     119       13       45       49       57
     120       13        8       50       46
     121       14        8       50        4
     122       13       46       50        4
     123        1       54       51       56
     124        1       54       51       58
     125        1       54       51       60
     126        2       54       51       61
     127        2       54       51       63
     128        1       56       51       58
     129        1       56       51       60
     130        2       56       51       61
     131        2       56       51       63
     132        1       58       51       60
     133        2       58       51       61
     134        2       58       51       63
     135        2       60       51       61
     136        2       60       51       63
     137        3       61       51       63
     138        2        9       52       12
     139        1        9       52       55
     140        1        9       52        3
     141        1        9       52       57
     142        2        9       52       64
     143        2       12       52       55
     144        2       12       52        3
     145        2       12       52       57
     146        3       12       52       64
     147        1       55       52        3
     148        1       55       52       57
     149        2       55       52       64
     150        1        3       52       57
     151        2        3       52       64
     152        2       57       52       64
     153        4        2       53       99
     154        4       51       54      100
     155        4       52       55       97
     156        4       51       56       98
     157        4       49       57       52
     158        4       51       58      100
     159        4        2       59       47
     160        4       51       60       98
     161        5       51       61       79
     162        5       51       61       83
     163        6       79       61       83
     164        5        2       62       84
     165        5        2       62       80
     166        6       84       62       80
     167        5       51       63       75
     168        5       51       63       87
     169        6       75       63       87
     170        5       88       64       52
     171        6       88       64       76
     172        5       52       64       76
     173       10       68       65      113
     174        8       68       65       79
     175       10      113       65       79
     176        7       69       66       18
     177        8       69       66       80
     178        7       18       66       80
     179        9       65       68       97
     180        8       65       68       70
     181        9       97       68       70
     182        8       66       69       71
     183        9       66       69       98
     184        9       71       69       98
     185        7       83       70       23
     186        8       83       70       68
     187        7       23       70       68
     188        8       69       71       84
     189       10       69       71      116
     190       10       84       71      116
     191        8       75       72       95
     192       10       75       72      119
     193       10       95       72      119
     194        8       76       73       96
     195       10       76       73      122
     196       10       96       73      122
     197       11       63       75       72
     198       12       63       75       77
     199        7       72       75       77
     200        7       73       76       29
     201       11       73       76       64
     202       12       29       76       64
     203       11       61       79       65
     204       12       61       79       81
     205        7       65       79       81
     206        7       66       80       33
     207       11       66       80       62
     208       12       33       80       62
     209       11       70       83       61
     210        7       70       83       85
     211       12       61       83       85
     212       11       62       84       71
     213       12       62       84       86
     214        7       71       84       86
     215       12       63       87       89
     216       11       63       87       91
     217        7       89       87       91
     218       11       64       88       92
     219       12       64       88       90
     220        7       92       88       90
     221        7       95       91       44
     222        8       95       91       87
     223        7       44       91       87
     224        8       88       92       96
     225        7       88       92       94
     226        7       96       92       94
     227        8       72       95       91
     228        9       72       95       99
     229        9       91       95       99
     230        8       73       96       92
     231        9       73       96      100
     232        9       92       96      100
     233       13       68       97        9
     234       13       68       97       55
     235       14        9       97       55
     236       13       60       98       69
     237       14       60       98       56
     238       13       69       98       56
     239       13       53       99       95
     240       14       53       99        7
     241       13       95       99        7
     242       13       58      100       96
     243       14       58      100       54
     244       13       96      100       54
     245       15       21      101      102
     246       16       21      101      103
     247       17      102      101      103
     248       15       22      104      105
     249       16       22      104      106
     250       17      105      104      106
     251       15       24      107      108
     252       16       24      107      109
     253       17      108      107      109
     254       15       43      110      111
     255       16       43      110      112
     256       17      111      110      112
     257       15       65      113      114
     258       16       65      113      115
     259       17      114      113      115
     260       15       71      116      117
     261       16       71      116      118
     262       17      117      116      118
     263       15       72      119      120
     264       16       72      119      121
     265       17      120      119      121
     266       15       73      122      123
     267       16       73      122      124
     268       17      123      122      124

Dihedrals

       1        1       52        3       49       45
       2        1       52        3       49       57
       3        1        1        4       50        8
       4        1        1        4       50       46
       5        1        2        5       47       19
       6        1        2        5       47       59
       7        1        1        6       48       10
       8        1        1        6       48       20
       9        1        2        7       99       53
      10        1        2        7       99       95
      11        1        1        8       50       46
      12        1        1        8       50        4
      13        1       52        9       97       68