units           real
atom_style      full
boundary        p p p

pair_style      lj/cut 5.000
bond_style      harmonic
angle_style     cosine/periodic
dihedral_style  harmonic
improper_style  fourier

pair_modify     tail yes mix arithmetic
special_bonds   lj/coul 0.0 0.0 1.0
dielectric      1.0
box tilt        large
read_data       data.NiPyC2_relax_sc211_ortho_functionalized_CH-S
  triclinic box = (0 0 0) to (12.5056 12.5234 10.2743) with tilt (0 -0.227594 0)
  1 by 1 by 1 MPI processor grid
  reading atoms ...
  124 atoms
  scanning bonds ...
  6 = max bonds/atom
  scanning angles ...
  15 = max angles/atom
  scanning dihedrals ...
  8 = max dihedrals/atom
  scanning impropers ...
  3 = max impropers/atom
  reading bonds ...
  144 bonds
  reading angles ...
  268 angles
  reading dihedrals ...
  288 dihedrals
  reading impropers ...
  192 impropers
  6 = max # of 1-2 neighbors
  9 = max # of 1-3 neighbors
  12 = max # of special neighbors
  special bonds CPU = 0.000167099 secs
  read_data CPU = 0.00581671 secs

#### Atom Groupings ####
group           fram     id   1:124
124 atoms in group fram
#### END Atom Groupings ####

dump            NiPyC2_relax_sc211_ortho_functionalized_CH-S_xyzmov all xyz 20000 NiPyC2_relax_sc211_ortho_functionalized_CH-S_mov.xyz
dump_modify     NiPyC2_relax_sc211_ortho_functionalized_CH-S_xyzmov element Ni O N C H C S
min_style       cg
print           "MinStep,CellMinStep,AtomMinStep,FinalStep,Energy,EDiff" file NiPyC2_relax_sc211_ortho_functionalized_CH-S.min.csv screen no
variable        min_eval   equal 1.00e-06
variable        prev_E     equal 50000.00
variable        iter       loop 100000
label           loop_min
min_style       cg
fix             1 all box/relax aniso 0.0 vmax 0.01
minimize        1.0e-15 1.0e-15 10000 100000
WARNING: Using 'neigh_modify every 1 delay 0 check yes' setting during minimization (src/min.cpp:190)
Neighbor list info ...
  update every 1 steps, delay 0 steps, check yes
  max neighbors/atom: 2000, page size: 100000
  master list distance cutoff = 7
  ghost atom cutoff = 7
  binsize = 3.5, bins = 4 4 3
  1 neighbor lists, perpetual/occasional/extra = 1 0 0
  (1) pair lj/cut, perpetual
      attributes: half, newton on
      pair build: half/bin/newton/tri
      stencil: half/bin/3d/newton/tri
      bin: standard
WARNING: Inconsistent image flags (src/domain.cpp:785)
WARNING: Bond/angle/dihedral extent > half of periodic box length (src/domain.cpp:906)
Per MPI rank memory allocation (min/avg/max) = 16.85 | 16.85 | 16.85 Mbytes
Step Temp E_pair E_mol TotEng Press Volume 
       0            0     31650245    2416.1367     31652661 5.3954445e+09    1609.0819 
     231            0    113.29397    1601.5977    1714.8917    529.23473    1620.9658 
WARNING: Bond/angle/dihedral extent > half of periodic box length (src/domain.cpp:906)
Loop time of 0.0618338 on 1 procs for 231 steps with 124 atoms

99.7% CPU use with 1 MPI tasks x 1 OpenMP threads

Minimization stats:
  Stopping criterion = linesearch alpha is zero
  Energy initial, next-to-last, final = 
         31652660.6686      1714.89168425      1714.89168425
  Force two-norm initial, final = 6.67208e+08 80.5612
  Force max component initial, final = 3.87326e+08 52.0705
  Final line search alpha, max atom move = 9.86688e-13 5.13773e-11
  Iterations, force evaluations = 231 363

MPI task timing breakdown:
Section |  min time  |  avg time  |  max time  |%varavg| %total
---------------------------------------------------------------
Pair    | 0.023801   | 0.023801   | 0.023801   |   0.0 | 38.49
Bond    | 0.021651   | 0.021651   | 0.021651   |   0.0 | 35.01
Neigh   | 0.0073745  | 0.0073745  | 0.0073745  |   0.0 | 11.93
Comm    | 0.0021992  | 0.0021992  | 0.0021992  |   0.0 |  3.56
Output  | 0          | 0          | 0          |   0.0 |  0.00
Modify  | 0          | 0          | 0          |   0.0 |  0.00
Other   |            | 0.006808   |            |       | 11.01

Nlocal:    124 ave 124 max 124 min
Histogram: 1 0 0 0 0 0 0 0 0 0
Nghost:    1274 ave 1274 max 1274 min
Histogram: 1 0 0 0 0 0 0 0 0 0
Neighs:    6057 ave 6057 max 6057 min
Histogram: 1 0 0 0 0 0 0 0 0 0

Total # of neighbors = 6057
Ave neighs/atom = 48.8468
Ave special neighs/atom = 6.3871
Neighbor list builds = 15
Dangerous builds = 0
unfix           1
min_style       fire
variable        tempstp    equal $(step)
variable        tempstp    equal 231
variable        CellMinStep equal ${tempstp}
variable        CellMinStep equal 231
minimize        1.0e-15 1.0e-15 10000 100000
WARNING: Using 'neigh_modify every 1 delay 0 check yes' setting during minimization (src/min.cpp:190)
  Parameters for fire: 
    dmax delaystep dtgrow dtshrink alpha0 alphashrink tmax tmin    integrator halfstepback 
     0.1        20    1.1      0.5   0.25        0.99   10 0.02 eulerimplicit          yes 
WARNING: Inconsistent image flags (src/domain.cpp:785)
WARNING: Bond/angle/dihedral extent > half of periodic box length (src/domain.cpp:906)
Per MPI rank memory allocation (min/avg/max) = 15.73 | 15.73 | 15.73 Mbytes
Step Temp E_pair E_mol TotEng Press 
     231            0    113.29397    1601.5977    1714.8917    529.23473 
    3627 1.2044352e-10    82.885097    1606.3391    1689.2242   -4363.2725 
WARNING: Bond/angle/dihedral extent > half of periodic box length (src/domain.cpp:906)
Loop time of 0.429026 on 1 procs for 3396 steps with 124 atoms

100.0% CPU use with 1 MPI tasks x 1 OpenMP threads

Minimization stats:
  Stopping criterion = energy tolerance
  Energy initial, next-to-last, final = 
         1714.89168425      1689.22418623      1689.22418623
  Force two-norm initial, final = 60.4538 5.67219e-05
  Force max component initial, final = 18.7478 9.61261e-06
  Final line search alpha, max atom move = 0 0
  Iterations, force evaluations = 3396 3396

MPI task timing breakdown:
Section |  min time  |  avg time  |  max time  |%varavg| %total
---------------------------------------------------------------
Pair    | 0.21779    | 0.21779    | 0.21779    |   0.0 | 50.76
Bond    | 0.18184    | 0.18184    | 0.18184    |   0.0 | 42.38
Neigh   | 0.00052185 | 0.00052185 | 0.00052185 |   0.0 |  0.12
Comm    | 0.016263   | 0.016263   | 0.016263   |   0.0 |  3.79
Output  | 0          | 0          | 0          |   0.0 |  0.00
Modify  | 0          | 0          | 0          |   0.0 |  0.00
Other   |            | 0.01261    |            |       |  2.94

Nlocal:    124 ave 124 max 124 min
Histogram: 1 0 0 0 0 0 0 0 0 0
Nghost:    1269 ave 1269 max 1269 min
Histogram: 1 0 0 0 0 0 0 0 0 0
Neighs:    6142 ave 6142 max 6142 min
Histogram: 1 0 0 0 0 0 0 0 0 0

Total # of neighbors = 6142
Ave neighs/atom = 49.5323
Ave special neighs/atom = 6.3871
Neighbor list builds = 1
Dangerous builds = 0
variable        AtomMinStep equal ${tempstp}
variable        AtomMinStep equal 231
variable        temppe     equal $(pe)
variable        temppe     equal 1689.2241862339817544
variable        min_E      equal abs(${prev_E}-${temppe})
variable        min_E      equal abs(50000-${temppe})
variable        min_E      equal abs(50000-1689.22418623398)
print           "${iter},${CellMinStep},${AtomMinStep},${AtomMinStep},$(pe),${min_E}" append NiPyC2_relax_sc211_ortho_functionalized_CH-S.min.csv screen no
if              "${min_E} < ${min_eval}" then "jump SELF break_min"
variable        prev_E     equal ${temppe}
variable        prev_E     equal 1689.22418623398
next            iter
jump            SELF loop_min
min_style       cg
fix             1 all box/relax aniso 0.0 vmax 0.01
minimize        1.0e-15 1.0e-15 10000 100000
WARNING: Using 'neigh_modify every 1 delay 0 check yes' setting during minimization (src/min.cpp:190)
WARNING: Inconsistent image flags (src/domain.cpp:785)
WARNING: Bond/angle/dihedral extent > half of periodic box length (src/domain.cpp:906)
Per MPI rank memory allocation (min/avg/max) = 16.85 | 16.85 | 16.85 Mbytes
Step Temp E_pair E_mol TotEng Press Volume 
    3627 1.2044352e-10    82.885097    1606.3391    1689.2242   -4363.2725    1620.9658 
    3632 1.2044352e-10    87.736879    1601.1451     1688.882   -232.07429    1613.8076 
WARNING: Bond/angle/dihedral extent > half of periodic box length (src/domain.cpp:906)
Loop time of 0.00947149 on 1 procs for 5 steps with 124 atoms

96.9% CPU use with 1 MPI tasks x 1 OpenMP threads

Minimization stats:
  Stopping criterion = linesearch alpha is zero
  Energy initial, next-to-last, final = 
         1689.22418623      1688.88202505      1688.88202505
  Force two-norm initial, final = 193.046 28.0063
  Force max component initial, final = 147.791 19.4419
  Final line search alpha, max atom move = 1.42247e-11 2.76556e-10
  Iterations, force evaluations = 5 59

MPI task timing breakdown:
Section |  min time  |  avg time  |  max time  |%varavg| %total
---------------------------------------------------------------
Pair    | 0.0042491  | 0.0042491  | 0.0042491  |   0.0 | 44.86
Bond    | 0.0037922  | 0.0037922  | 0.0037922  |   0.0 | 40.04
Neigh   | 0          | 0          | 0          |   0.0 |  0.00
Comm    | 0.00028735 | 0.00028735 | 0.00028735 |   0.0 |  3.03
Output  | 0          | 0          | 0          |   0.0 |  0.00
Modify  | 0          | 0          | 0          |   0.0 |  0.00
Other   |            | 0.001143   |            |       | 12.07

Nlocal:    124 ave 124 max 124 min
Histogram: 1 0 0 0 0 0 0 0 0 0
Nghost:    1269 ave 1269 max 1269 min
Histogram: 1 0 0 0 0 0 0 0 0 0
Neighs:    6148 ave 6148 max 6148 min
Histogram: 1 0 0 0 0 0 0 0 0 0

Total # of neighbors = 6148
Ave neighs/atom = 49.5806
Ave special neighs/atom = 6.3871
Neighbor list builds = 0
Dangerous builds = 0
unfix           1
min_style       fire
variable        tempstp    equal $(step)
variable        tempstp    equal 3632
variable        CellMinStep equal ${tempstp}
variable        CellMinStep equal 3632
minimize        1.0e-15 1.0e-15 10000 100000
WARNING: Using 'neigh_modify every 1 delay 0 check yes' setting during minimization (src/min.cpp:190)
  Parameters for fire: 
    dmax delaystep dtgrow dtshrink alpha0 alphashrink tmax tmin    integrator halfstepback 
     0.1        20    1.1      0.5   0.25        0.99   10 0.02 eulerimplicit          yes 
WARNING: Inconsistent image flags (src/domain.cpp:785)
WARNING: Bond/angle/dihedral extent > half of periodic box length (src/domain.cpp:906)
Per MPI rank memory allocation (min/avg/max) = 15.73 | 15.73 | 15.73 Mbytes
Step Temp E_pair E_mol TotEng Press 
    3632            0    87.736879    1601.1451     1688.882   -232.07429 
    5326 1.4823197e-10    85.340698    1603.3619    1688.7026   -1983.5119 
WARNING: Bond/angle/dihedral extent > half of periodic box length (src/domain.cpp:906)
Loop time of 0.215062 on 1 procs for 1694 steps with 124 atoms

99.9% CPU use with 1 MPI tasks x 1 OpenMP threads

Minimization stats:
  Stopping criterion = energy tolerance
  Energy initial, next-to-last, final = 
         1688.88202505      1688.70264631      1688.70264631
  Force two-norm initial, final = 13.6711 5.76046e-05
  Force max component initial, final = 2.13183 1.13563e-05
  Final line search alpha, max atom move = 0 0
  Iterations, force evaluations = 1694 1694

MPI task timing breakdown:
Section |  min time  |  avg time  |  max time  |%varavg| %total
---------------------------------------------------------------
Pair    | 0.10949    | 0.10949    | 0.10949    |   0.0 | 50.91
Bond    | 0.090898   | 0.090898   | 0.090898   |   0.0 | 42.27
Neigh   | 0          | 0          | 0          |   0.0 |  0.00
Comm    | 0.0081892  | 0.0081892  | 0.0081892  |   0.0 |  3.81
Output  | 0          | 0          | 0          |   0.0 |  0.00
Modify  | 0          | 0          | 0          |   0.0 |  0.00
Other   |            | 0.006485   |            |       |  3.02

Nlocal:    124 ave 124 max 124 min
Histogram: 1 0 0 0 0 0 0 0 0 0
Nghost:    1273 ave 1273 max 1273 min
Histogram: 1 0 0 0 0 0 0 0 0 0
Neighs:    6179 ave 6179 max 6179 min
Histogram: 1 0 0 0 0 0 0 0 0 0

Total # of neighbors = 6179
Ave neighs/atom = 49.8306
Ave special neighs/atom = 6.3871
Neighbor list builds = 0
Dangerous builds = 0
variable        AtomMinStep equal ${tempstp}
variable        AtomMinStep equal 3632
variable        temppe     equal $(pe)
variable        temppe     equal 1688.7026463099143712
variable        min_E      equal abs(${prev_E}-${temppe})
variable        min_E      equal abs(1689.22418623398-${temppe})
variable        min_E      equal abs(1689.22418623398-1688.70264630991)
print           "${iter},${CellMinStep},${AtomMinStep},${AtomMinStep},$(pe),${min_E}" append NiPyC2_relax_sc211_ortho_functionalized_CH-S.min.csv screen no
if              "${min_E} < ${min_eval}" then "jump SELF break_min"
variable        prev_E     equal ${temppe}
variable        prev_E     equal 1688.70264630991
next            iter
jump            SELF loop_min
min_style       cg
fix             1 all box/relax aniso 0.0 vmax 0.01
minimize        1.0e-15 1.0e-15 10000 100000
WARNING: Using 'neigh_modify every 1 delay 0 check yes' setting during minimization (src/min.cpp:190)
WARNING: Inconsistent image flags (src/domain.cpp:785)
WARNING: Bond/angle/dihedral extent > half of periodic box length (src/domain.cpp:906)
Per MPI rank memory allocation (min/avg/max) = 16.85 | 16.85 | 16.85 Mbytes
Step Temp E_pair E_mol TotEng Press Volume 
    5326 1.4823197e-10    85.340698    1603.3619    1688.7026   -1983.5119    1613.8076 
    5328 1.4823197e-10    87.100176    1601.5476    1688.6478   -1.6185237     1611.673 
WARNING: Bond/angle/dihedral extent > half of periodic box length (src/domain.cpp:906)
Loop time of 0.00806607 on 1 procs for 2 steps with 124 atoms

100.0% CPU use with 1 MPI tasks x 1 OpenMP threads

Minimization stats:
  Stopping criterion = linesearch alpha is zero
  Energy initial, next-to-last, final = 
         1688.70264631      1688.64776114      1688.64776114
  Force two-norm initial, final = 111.719 26.2364
  Force max component initial, final = 96.6152 20.4258
  Final line search alpha, max atom move = 1.30439e-11 2.66433e-10
  Iterations, force evaluations = 2 53

MPI task timing breakdown:
Section |  min time  |  avg time  |  max time  |%varavg| %total
---------------------------------------------------------------
Pair    | 0.0037337  | 0.0037337  | 0.0037337  |   0.0 | 46.29
Bond    | 0.0030889  | 0.0030889  | 0.0030889  |   0.0 | 38.29
Neigh   | 0          | 0          | 0          |   0.0 |  0.00
Comm    | 0.00026163 | 0.00026163 | 0.00026163 |   0.0 |  3.24
Output  | 0          | 0          | 0          |   0.0 |  0.00
Modify  | 0          | 0          | 0          |   0.0 |  0.00
Other   |            | 0.0009818  |            |       | 12.17

Nlocal:    124 ave 124 max 124 min
Histogram: 1 0 0 0 0 0 0 0 0 0
Nghost:    1273 ave 1273 max 1273 min
Histogram: 1 0 0 0 0 0 0 0 0 0
Neighs:    6180 ave 6180 max 6180 min
Histogram: 1 0 0 0 0 0 0 0 0 0

Total # of neighbors = 6180
Ave neighs/atom = 49.8387
Ave special neighs/atom = 6.3871
Neighbor list builds = 0
Dangerous builds = 0
unfix           1
min_style       fire
variable        tempstp    equal $(step)
variable        tempstp    equal 5328
variable        CellMinStep equal ${tempstp}
variable        CellMinStep equal 5328
minimize        1.0e-15 1.0e-15 10000 100000
WARNING: Using 'neigh_modify every 1 delay 0 check yes' setting during minimization (src/min.cpp:190)
  Parameters for fire: 
    dmax delaystep dtgrow dtshrink alpha0 alphashrink tmax tmin    integrator halfstepback 
     0.1        20    1.1      0.5   0.25        0.99   10 0.02 eulerimplicit          yes 
WARNING: Inconsistent image flags (src/domain.cpp:785)
WARNING: Bond/angle/dihedral extent > half of periodic box length (src/domain.cpp:906)
Per MPI rank memory allocation (min/avg/max) = 15.73 | 15.73 | 15.73 Mbytes
Step Temp E_pair E_mol TotEng Press 
    5328            0    87.100176    1601.5476    1688.6478   -1.6185237 
    6638 8.9276541e-11    86.238973    1602.3689    1688.6079   -1321.5227 
WARNING: Bond/angle/dihedral extent > half of periodic box length (src/domain.cpp:906)
Loop time of 0.165217 on 1 procs for 1310 steps with 124 atoms

100.0% CPU use with 1 MPI tasks x 1 OpenMP threads

Minimization stats:
  Stopping criterion = energy tolerance
  Energy initial, next-to-last, final = 
         1688.64776114      1688.60790491      1688.60790491
  Force two-norm initial, final = 7.9027 3.84354e-05
  Force max component initial, final = 1.6215 9.51142e-06
  Final line search alpha, max atom move = 0 0
  Iterations, force evaluations = 1310 1310

MPI task timing breakdown:
Section |  min time  |  avg time  |  max time  |%varavg| %total
---------------------------------------------------------------
Pair    | 0.084605   | 0.084605   | 0.084605   |   0.0 | 51.21
Bond    | 0.069528   | 0.069528   | 0.069528   |   0.0 | 42.08
Neigh   | 0          | 0          | 0          |   0.0 |  0.00
Comm    | 0.0062228  | 0.0062228  | 0.0062228  |   0.0 |  3.77
Output  | 0          | 0          | 0          |   0.0 |  0.00
Modify  | 0          | 0          | 0          |   0.0 |  0.00
Other   |            | 0.004861   |            |       |  2.94

Nlocal:    124 ave 124 max 124 min
Histogram: 1 0 0 0 0 0 0 0 0 0
Nghost:    1279 ave 1279 max 1279 min
Histogram: 1 0 0 0 0 0 0 0 0 0
Neighs:    6194 ave 6194 max 6194 min
Histogram: 1 0 0 0 0 0 0 0 0 0

Total # of neighbors = 6194
Ave neighs/atom = 49.9516
Ave special neighs/atom = 6.3871
Neighbor list builds = 0
Dangerous builds = 0
variable        AtomMinStep equal ${tempstp}
variable        AtomMinStep equal 5328
variable        temppe     equal $(pe)
variable        temppe     equal 1688.6079049110223878
variable        min_E      equal abs(${prev_E}-${temppe})
variable        min_E      equal abs(1688.70264630991-${temppe})
variable        min_E      equal abs(1688.70264630991-1688.60790491102)
print           "${iter},${CellMinStep},${AtomMinStep},${AtomMinStep},$(pe),${min_E}" append NiPyC2_relax_sc211_ortho_functionalized_CH-S.min.csv screen no
if              "${min_E} < ${min_eval}" then "jump SELF break_min"
variable        prev_E     equal ${temppe}
variable        prev_E     equal 1688.60790491102
next            iter
jump            SELF loop_min
min_style       cg
fix             1 all box/relax aniso 0.0 vmax 0.01
minimize        1.0e-15 1.0e-15 10000 100000
WARNING: Using 'neigh_modify every 1 delay 0 check yes' setting during minimization (src/min.cpp:190)
WARNING: Inconsistent image flags (src/domain.cpp:785)
WARNING: Bond/angle/dihedral extent > half of periodic box length (src/domain.cpp:906)
Per MPI rank memory allocation (min/avg/max) = 16.85 | 16.85 | 16.85 Mbytes
Step Temp E_pair E_mol TotEng Press Volume 
    6638 8.9276541e-11    86.238973    1602.3689    1688.6079   -1321.5227     1611.673 
    6641 8.9276541e-11    87.498478    1601.0694    1688.5678    -152.1947    1610.0932 
WARNING: Bond/angle/dihedral extent > half of periodic box length (src/domain.cpp:906)
Loop time of 0.00813021 on 1 procs for 3 steps with 124 atoms

100.0% CPU use with 1 MPI tasks x 1 OpenMP threads

Minimization stats:
  Stopping criterion = linesearch alpha is zero
  Energy initial, next-to-last, final = 
         1688.60790491       1688.5678328       1688.5678328
  Force two-norm initial, final = 89.3342 9.99129
  Force max component initial, final = 76.1599 6.79299
  Final line search alpha, max atom move = 1.03422e-10 7.02546e-10
  Iterations, force evaluations = 3 53

MPI task timing breakdown:
Section |  min time  |  avg time  |  max time  |%varavg| %total
---------------------------------------------------------------
Pair    | 0.0037843  | 0.0037843  | 0.0037843  |   0.0 | 46.55
Bond    | 0.0031022  | 0.0031022  | 0.0031022  |   0.0 | 38.16
Neigh   | 0          | 0          | 0          |   0.0 |  0.00
Comm    | 0.00025722 | 0.00025722 | 0.00025722 |   0.0 |  3.16
Output  | 0          | 0          | 0          |   0.0 |  0.00
Modify  | 0          | 0          | 0          |   0.0 |  0.00
Other   |            | 0.0009865  |            |       | 12.13

Nlocal:    124 ave 124 max 124 min
Histogram: 1 0 0 0 0 0 0 0 0 0
Nghost:    1279 ave 1279 max 1279 min
Histogram: 1 0 0 0 0 0 0 0 0 0
Neighs:    6195 ave 6195 max 6195 min
Histogram: 1 0 0 0 0 0 0 0 0 0

Total # of neighbors = 6195
Ave neighs/atom = 49.9597
Ave special neighs/atom = 6.3871
Neighbor list builds = 0
Dangerous builds = 0
unfix           1
min_style       fire
variable        tempstp    equal $(step)
variable        tempstp    equal 6641
variable        CellMinStep equal ${tempstp}
variable        CellMinStep equal 6641
minimize        1.0e-15 1.0e-15 10000 100000
WARNING: Using 'neigh_modify every 1 delay 0 check yes' setting during minimization (src/min.cpp:190)
  Parameters for fire: 
    dmax delaystep dtgrow dtshrink alpha0 alphashrink tmax tmin    integrator halfstepback 
     0.1        20    1.1      0.5   0.25        0.99   10 0.02 eulerimplicit          yes 
WARNING: Inconsistent image flags (src/domain.cpp:785)
WARNING: Bond/angle/dihedral extent > half of periodic box length (src/domain.cpp:906)
Per MPI rank memory allocation (min/avg/max) = 15.73 | 15.73 | 15.73 Mbytes
Step Temp E_pair E_mol TotEng Press 
    6641            0    87.498478    1601.0694    1688.5678    -152.1947 
    7970 1.3654991e-10    86.910103    1601.6418    1688.5519   -852.05686 
WARNING: Bond/angle/dihedral extent > half of periodic box length (src/domain.cpp:906)
Loop time of 0.172222 on 1 procs for 1329 steps with 124 atoms

100.0% CPU use with 1 MPI tasks x 1 OpenMP threads

Minimization stats:
  Stopping criterion = energy tolerance
  Energy initial, next-to-last, final = 
          1688.5678328      1688.55192179      1688.55192179
  Force two-norm initial, final = 6.7492 6.25996e-05
  Force max component initial, final = 1.18573 1.07709e-05
  Final line search alpha, max atom move = 0 0
  Iterations, force evaluations = 1329 1329

MPI task timing breakdown:
Section |  min time  |  avg time  |  max time  |%varavg| %total
---------------------------------------------------------------
Pair    | 0.08783    | 0.08783    | 0.08783    |   0.0 | 51.00
Bond    | 0.07251    | 0.07251    | 0.07251    |   0.0 | 42.10
Neigh   | 0          | 0          | 0          |   0.0 |  0.00
Comm    | 0.0065784  | 0.0065784  | 0.0065784  |   0.0 |  3.82
Output  | 0          | 0          | 0          |   0.0 |  0.00
Modify  | 0          | 0          | 0          |   0.0 |  0.00
Other   |            | 0.005304   |            |       |  3.08

Nlocal:    124 ave 124 max 124 min
Histogram: 1 0 0 0 0 0 0 0 0 0
Nghost:    1279 ave 1279 max 1279 min
Histogram: 1 0 0 0 0 0 0 0 0 0
Neighs:    6202 ave 6202 max 6202 min
Histogram: 1 0 0 0 0 0 0 0 0 0

Total # of neighbors = 6202
Ave neighs/atom = 50.0161
Ave special neighs/atom = 6.3871
Neighbor list builds = 0
Dangerous builds = 0
variable        AtomMinStep equal ${tempstp}
variable        AtomMinStep equal 6641
variable        temppe     equal $(pe)
variable        temppe     equal 1688.5519217938499423
variable        min_E      equal abs(${prev_E}-${temppe})
variable        min_E      equal abs(1688.60790491102-${temppe})
variable        min_E      equal abs(1688.60790491102-1688.55192179385)
print           "${iter},${CellMinStep},${AtomMinStep},${AtomMinStep},$(pe),${min_E}" append NiPyC2_relax_sc211_ortho_functionalized_CH-S.min.csv screen no
if              "${min_E} < ${min_eval}" then "jump SELF break_min"
variable        prev_E     equal ${temppe}
variable        prev_E     equal 1688.55192179385
next            iter
jump            SELF loop_min
min_style       cg
fix             1 all box/relax aniso 0.0 vmax 0.01
minimize        1.0e-15 1.0e-15 10000 100000
WARNING: Using 'neigh_modify every 1 delay 0 check yes' setting during minimization (src/min.cpp:190)
WARNING: Inconsistent image flags (src/domain.cpp:785)
WARNING: Bond/angle/dihedral extent > half of periodic box length (src/domain.cpp:906)
Per MPI rank memory allocation (min/avg/max) = 16.85 | 16.85 | 16.85 Mbytes
Step Temp E_pair E_mol TotEng Press Volume 
    7970 1.3654991e-10    86.910103    1601.6418    1688.5519   -852.05686    1610.0932 
    7972 1.3654991e-10    87.780668    1600.7668    1688.5474   -13.071283    1609.1629 
WARNING: Bond/angle/dihedral extent > half of periodic box length (src/domain.cpp:906)
Loop time of 0.008137 on 1 procs for 2 steps with 124 atoms

100.0% CPU use with 1 MPI tasks x 1 OpenMP threads

Minimization stats:
  Stopping criterion = linesearch alpha is zero
  Energy initial, next-to-last, final = 
         1688.55192179      1688.54743201      1688.54743201
  Force two-norm initial, final = 74.1928 15.2781
  Force max component initial, final = 61.0979 11.8066
  Final line search alpha, max atom move = 4.6458e-11 5.48511e-10
  Iterations, force evaluations = 2 51

MPI task timing breakdown:
Section |  min time  |  avg time  |  max time  |%varavg| %total
---------------------------------------------------------------
Pair    | 0.0037601  | 0.0037601  | 0.0037601  |   0.0 | 46.21
Bond    | 0.0031046  | 0.0031046  | 0.0031046  |   0.0 | 38.15
Neigh   | 0          | 0          | 0          |   0.0 |  0.00
Comm    | 0.00025877 | 0.00025877 | 0.00025877 |   0.0 |  3.18
Output  | 0          | 0          | 0          |   0.0 |  0.00
Modify  | 0          | 0          | 0          |   0.0 |  0.00
Other   |            | 0.001014   |            |       | 12.46

Nlocal:    124 ave 124 max 124 min
Histogram: 1 0 0 0 0 0 0 0 0 0
Nghost:    1279 ave 1279 max 1279 min
Histogram: 1 0 0 0 0 0 0 0 0 0
Neighs:    6202 ave 6202 max 6202 min
Histogram: 1 0 0 0 0 0 0 0 0 0

Total # of neighbors = 6202
Ave neighs/atom = 50.0161
Ave special neighs/atom = 6.3871
Neighbor list builds = 0
Dangerous builds = 0
unfix           1
min_style       fire
variable        tempstp    equal $(step)
variable        tempstp    equal 7972
variable        CellMinStep equal ${tempstp}
variable        CellMinStep equal 7972
minimize        1.0e-15 1.0e-15 10000 100000
WARNING: Using 'neigh_modify every 1 delay 0 check yes' setting during minimization (src/min.cpp:190)
  Parameters for fire: 
    dmax delaystep dtgrow dtshrink alpha0 alphashrink tmax tmin    integrator halfstepback 
     0.1        20    1.1      0.5   0.25        0.99   10 0.02 eulerimplicit          yes 
WARNING: Inconsistent image flags (src/domain.cpp:785)
WARNING: Bond/angle/dihedral extent > half of periodic box length (src/domain.cpp:906)
Per MPI rank memory allocation (min/avg/max) = 15.73 | 15.73 | 15.73 Mbytes
Step Temp E_pair E_mol TotEng Press 
    7972            0    87.780668    1600.7668    1688.5474   -13.071283 
    9075 1.3439396e-10    87.387495    1601.1525      1688.54   -597.65034 
WARNING: Bond/angle/dihedral extent > half of periodic box length (src/domain.cpp:906)
Loop time of 0.140411 on 1 procs for 1103 steps with 124 atoms

99.8% CPU use with 1 MPI tasks x 1 OpenMP threads

Minimization stats:
  Stopping criterion = energy tolerance
  Energy initial, next-to-last, final = 
         1688.54743201      1688.54002968      1688.54002968
  Force two-norm initial, final = 5.50468 5.08084e-05
  Force max component initial, final = 1.02865 8.74513e-06
  Final line search alpha, max atom move = 0 0
  Iterations, force evaluations = 1103 1103

MPI task timing breakdown:
Section |  min time  |  avg time  |  max time  |%varavg| %total
---------------------------------------------------------------
Pair    | 0.072312   | 0.072312   | 0.072312   |   0.0 | 51.50
Bond    | 0.058673   | 0.058673   | 0.058673   |   0.0 | 41.79
Neigh   | 0          | 0          | 0          |   0.0 |  0.00
Comm    | 0.0053003  | 0.0053003  | 0.0053003  |   0.0 |  3.77
Output  | 0          | 0          | 0          |   0.0 |  0.00
Modify  | 0          | 0          | 0          |   0.0 |  0.00
Other   |            | 0.004126   |            |       |  2.94

Nlocal:    124 ave 124 max 124 min
Histogram: 1 0 0 0 0 0 0 0 0 0
Nghost:    1279 ave 1279 max 1279 min
Histogram: 1 0 0 0 0 0 0 0 0 0
Neighs:    6209 ave 6209 max 6209 min
Histogram: 1 0 0 0 0 0 0 0 0 0

Total # of neighbors = 6209
Ave neighs/atom = 50.0726
Ave special neighs/atom = 6.3871
Neighbor list builds = 0
Dangerous builds = 0
variable        AtomMinStep equal ${tempstp}
variable        AtomMinStep equal 7972
variable        temppe     equal $(pe)
variable        temppe     equal 1688.5400296844861714
variable        min_E      equal abs(${prev_E}-${temppe})
variable        min_E      equal abs(1688.55192179385-${temppe})
variable        min_E      equal abs(1688.55192179385-1688.54002968449)
print           "${iter},${CellMinStep},${AtomMinStep},${AtomMinStep},$(pe),${min_E}" append NiPyC2_relax_sc211_ortho_functionalized_CH-S.min.csv screen no
if              "${min_E} < ${min_eval}" then "jump SELF break_min"
variable        prev_E     equal ${temppe}
variable        prev_E     equal 1688.54002968449
next            iter
jump            SELF loop_min
min_style       cg
fix             1 all box/relax aniso 0.0 vmax 0.01
minimize        1.0e-15 1.0e-15 10000 100000
WARNING: Using 'neigh_modify every 1 delay 0 check yes' setting during minimization (src/min.cpp:190)
WARNING: Inconsistent image flags (src/domain.cpp:785)
WARNING: Bond/angle/dihedral extent > half of periodic box length (src/domain.cpp:906)
Per MPI rank memory allocation (min/avg/max) = 16.85 | 16.85 | 16.85 Mbytes
Step Temp E_pair E_mol TotEng Press Volume 
    9075 1.3439396e-10    87.387495    1601.1525      1688.54   -597.65034    1609.1629 
    9076 1.3439396e-10    87.387495    1601.1525      1688.54   -597.65034    1609.1629 
WARNING: Bond/angle/dihedral extent > half of periodic box length (src/domain.cpp:906)
Loop time of 0.00819992 on 1 procs for 1 steps with 124 atoms

100.0% CPU use with 1 MPI tasks x 1 OpenMP threads

Minimization stats:
  Stopping criterion = linesearch alpha is zero
  Energy initial, next-to-last, final = 
         1688.54002968      1688.54002968      1688.54002968
  Force two-norm initial, final = 63.729 63.729
  Force max component initial, final = 49.7285 49.7285
  Final line search alpha, max atom move = 2.9965e-12 1.49012e-10
  Iterations, force evaluations = 1 53

MPI task timing breakdown:
Section |  min time  |  avg time  |  max time  |%varavg| %total
---------------------------------------------------------------
Pair    | 0.0038294  | 0.0038294  | 0.0038294  |   0.0 | 46.70
Bond    | 0.0031167  | 0.0031167  | 0.0031167  |   0.0 | 38.01
Neigh   | 0          | 0          | 0          |   0.0 |  0.00
Comm    | 0.00025935 | 0.00025935 | 0.00025935 |   0.0 |  3.16
Output  | 0          | 0          | 0          |   0.0 |  0.00
Modify  | 0          | 0          | 0          |   0.0 |  0.00
Other   |            | 0.0009944  |            |       | 12.13

Nlocal:    124 ave 124 max 124 min
Histogram: 1 0 0 0 0 0 0 0 0 0
Nghost:    1279 ave 1279 max 1279 min
Histogram: 1 0 0 0 0 0 0 0 0 0
Neighs:    6209 ave 6209 max 6209 min
Histogram: 1 0 0 0 0 0 0 0 0 0

Total # of neighbors = 6209
Ave neighs/atom = 50.0726
Ave special neighs/atom = 6.3871
Neighbor list builds = 0
Dangerous builds = 0
unfix           1
min_style       fire
variable        tempstp    equal $(step)
variable        tempstp    equal 9076
variable        CellMinStep equal ${tempstp}
variable        CellMinStep equal 9076
minimize        1.0e-15 1.0e-15 10000 100000
WARNING: Using 'neigh_modify every 1 delay 0 check yes' setting during minimization (src/min.cpp:190)
  Parameters for fire: 
    dmax delaystep dtgrow dtshrink alpha0 alphashrink tmax tmin    integrator halfstepback 
     0.1        20    1.1      0.5   0.25        0.99   10 0.02 eulerimplicit          yes 
WARNING: Inconsistent image flags (src/domain.cpp:785)
WARNING: Bond/angle/dihedral extent > half of periodic box length (src/domain.cpp:906)
Per MPI rank memory allocation (min/avg/max) = 15.73 | 15.73 | 15.73 Mbytes
Step Temp E_pair E_mol TotEng Press 
    9076            0    87.387495    1601.1525      1688.54   -597.65034 
    9132  8.84809e-11    87.387492    1601.1525      1688.54   -597.65064 
WARNING: Bond/angle/dihedral extent > half of periodic box length (src/domain.cpp:906)
Loop time of 0.00746203 on 1 procs for 56 steps with 124 atoms

100.0% CPU use with 1 MPI tasks x 1 OpenMP threads

Minimization stats:
  Stopping criterion = energy tolerance
  Energy initial, next-to-last, final = 
         1688.54002968      1688.54002968      1688.54002968
  Force two-norm initial, final = 5.08084e-05 4.24686e-05
  Force max component initial, final = 8.74513e-06 6.95103e-06
  Final line search alpha, max atom move = 0 0
  Iterations, force evaluations = 56 56

MPI task timing breakdown:
Section |  min time  |  avg time  |  max time  |%varavg| %total
---------------------------------------------------------------
Pair    | 0.0037985  | 0.0037985  | 0.0037985  |   0.0 | 50.90
Bond    | 0.0030474  | 0.0030474  | 0.0030474  |   0.0 | 40.84
Neigh   | 0          | 0          | 0          |   0.0 |  0.00
Comm    | 0.00027968 | 0.00027968 | 0.00027968 |   0.0 |  3.75
Output  | 0          | 0          | 0          |   0.0 |  0.00
Modify  | 0          | 0          | 0          |   0.0 |  0.00
Other   |            | 0.0003365  |            |       |  4.51

Nlocal:    124 ave 124 max 124 min
Histogram: 1 0 0 0 0 0 0 0 0 0
Nghost:    1279 ave 1279 max 1279 min
Histogram: 1 0 0 0 0 0 0 0 0 0
Neighs:    6209 ave 6209 max 6209 min
Histogram: 1 0 0 0 0 0 0 0 0 0

Total # of neighbors = 6209
Ave neighs/atom = 50.0726
Ave special neighs/atom = 6.3871
Neighbor list builds = 0
Dangerous builds = 0
variable        AtomMinStep equal ${tempstp}
variable        AtomMinStep equal 9076
variable        temppe     equal $(pe)
variable        temppe     equal 1688.54002968435816
variable        min_E      equal abs(${prev_E}-${temppe})
variable        min_E      equal abs(1688.54002968449-${temppe})
variable        min_E      equal abs(1688.54002968449-1688.54002968436)
print           "${iter},${CellMinStep},${AtomMinStep},${AtomMinStep},$(pe),${min_E}" append NiPyC2_relax_sc211_ortho_functionalized_CH-S.min.csv screen no
if              "${min_E} < ${min_eval}" then "jump SELF break_min"
jump SELF break_min
undump          NiPyC2_relax_sc211_ortho_functionalized_CH-S_xyzmov

# Dump last snapshot for restart
variable curr_lx equal lx
variable curr_ly equal ly
variable curr_lz equal lz
change_box all x final 0 ${curr_lx} y final 0 ${curr_ly} z final 0 ${curr_lz}
change_box all x final 0 14.9192411882772 y final 0 ${curr_ly} z final 0 ${curr_lz}
change_box all x final 0 14.9192411882772 y final 0 10.2064230005898 z final 0 ${curr_lz}
change_box all x final 0 14.9192411882772 y final 0 10.2064230005898 z final 0 10.5676814633792
  triclinic box = (0 1.15849 -0.146701) to (14.9192 11.3649 10.421) with tilt (0 -0.234093 0)
  triclinic box = (0 0 -0.146701) to (14.9192 10.2064 10.421) with tilt (0 -0.234093 0)
  triclinic box = (0 0 0) to (14.9192 10.2064 10.5677) with tilt (0 -0.234093 0)

reset_timestep 0
dump            NiPyC2_relax_sc211_ortho_functionalized_CH-S_restart all atom 1 NiPyC2_relax_sc211_ortho_functionalized_CH-S_restart.lammpstrj
dump_modify     NiPyC2_relax_sc211_ortho_functionalized_CH-S_restart scale no sort id
run 0
WARNING: No fixes defined, atoms won't move (src/verlet.cpp:52)
WARNING: Inconsistent image flags (src/domain.cpp:785)
WARNING: Bond/angle/dihedral extent > half of periodic box length (src/domain.cpp:906)
Per MPI rank memory allocation (min/avg/max) = 15.73 | 15.73 | 15.73 Mbytes
Step Temp E_pair E_mol TotEng Press 
       0  8.84809e-11    87.387492    1601.1525      1688.54   -597.65064 
WARNING: Bond/angle/dihedral extent > half of periodic box length (src/domain.cpp:906)
Loop time of 7.92992e-07 on 1 procs for 0 steps with 124 atoms

126.1% CPU use with 1 MPI tasks x 1 OpenMP threads

MPI task timing breakdown:
Section |  min time  |  avg time  |  max time  |%varavg| %total
---------------------------------------------------------------
Pair    | 0          | 0          | 0          |   0.0 |  0.00
Bond    | 0          | 0          | 0          |   0.0 |  0.00
Neigh   | 0          | 0          | 0          |   0.0 |  0.00
Comm    | 0          | 0          | 0          |   0.0 |  0.00
Output  | 0          | 0          | 0          |   0.0 |  0.00
Modify  | 0          | 0          | 0          |   0.0 |  0.00
Other   |            | 7.93e-07   |            |       |100.00

Nlocal:    124 ave 124 max 124 min
Histogram: 1 0 0 0 0 0 0 0 0 0
Nghost:    1188 ave 1188 max 1188 min
Histogram: 1 0 0 0 0 0 0 0 0 0
Neighs:    6209 ave 6209 max 6209 min
Histogram: 1 0 0 0 0 0 0 0 0 0

Total # of neighbors = 6209
Ave neighs/atom = 50.0726
Ave special neighs/atom = 6.3871
Neighbor list builds = 0
Dangerous builds = 0
undump          NiPyC2_relax_sc211_ortho_functionalized_CH-S_restart
Total wall time: 0:00:01
