124
Atoms. Timestep: 0
Ni 2.89857 9.41116 8.59265
Ni 6.17525 3.10579 3.48481
O 1.44827 4.35425 3.93374
O 4.4416 8.15245 9.05464
O 4.63665 1.84729 3.87523
O 1.36499 10.6744 9.00295
O 5.80609 4.46033 4.96242
O 2.54244 8.0327 10.0675
O 0.25117 1.69264 4.94273
O 3.23722 10.8047 10.0626
N 3.69677 10.6606 7.2416
N 0.71256 1.8642 2.11704
N 2.17217 8.14409 7.25198
N 5.44023 4.39481 2.13747
C 3.48546 12.1483 5.36301
C 0.47488 0.38955 0.2292
H 2.86453 12.5181 4.55267
H 5.86971 0.03371 9.69377
C 4.76073 0.1474 5.61481
C 1.74333 12.3699 0.47412
C 5.50345 12.1502 6.68209
C 2.49852 0.35508 1.54004
H 0.24768 12.5084 6.91993
C 2.48363 6.6337 5.40822
C 5.72803 5.90364 0.28669
C 2.92756 7.68099 6.23068
C 6.1883 4.86756 1.11596
H 3.89994 8.14655 6.0889
H 0.91589 4.41889 0.97634
C 2.98256 11.1359 6.19748
C -0.01036 1.40553 1.07106
H 1.99392 10.709 6.04703
H 5.26093 1.85011 0.92351
C 4.93641 11.1381 7.47507
C 1.94823 1.3719 2.3406
H 5.48559 10.7097 8.30944
H 2.50886 1.79214 3.17267
C 0.94573 7.62654 7.47302
C 4.21083 4.90458 2.35686
H 0.36328 8.05184 8.28732
H 3.63605 4.47744 3.17528
C 0.43859 6.57577 6.69176
C 3.68763 5.945 1.56944
H 5.70774 6.17693 6.91975
C 1.22745 6.06471 5.65205
C 4.46338 6.45777 0.52027
C 5.3126 1.24381 4.79419
C 2.0502 11.2675 9.92158
C 0.73548 4.94016 4.83586
C 3.73174 7.56629 9.95688
Ni 9.15137 9.41116 8.59265
Ni 12.4281 3.10579 3.48481
O 7.70109 4.35425 3.93374
O 10.6944 8.15245 9.05464
O 10.8895 1.84729 3.87523
O 7.61779 10.6744 9.00295
O 12.0589 4.46033 4.96242
O 8.79524 8.0327 10.0675
O 6.50397 1.69264 4.94273
O 9.49002 10.8047 10.0626
N 9.94957 10.6606 7.2416
N 6.96536 1.8642 2.11704
N 8.42499 8.14409 7.25198
N 11.693 4.39481 2.13747
C 9.73826 12.1483 5.36301
C 6.72768 0.38955 0.2292
H 12.1225 0.03371 9.69377
C 11.0135 0.1474 5.61481
C 7.99613 12.3699 0.47412
C 11.7562 12.1502 6.68209
C 8.75132 0.35508 1.54004
C 8.73644 6.6337 5.40822
C 11.9808 5.90364 0.28669
H 6.14452 6.26667 9.7662
C 9.18036 7.68099 6.23068
C 12.4411 4.86756 1.11596
H 10.1527 8.14655 6.0889
H 7.16869 4.41889 0.97634
C 9.23536 11.1359 6.19748
C 6.24244 1.40553 1.07106
H 8.24672 10.709 6.04703
H 11.5137 1.85011 0.92351
C 11.1892 11.1381 7.47507
C 8.20102 1.3719 2.3406
H 11.7384 10.7097 8.30944
H 8.76167 1.79214 3.17267
C 7.19853 7.62654 7.47302
C 10.4636 4.90458 2.35686
H 6.61608 8.05184 8.28732
H 9.88885 4.47744 3.17528
C 6.69139 6.57577 6.69176
C 9.94043 5.945 1.56944
H 11.9605 6.17693 6.91975
H 8.95104 6.32683 1.80071
C 7.48025 6.06471 5.65205
C 10.7162 6.45777 0.52027
C 11.5654 1.24381 4.79419
C 8.303 11.2675 9.92158
C 6.98827 4.94016 4.83586
C 9.98454 7.56629 9.95688
C 6.8946 0.04208 7.14144
S 7.64589 0.79411 6.46009
H 7.37091 11.9627 7.90952
C 3.90902 12.4835 1.95594
S 4.50304 11.471 1.49111
H 4.29047 0.36707 2.88818
C 3.49516 6.23772 4.34005
S 3.2183 5.45404 3.38957
H 4.36581 6.87476 4.21226
C 2.30296 6.39674 2.01281
S 1.58603 7.18096 1.33072
H 1.79621 5.79838 2.76473
C 8.78276 0.00274 4.23673
S 8.95918 1.01001 3.49612
H 7.77918 12.1115 4.26924
C 10.1618 12.4835 1.95594
S 10.7558 11.471 1.49111
H 10.5433 0.36709 2.88818
C 9.74797 6.23772 4.34006
S 9.47113 5.45403 3.38958
H 10.6186 6.87475 4.21227
C 0.25796 6.3079 9.49195
S -0.02738 7.08118 8.53548
H 1.13829 5.68293 9.37103
124
Atoms. Timestep: 243
Ni 2.45271 8.99007 8.7483
Ni 6.25805 3.89902 3.28282
O 0.320202 4.63695 3.61293
O 3.81248 7.87922 8.86283
O 4.89014 2.83018 3.45235
O 1.10204 10.0778 8.88703
O 5.74263 5.05527 4.51413
O 1.89143 7.82129 9.96528
O -0.550478 2.46631 4.84931
O 2.97646 10.0498 10.0605
N 3.30542 10.1329 7.47747
N -0.286682 2.38087 2.21213
N 1.6379 7.9609 7.37189
N 5.45692 4.97191 1.93272
C 3.47805 11.1009 5.2899
C -0.140308 1.49988 -0.0306597
H 3.01276 1.31151 4.35744
H 6.24367 10.9598 10.0905
C 4.81916 1.46996 5.51285
C 1.19107 11.1339 0.171125
C 5.3592 11.2336 6.78578
C 1.72071 11.26 1.46086
H -0.877195 10.9845 7.11679
C 1.76097 6.38692 5.57527
C 5.48441 6.3338 -0.0497388
C 2.35954 7.35672 6.40271
C 6.1613 5.57106 0.930241
H 3.42106 7.54044 6.33112
H -0.305949 4.49838 0.790769
C 2.70336 10.5432 6.32739
C -0.878119 2.08401 1.00689
H 1.64164 10.4056 6.18715
H 5.3457 2.47647 0.731965
C 4.63012 10.432 7.69312
C 1.01188 1.99907 2.42352
H 5.12516 10.0186 8.55053
H 1.54247 2.40936 3.2598
C 0.269465 7.79809 7.40197
C 4.10482 5.11677 1.98701
H -0.305082 8.25552 8.18963
H 3.53605 4.49647 2.65731
C -0.391526 6.96148 6.48115
C 3.4131 5.97827 1.13014
H 5.96289 6.24293 6.79245
C 0.346141 6.2209 5.56329
C 4.08857 6.53846 0.0298473
C 5.55995 2.22513 4.43128
C 1.74791 10.6231 9.92179
C -0.351782 5.31208 4.56114
C 3.11883 7.24595 9.82008
Ni 9.71471 8.59242 8.98575
Ni -1.07272 3.56882 3.53131
O 7.64729 4.98055 3.38646
O 11.1052 7.57612 9.15813
O 12.0867 2.53126 3.7045
O 8.28946 9.6364 9.04669
O 12.9548 4.75571 4.76661
O 9.15614 7.45301 10.2349
O 6.78048 2.79935 4.58811
O 10.1526 9.74326 10.2489
N 10.5566 9.70226 7.69097
N 7.04138 2.75285 1.97359
N 9.00043 7.45287 7.64895
N 12.6529 4.64524 2.16743
C 10.5817 10.9748 5.67151
C 7.03279 1.36172 -0.00215193
H -0.826539 1.42892 9.90159
C 11.9828 11.1943 5.77671
C 8.40699 11.095 0.152374
C 12.6134 10.752 6.93476
C 9.04747 1.61804 1.27899
C 9.04714 6.67881 5.39313
C 12.6509 5.62803 -0.0253834
H 5.80452 6.77162 10.0735
C 9.72079 7.04512 6.57274
C 13.3132 4.9879 1.02698
H 10.7911 7.18995 6.56073
H 7.23552 5.48616 0.897373
C 9.95995 10.0468 6.5247
C 6.36128 2.19904 0.921167
H 8.95504 9.69889 6.30587
H 12.744 2.55295 0.722892
C 11.8654 10.0729 7.91668
C 8.37774 2.545 2.08069
H 12.3405 9.80906 8.84779
H 8.93111 3.07168 2.83286
C 7.66822 7.14529 7.73326
C 11.3099 4.90691 2.27789
H 7.09724 7.50372 8.56428
H 10.763 4.53869 3.1289
C 7.00508 6.51453 6.67995
C 10.6114 5.55172 1.24861
H 13.0676 6.84532 6.54832
H 9.53547 5.64687 1.31192
C 7.67359 6.30163 5.47741
C 11.2954 6.00668 0.132269
C 12.7397 1.91789 4.69124
C 8.92522 10.2914 10.0299
C 6.96254 5.62377 4.34839
C 10.3955 6.91009 10.069
C 6.61283 1.87555 7.22845
S 6.57192 3.12422 7.92948
H 7.55884 1.39762 7.06706
C 3.10171 10.8791 1.74459
S 3.44246 9.54512 2.13664
H 3.823 1.643 1.81345
C 2.63485 5.43246 4.94324
S 2.89664 4.19744 5.60475
H 3.40282 5.86931 4.33192
C 1.95562 5.95226 1.2099
S 1.23737 7.05656 1.78296
H 1.55018 4.9643 1.32211
C 9.72638 1.96647 5.06588
S 9.62583 3.26977 5.66397
H 8.91186 1.60054 4.46445
C 10.4673 1.43141 1.51629
S 10.9498 10.2548 2.159
H 11.0036 2.33649 1.66413
C 9.68134 7.00282 4.1061
S 9.02278 7.88481 3.18666
H 10.752 6.85106 4.00925
C 13.0695 5.65434 9.5728
S 12.7907 4.62238 8.61505
H -0.536609 6.21214 9.48186
124
Atoms. Timestep: 8019
Ni 2.46427 8.79168 8.71373
Ni 6.22095 3.76164 3.32663
O 0.391009 4.55258 3.4683
O 3.8777 7.76061 8.85903
O 4.81155 2.74256 3.46078
O 1.05625 9.83974 8.84315
O 5.69956 4.93895 4.54217
O 1.9318 7.61905 9.91709
O -0.553896 2.46382 4.73456
O 2.91923 9.885 10.0231
N 3.26258 9.95401 7.44917
N -0.321072 2.32383 2.11504
N 1.72372 7.70001 7.31537
N 5.46601 4.86387 1.964
C 3.44065 10.8488 5.23263
C -0.17868 1.43763 -0.129819
H 2.9942 10.9989 4.27307
H 6.4743 1.27814 9.86291
C 4.6996 1.3908 5.52413
C 1.15406 11.0597 0.0725266
C 5.16387 1.30882 6.84583
C 1.73042 1.28737 1.33228
H -0.779931 10.5921 6.73555
C 1.76602 5.78358 5.85
C 5.48268 5.98495 -0.164461
C 2.43736 6.72617 6.66402
C 6.15904 5.3085 0.873931
H 3.4957 6.61023 6.84234
H -0.0752599 4.7815 0.880933
C 2.70599 10.191 6.2269
C -0.890093 2.10129 0.885017
H 1.68845 9.89848 6.02348
H 5.55207 2.74536 0.520018
C 4.49946 10.4635 7.74297
C 0.950954 1.87559 2.35177
H 4.9592 10.2235 8.68694
H 1.43235 2.15709 3.27437
C 0.377089 7.81712 7.06628
C 4.1583 5.23796 2.13789
H -0.244317 8.40664 7.70334
H 3.62722 4.91409 3.01924
C -0.235497 7.10515 6.04277
C 3.50112 6.06932 1.21638
H 6.01963 6.13828 6.84041
C 0.440875 6.06292 5.43429
C 4.13037 6.36354 -0.00911177
C 5.45356 2.12463 4.45797
C 1.68972 10.4345 9.86067
C -0.264022 5.24381 4.41557
C 3.18206 7.09695 9.79618
Ni 9.74862 8.63516 8.88104
Ni -1.05002 3.54868 3.41629
O 7.63303 4.79486 3.44527
O 11.1396 7.57964 8.98288
O 12.0589 2.56367 3.6317
O 8.33913 9.66799 9.01989
O 13.0246 4.75115 4.61983
O 9.21174 7.418 10.0699
O 6.68784 2.65787 4.63656
O 10.2094 9.70149 10.2228
N 10.5822 9.83236 7.65089
N 7.02129 2.57029 2.04332
N 9.00759 7.59268 7.47171
N 12.7074 4.63476 2.05574
C 10.5915 1.55583 5.98016
C 7.1609 1.47884 -0.100556
H -0.878111 1.31861 9.81448
C 11.9887 1.38014 5.8008
C 8.45192 11.0142 0.181652
C 12.6699 10.6208 6.73388
C 8.99292 1.28501 1.44328
C 8.84857 6.95644 5.14837
C 12.7714 5.71044 -0.0985024
H 5.75921 6.19267 9.8313
C 9.59141 7.47224 6.23888
C 13.4225 5.07606 0.98218
H 10.5997 7.82955 6.07996
H 7.20714 5.06659 0.762854
C 9.89255 10.6232 6.77452
C 6.47002 2.28237 0.825368
H 8.81481 10.5788 6.7381
H 12.7215 2.57681 0.617308
C 11.9485 9.94536 7.72388
C 8.25933 2.07 2.35311
H 12.4805 9.5104 8.55545
H 8.73601 2.37796 3.266
C 7.72871 7.13931 7.66471
C 11.3678 4.9165 2.14916
H 7.22283 7.35512 8.59114
H 10.8128 4.60694 3.02368
C 7.02907 6.47917 6.6544
C 10.6901 5.57901 1.11808
H 13.255 7.29362 5.80829
H 9.62246 5.73302 1.19375
C 7.6024 6.32857 5.39787
C 11.3882 6.03097 0.00132063
C 12.7179 1.97022 4.63403
C 8.97505 10.255 10.0401
C 6.9323 5.47641 4.36807
C 10.4496 6.87634 9.88658
C 6.13802 2.28454 7.36692
S 5.68235 3.48662 8.00689
H 7.19791 2.08078 7.30323
C 3.18731 1.32637 1.47051
S 3.93192 10.1661 1.85823
H 3.67861 2.27594 1.37198
C 2.2927 4.41096 5.77821
S 1.8874 3.44239 6.75851
H 3.15353 4.20477 5.15849
C 2.18283 6.64239 1.5719
S 2.03667 7.48282 2.72775
H 1.33204 6.47548 0.931637
C 9.97383 2.87934 5.75547
S 10.4963 4.04038 6.42242
H 8.95915 2.91447 5.40402
C 10.421 11.1343 1.67806
S 10.9383 9.96678 2.33294
H 11.0201 2.00153 1.60576
C 9.28929 7.25365 3.76915
S 8.38902 7.88474 2.8371
H 10.3485 7.22219 3.54017
C 13.2739 5.91585 9.56785
S 13.3875 4.84837 8.61358
H -0.644275 6.79988 9.45947
124
Atoms. Timestep: 8035
Ni 2.50639 8.78868 8.70472
Ni 6.22039 3.76377 3.33148
O 0.469698 4.55681 3.47255
O 3.91558 7.75716 8.85121
O 4.81517 2.74449 3.46682
O 1.103 9.83996 8.83372
O 5.69447 4.93691 4.54353
O 1.96841 7.62081 9.90387
O -0.465771 2.46885 4.7358
O 2.96545 9.87955 10.0105
N 3.29606 9.94407 7.44211
N -0.249969 2.33034 2.1225
N 1.77496 7.6988 7.31117
N 5.47609 4.86068 1.9715
C 3.46513 10.8403 5.22816
C -0.116269 1.44132 -0.120016
H 3.02006 10.9911 4.26835
H 6.45908 1.28554 9.84341
C 4.71837 1.39241 5.52261
C 1.21143 11.0557 0.0851164
C 5.18268 1.31671 6.84355
C 1.78718 1.28314 1.34453
H -0.671647 10.589 6.73054
C 1.8226 5.78278 5.84923
C 5.50157 5.98346 -0.154655
C 2.49189 6.72412 6.66251
C 6.17432 5.30739 0.884097
H 3.55294 6.60686 6.84142
H 0.0211321 4.77372 0.888976
C 2.73437 10.1822 6.22147
C -0.822932 2.10651 0.893354
H 1.71489 9.88917 6.01677
H 5.54326 2.76071 0.521766
C 4.52732 10.4595 7.73883
C 1.01475 1.87331 2.36327
H 4.98538 10.2207 8.6845
H 1.49838 2.16116 3.28439
C 0.430382 7.81725 7.06025
C 4.17215 5.23709 2.1469
H -0.190704 8.40524 7.69784
H 3.64136 4.91602 3.03098
C -0.17774 7.10811 6.03565
C 3.52363 6.07161 1.22843
H 5.99638 6.1299 6.83898
C 0.50323 6.06827 5.42913
C 4.15338 6.36104 0.00318093
C 5.4625 2.12597 4.45936
C 1.74097 10.4345 9.84792
C -0.192022 5.25023 4.41342
C 3.21401 7.09403 9.78355
Ni 9.70611 8.63355 8.87243
Ni -0.967678 3.55109 3.42149
O 7.62894 4.79738 3.45096
O 11.0918 7.57628 8.97434
O 11.9811 2.56513 3.63871
O 8.30112 9.66637 9.0112
O 12.9373 4.75066 4.62052
O 9.16405 7.42027 10.0584
O 6.69077 2.66342 4.63758
O 10.1726 9.69621 10.2095
N 10.5301 9.82739 7.64465
N 7.01098 2.57812 2.05019
N 8.97448 7.59616 7.4666
N 12.6332 4.63295 2.06478
C 10.5347 1.56093 5.97799
C 7.14095 1.48372 -0.0907107
H -0.81176 1.32562 9.79352
C 11.9271 1.37871 5.79668
C 8.42594 11.0099 0.194044
C 12.6124 10.6165 6.73001
C 8.96577 1.27984 1.45561
C 8.82264 6.95894 5.14576
C 12.7048 5.70946 -0.0854344
H 5.77606 6.18995 9.81164
C 9.56248 7.47502 6.23522
C 13.3528 5.07642 0.994681
H 10.5732 7.8361 6.07492
H 7.22315 5.06147 0.770997
C 9.83711 10.6204 6.77137
C 6.45541 2.28947 0.833332
H 8.75677 10.5725 6.73173
H 12.631 2.59342 0.618219
C 11.8941 9.94339 7.72105
C 8.24137 2.06936 2.3637
H 12.4241 9.50841 8.55475
H 8.72056 2.37944 3.27619
C 7.70022 7.13573 7.66253
C 11.2964 4.9191 2.16079
H 7.19483 7.35351 8.58867
H 10.7426 4.60918 3.03655
C 7.00571 6.47366 6.65344
C 10.6228 5.58191 1.12994
H 13.1471 7.29714 5.79955
H 9.55544 5.73763 1.20452
C 7.58214 6.32749 5.39808
C 11.3249 6.02991 0.0151284
C 12.6464 1.96819 4.63409
C 8.94243 10.2533 10.0271
C 6.92257 5.47721 4.3707
C 10.3964 6.87341 9.87441
C 6.14772 2.29565 7.36366
S 5.68377 3.49637 8.00409
H 7.20752 2.09093 7.30244
C 3.2358 1.32562 1.47905
S 3.98158 10.1577 1.87111
H 3.7165 2.28063 1.38401
C 2.34361 4.40804 5.77944
S 1.9342 3.44032 6.76159
H 3.19933 4.1976 5.1527
C 2.21469 6.64799 1.58468
S 2.07474 7.4909 2.74083
H 1.36712 6.48222 0.941657
C 9.92385 2.88751 5.75515
S 10.4491 4.04706 6.42577
H 8.91232 2.92479 5.40002
C 10.3864 11.1232 1.68549
S 10.9037 9.95838 2.34682
H 10.9734 2.00541 1.62015
C 9.25882 7.2562 3.76667
S 8.35382 7.88929 2.83669
H 10.3198 7.22166 3.53786
C 13.2052 5.91218 9.55489
S -1.05653 4.84527 8.59673
H -0.559015 6.80417 9.44082
124
Atoms. Timestep: 12173
Ni 2.50911 8.77334 8.70182
Ni 6.21912 3.75941 3.34183
O 0.466147 4.55565 3.4551
O 3.91548 7.7401 8.8538
O 4.81608 2.73712 3.47086
O 1.10703 9.82685 8.82135
O 5.68837 4.92828 4.55575
O 1.9661 7.61281 9.90681
O -0.464033 2.46934 4.72224
O 2.96938 9.86832 10.0023
N 3.30904 9.92101 7.43767
N -0.248209 2.32964 2.10577
N 1.77248 7.68004 7.31068
N 5.46649 4.85904 1.98558
C 3.47086 10.8205 5.22787
C -0.10607 1.45952 -0.142201
H 3.02739 10.9569 4.26533
H 6.47073 1.31901 9.84419
C 4.72285 1.38044 5.52087
C 1.21652 11.0529 0.0676541
C 5.19205 1.30096 6.83976
C 1.79155 1.27422 1.32985
H -0.669736 10.6041 6.7303
C 1.82052 5.76525 5.84972
C 5.50372 5.99248 -0.129758
C 2.4881 6.70343 6.66641
C 6.17112 5.31981 0.910888
H 3.54424 6.58438 6.85075
H 0.0167416 4.80896 0.905681
C 2.74252 10.1651 6.22227
C -0.811125 2.12733 0.86908
H 1.7232 9.87648 6.02486
H 5.5692 2.79361 0.522522
C 4.54604 10.4297 7.72808
C 1.0161 1.86624 2.34713
H 5.01465 10.1807 8.66552
H 1.49967 2.14843 3.268
C 0.429706 7.80317 7.0518
C 4.15751 5.22903 2.15273
H -0.194258 8.39035 7.68646
H 3.61956 4.89832 3.02712
C -0.173618 7.10058 6.02025
C 3.51417 6.07622 1.23947
H 5.97207 6.16839 6.82365
C 0.505049 6.05715 5.41847
C 4.15146 6.36714 0.017844
C 5.46499 2.11847 4.46204
C 1.74543 10.4237 9.83434
C -0.192834 5.24383 4.40161
C 3.21245 7.0854 9.79083
Ni 9.70067 8.64214 8.86811
Ni -0.97097 3.55007 3.4087
O 7.62529 4.79454 3.46109
O 11.0843 7.57924 8.95992
O 11.978 2.56289 3.629
O 8.30052 9.67913 9.0129
O 12.9348 4.74691 4.6101
O 9.15552 7.42401 10.0473
O 6.69298 2.65802 4.64546
O 10.1737 9.6939 10.2123
N 10.532 9.83999 7.64622
N 7.01909 2.57703 2.05922
N 8.95598 7.61727 7.45961
N 12.6196 4.63238 2.05404
C 10.5363 1.57823 5.98693
C 7.15257 1.50257 -0.0872815
H -0.797542 1.35941 9.76945
C 11.9281 1.39291 5.79833
C 8.43116 11.0087 0.200745
C 12.6146 10.6304 6.73114
C 8.96897 1.26204 1.46791
C 8.81633 6.96036 5.14607
C 12.7013 5.71931 -0.0894967
H 5.78622 6.19692 9.84125
C 9.55153 7.48162 6.23485
C 13.3448 5.09329 0.9963
H 10.563 7.83244 6.08164
H 7.2191 5.07756 0.806357
C 9.83949 10.635 6.77572
C 6.47243 2.30904 0.835485
H 8.76207 10.5871 6.73698
H 12.6483 2.62414 0.593624
C 11.8963 9.95654 7.722
C 8.24597 2.05485 2.37591
H 12.427 9.526 8.55657
H 8.72336 2.35155 3.29247
C 7.67072 7.18264 7.64504
C 11.277 4.89856 2.13453
H 7.15675 7.4169 8.56248
H 10.7157 4.58044 3.00187
C 6.98157 6.50952 6.64113
C 10.6074 5.5625 1.10163
H 13.1548 7.29467 5.77474
H 9.5394 5.71295 1.16813
C 7.56923 6.33928 5.39508
C 11.316 6.02581 -0.00363605
C 12.6458 1.97174 4.62704
C 8.94455 10.2556 10.0322
C 6.91564 5.47202 4.37921
C 10.3877 6.87523 9.85866
C 6.12943 2.30779 7.37065
S 5.62897 3.50785 7.98057
H 7.19349 2.11647 7.36192
C 3.24712 1.31941 1.46514
S 3.99906 10.1556 1.85303
H 3.72867 2.27326 1.37729
C 2.33423 4.38669 5.78976
S 1.92796 3.43158 6.78289
H 3.17959 4.16154 5.15653
C 2.21995 6.69437 1.61191
S 2.1111 7.51725 2.78432
H 1.35593 6.56155 0.98173
C 9.9356 2.91478 5.7948
S 10.4584 4.04888 6.50633
H 8.93437 2.97656 5.41317
C 10.3948 11.089 1.70109
S 10.9048 9.92375 2.36428
H 11.0056 1.94936 1.5985
C 9.26044 7.24999 3.76669
S 8.35895 7.8663 2.82539
H 10.3194 7.21249 3.538
C 13.2138 5.92536 9.55643
S -1.00275 4.84854 8.61811
H -0.558596 6.82144 9.44443
124
Atoms. Timestep: 12176
Ni 2.51386 8.77549 8.70412
Ni 6.21901 3.75727 3.34066
O 0.473977 4.55419 3.45401
O 3.91832 7.74136 8.85622
O 4.81784 2.7341 3.46979
O 1.11366 9.8299 8.82375
O 5.68889 4.92712 4.55537
O 1.97149 7.61397 9.90991
O -0.454977 2.46611 4.72197
O 2.97347 9.87138 10.0055
N 3.31275 9.92413 7.43915
N -0.239375 2.32629 2.1038
N 1.7783 7.68125 7.3121
N 5.46747 4.85783 1.98353
C 3.47444 10.8244 5.22794
C -0.0973339 1.45542 -0.145615
H 3.03162 10.9609 4.26477
H 6.46997 1.3148 9.84724
C 4.72469 1.37627 5.52111
C 1.22342 11.057 0.0643628
C 5.1932 1.29674 6.84087
C 1.79763 1.26995 1.32738
H -0.660509 10.6078 6.73133
C 1.82634 5.76482 5.85019
C 5.50474 5.99225 -0.133166
C 2.493 6.7038 6.66742
C 6.17121 5.319 0.908146
H 3.54766 6.58465 6.85187
H 0.0252825 4.80772 0.902934
C 2.74703 10.1684 6.22297
C -0.801486 2.12381 0.86631
H 1.72913 9.87956 6.02543
H 5.5701 2.79066 0.519526
C 4.54804 10.4333 7.72975
C 1.02319 1.86248 2.34531
H 5.01596 10.1841 8.66781
H 1.50606 2.14491 3.26678
C 0.437371 7.80448 7.05303
C 4.16027 5.22815 2.15079
H -0.185757 8.39217 7.68811
H 3.62303 4.89716 3.02574
C -0.165084 7.1013 6.02082
C 3.51785 6.07607 1.23695
H 5.97212 6.16831 6.82475
C 0.512713 6.05698 5.41865
C 4.15435 6.36723 0.0145208
C 5.46587 2.11493 4.4616
C 1.75118 10.4272 9.83739
C -0.184182 5.24297 4.40113
C 3.21617 7.0861 9.79385
Ni 9.69551 8.64418 8.87052
Ni -0.961196 3.54776 3.40757
O 7.62327 4.79328 3.46001
O 11.0772 7.58036 8.96241
O 11.9699 2.55973 3.62803
O 8.29725 9.68205 9.01542
O 12.9253 4.7456 4.60976
O 9.15103 7.42502 10.0505
O 6.69219 2.65496 4.64514
O 10.1679 9.69682 10.2156
N 10.5258 9.84305 7.64785
N 7.01793 2.57389 2.05722
N 8.95191 7.61843 7.46111
N 12.6107 4.63098 2.05204
C 10.5301 1.57423 5.98749
C 7.15132 1.49851 -0.0906605
H -0.788301 1.35523 9.77246
C 11.92 1.38875 5.79875
C 8.42813 11.0128 0.19754
C 12.6056 10.6342 6.73217
C 8.96516 1.25775 1.46554
C 8.81255 6.96096 5.14608
C 12.6924 5.71884 -0.0928815
H 5.78642 6.19686 9.84431
C 9.54672 7.48268 6.23556
C 13.335 5.09229 0.993612
H 10.5568 7.83379 6.08225
H 7.21774 5.07655 0.803546
C 9.83421 10.6387 6.77679
C 6.47205 2.30568 0.832693
H 8.75828 10.5908 6.73801
H 12.6394 2.62104 0.590674
C 11.8882 9.95971 7.72367
C 8.24311 2.05125 2.37412
H 12.4182 9.52879 8.55879
H 8.71981 2.3482 3.29127
C 7.66841 7.18342 7.64666
C 11.27 4.8974 2.13258
H 7.1551 7.41789 8.56469
H 10.7094 4.57901 3.00048
C 6.98023 6.50972 6.6421
C 10.6014 5.56191 1.09901
H 13.145 7.29556 5.77515
H 9.53479 5.71248 1.16556
C 7.56717 6.33934 5.39525
C 11.3091 6.02561 -0.00697019
C 12.6368 1.96806 4.62671
C 8.94038 10.259 10.0354
C 6.91451 5.47135 4.37872
C 10.3815 6.87575 9.86173
C 6.12926 2.30442 7.3721
S 5.62945 3.50548 7.98241
H 7.19187 2.11292 7.36336
C 3.25118 1.31518 1.46275
S 4.00207 10.1589 1.8509
H 3.73207 2.26984 1.37486
C 2.33935 4.38509 5.79019
S 1.9336 3.42917 6.78396
H 3.18358 4.15974 5.15653
C 2.2254 6.69475 1.60963
S 2.11666 7.51832 2.78278
H 1.3626 6.56181 0.979035
C 9.93026 2.91192 5.79523
S 10.4523 4.04698 6.50722
H 8.93041 2.97376 5.41334
C 10.389 11.0931 1.69886
S 10.8983 9.92688 2.36248
H 10.999 1.94567 1.59621
C 9.25613 7.25083 3.76581
S 8.3559 7.86767 2.82389
H 10.3137 7.2133 3.53696
C 13.2038 5.92506 9.5593
S -0.993174 4.84734 8.62038
H -0.54966 6.82192 9.44722
124
Atoms. Timestep: 15919
Ni 2.51423 8.77245 8.70551
Ni 6.21902 3.75412 3.34287
O 0.47596 4.55497 3.45335
O 3.9214 7.73987 8.85978
O 4.81485 2.73206 3.4704
O 1.11131 9.82579 8.8239
O 5.68847 4.92113 4.55879
O 1.97193 7.61395 9.91286
O -0.455452 2.46656 4.71566
O 2.97435 9.8701 10.0039
N 3.31327 9.91869 7.43842
N -0.238967 2.33107 2.09881
N 1.77799 7.67571 7.31579
N 5.46788 4.85711 1.98773
C 3.47206 10.8179 5.22764
C -0.0979816 1.46114 -0.14975
H 3.0283 10.9518 4.2646
H 6.46944 1.32467 9.84566
C 4.72235 1.37321 5.52025
C 1.22278 11.0577 0.0611436
C 5.19175 1.29584 6.83938
C 1.79801 1.26951 1.32364
H -0.658333 10.6055 6.71945
C 1.82687 5.76027 5.85481
C 5.509 5.99411 -0.126018
C 2.4935 6.69668 6.67474
C 6.17441 5.31966 0.914891
H 3.54847 6.57474 6.8633
H 0.0293024 4.81456 0.90548
C 2.74568 10.161 6.2229
C -0.801019 2.13233 0.86099
H 1.72697 9.87036 6.02604
H 5.57112 2.79815 0.519669
C 4.54911 10.4307 7.72798
C 1.02391 1.86406 2.34061
H 5.0187 10.184 8.66564
H 1.50796 2.14441 3.26189
C 0.436252 7.80101 7.05275
C 4.15921 5.22845 2.15393
H -0.188029 8.39126 7.6839
H 3.61979 4.89686 3.02714
C -0.165423 7.09886 6.01966
C 3.51818 6.07863 1.24126
H 5.97058 6.16269 6.82768
C 0.513262 6.05437 5.41955
C 4.15697 6.36983 0.020175
C 5.46388 2.11161 4.46086
C 1.75028 10.4248 9.83558
C -0.183597 5.24157 4.40094
C 3.21836 7.08682 9.79841
Ni 9.69524 8.6484 8.86864
Ni -0.961683 3.54969 3.4041
O 7.62595 4.78827 3.46464
O 11.0792 7.58522 8.96111
O 11.9666 2.56203 3.62259
O 8.295 9.68566 9.01395
O 12.9241 4.74449 4.60755
O 9.15067 7.43149 10.0492
O 6.69197 2.65033 4.64442
O 10.1694 9.70115 10.2114
N 10.5253 9.84569 7.64441
N 7.01846 2.57312 2.05781
N 8.95008 7.62191 7.46107
N 12.6104 4.63508 2.05053
C 10.5275 1.57493 5.9839
C 7.15135 1.50465 -0.0920403
H -0.78949 1.3621 9.76877
C 11.9182 1.38702 5.79089
C 8.42826 11.0153 0.195569
C 12.6063 10.6328 6.72275
C 8.96541 1.25425 1.46446
C 8.81335 6.95742 5.14938
C 12.6954 5.72613 -0.0911473
H 5.79274 6.19876 9.85288
C 9.54683 7.48334 6.23713
C 13.3373 5.09845 0.99488
H 10.5576 7.8358 6.08343
H 7.2221 5.07618 0.811086
C 9.8315 10.6411 6.77495
C 6.47253 2.31017 0.832473
H 8.75393 10.5946 6.73897
H 12.6401 2.63226 0.585156
C 11.8897 9.96134 7.71685
C 8.24384 2.04685 2.37412
H 12.4217 9.53287 8.55163
H 8.72095 2.33894 3.29233
C 7.66527 7.18599 7.6466
C 11.2678 4.90117 2.12932
H 7.14985 7.42274 8.56262
H 10.7049 4.58083 2.99486
C 6.97915 6.50609 6.64477
C 10.6001 5.56837 1.09696
H 13.1444 7.29485 5.77094
H 9.53225 5.71961 1.16244
C 7.56825 6.33331 5.39953
C 11.3104 6.03308 -0.00687063
C 12.6348 1.96906 4.61992
C 8.9402 10.2627 10.0327
C 6.91597 5.46438 4.38384
C 10.3826 6.88232 9.8612
C 6.12441 2.30719 7.37024
S 5.61833 3.50403 7.98191
H 7.1897 2.12297 7.35734
C 3.25352 1.31232 1.45903
S 4.00332 10.1566 1.84926
H 3.73573 2.26591 1.37468
C 2.34007 4.38163 5.79232
S 1.93091 3.42378 6.78162
H 3.18551 4.1572 5.15899
C 2.22668 6.70189 1.61514
S 2.1207 7.51974 2.79137
H 1.36176 6.57399 0.985173
C 9.93016 2.91363 5.79643
S 10.4529 4.04313 6.5153
H 8.93164 2.98028 5.40883
C 10.3904 11.0827 1.69922
S 10.8943 9.91679 2.36548
H 11.0078 1.92853 1.58867
C 9.25505 7.24758 3.76945
S 8.35076 7.86126 2.82897
H 10.3137 7.21135 3.53907
C 13.209 5.93219 9.56271
S -0.984491 4.85469 8.6257
H -0.548156 6.8309 9.44872
124
Atoms. Timestep: 15922
Ni 2.51895 8.77433 8.70707
Ni 6.21892 3.75223 3.34206
O 0.483699 4.55369 3.45262
O 3.92425 7.74098 8.86143
O 4.81661 2.7294 3.46967
O 1.11789 9.82848 8.82553
O 5.68901 4.92011 4.55854
O 1.9773 7.61498 9.91497
O -0.446496 2.46372 4.71548
O 2.97844 9.8728 10.006
N 3.31696 9.92143 7.43943
N -0.230244 2.32812 2.09746
N 1.78377 7.67677 7.31675
N 5.46885 4.85605 1.98634
C 3.47562 10.8213 5.22768
C -0.0893633 1.45754 -0.152075
H 3.03249 10.9554 4.26422
H 6.46873 1.32096 9.84774
C 4.72419 1.36953 5.52042
C 1.22959 11.0613 0.0589011
C 5.19292 1.29212 6.84013
C 1.80402 1.26575 1.32196
H -0.649204 10.6088 6.72015
C 1.83264 5.75989 5.85513
C 5.51 5.9939 -0.128334
C 2.49836 6.697 6.67543
C 6.1745 5.31895 0.913026
H 3.55187 6.57498 6.86407
H 0.0377271 4.81347 0.903611
C 2.75016 10.1639 6.22337
C -0.791507 2.12924 0.8591
H 1.73285 9.87307 6.02643
H 5.57201 2.79555 0.517628
C 4.55112 10.4339 7.72912
C 1.03092 1.86074 2.33937
H 5.02003 10.1869 8.6672
H 1.51427 2.14131 3.26106
C 0.443844 7.80217 7.05359
C 4.16194 5.22768 2.15261
H -0.179606 8.39286 7.68502
H 3.62323 4.89583 3.02621
C -0.156977 7.0995 6.02004
C 3.52182 6.0785 1.23955
H 5.97067 6.16261 6.82843
C 0.520844 6.05421 5.41967
C 4.15981 6.36991 0.0179147
C 5.46476 2.10848 4.46056
C 1.756 10.428 9.83765
C -0.175043 5.24081 4.40061
C 3.22208 7.08744 9.80047
Ni 9.69019 8.6502 8.87028
Ni -0.952025 3.54766 3.40333
O 7.62397 4.78717 3.4639
O 11.0723 7.58621 8.9628
O 11.9587 2.55925 3.62193
O 8.29182 9.68824 9.01567
O 12.9148 4.74334 4.60732
O 9.14628 7.43238 10.0513
O 6.69121 2.64763 4.6442
O 10.1637 9.70372 10.2137
N 10.5192 9.84839 7.64552
N 7.01732 2.57035 2.05645
N 8.9461 7.62294 7.4621
N 12.6017 4.63385 2.04917
C 10.5214 1.5714 5.98428
C 7.15011 1.50108 -0.0943401
H -0.780329 1.35841 9.77081
C 11.9102 1.38335 5.79118
C 8.42528 11.0189 0.193386
C 12.5974 10.6361 6.72344
C 8.96166 11.2671 1.46284
C 8.80965 6.95795 5.14938
C 12.6867 5.72572 -0.0934496
H 5.79297 6.19871 9.85496
C 9.54212 7.48428 6.23762
C 13.3277 5.09756 0.993051
H 10.5515 7.83699 6.08384
H 7.22075 5.07528 0.809175
C 9.82632 10.6444 6.77567
C 6.47216 2.30721 0.83057
H 8.75023 10.5979 6.73968
H 12.6314 2.62954 0.583144
C 11.8818 9.96413 7.71799
C 8.24104 2.04367 2.3729
H 12.413 9.53533 8.55313
H 8.71746 2.33598 3.29152
C 7.66302 7.18668 7.6477
C 11.2608 4.90016 2.12799
H 7.14827 7.42361 8.56412
H 10.6987 4.57957 2.99391
C 6.97787 6.50627 6.64543
C 10.5941 5.56785 1.09518
H 13.1347 7.29564 5.77121
H 9.52772 5.71921 1.16068
C 7.56624 6.33337 5.39964
C 11.3035 6.03291 -0.00914009
C 12.626 1.96582 4.61969
C 8.93614 10.2657 10.0348
C 6.91488 5.46378 4.38351
C 10.3765 6.88278 9.86328
C 6.12428 2.30422 7.37122
S 5.61885 3.50195 7.98316
H 7.18814 2.11986 7.35832
C 3.25753 1.30859 1.45741
S 4.0063 10.1595 1.84781
H 3.73909 2.2629 1.37302
C 2.34515 4.38022 5.79262
S 1.93649 3.42166 6.78235
H 3.18947 4.15562 5.159
C 2.23207 6.70223 1.61359
S 2.12619 7.52068 2.79033
H 1.36834 6.57423 0.983341
C 9.92492 2.91111 5.79672
S 10.447 4.04146 6.51591
H 8.92776 2.97782 5.40894
C 10.3847 11.0864 1.6977
S 10.8879 9.91954 2.36425
H 11.0012 1.92527 1.58711
C 9.25082 7.24832 3.76885
S 8.34777 7.86247 2.82796
H 10.308 7.21206 3.53837
C -1.1279 5.93193 9.56467
S -0.975013 4.85364 8.62724
H -0.539301 6.83133 9.45062
124
Atoms. Timestep: 19956
Ni 2.5193 8.77112 8.7074
Ni 6.21896 3.75003 3.34402
O 0.484992 4.55281 3.45179
O 3.9269 7.739 8.86385
O 4.81426 2.72786 3.47045
O 1.11589 9.82456 8.82456
O 5.68833 4.91545 4.5614
O 1.97709 7.61443 9.91653
O -0.447341 2.46242 4.70933
O 2.97927 9.87088 10.004
N 3.31803 9.91602 7.43817
N -0.230586 2.33132 2.09217
N 1.78359 7.67163 7.3186
N 5.46871 4.85535 1.98978
C 3.47455 10.8153 5.22686
C -0.089591 1.46346 -0.157506
H 3.03061 10.9476 4.26347
H 6.46756 1.32935 9.84677
C 4.72314 1.36663 5.51956
C 1.22902 11.0617 0.0549611
C 5.19245 1.29101 6.83892
C 1.80389 1.26408 1.31809
H -0.647504 10.607 6.71005
C 1.83256 5.7541 5.85964
C 5.51331 5.99517 -0.122594
C 2.49854 6.68917 6.68188
C 6.17694 5.3195 0.918635
H 3.55227 6.56412 6.87471
H 0.041523 4.82127 0.907706
C 2.74971 10.1571 6.22253
C -0.790949 2.13748 0.852671
H 1.73142 9.86521 6.02606
H 5.57223 2.8019 0.518244
C 4.55279 10.4309 7.72735
C 1.03056 1.86011 2.33483
H 5.02314 10.1857 8.66513
H 1.51461 2.13799 3.25691
C 0.443148 7.80004 7.05051
C 4.16005 5.22717 2.15474
H -0.181202 8.39486 7.67681
H 3.61929 4.89469 3.02688
C -0.157018 7.09751 6.01664
C 3.52127 6.08032 1.24278
H 5.96824 6.15883 6.83038
C 0.520941 6.05049 5.42008
C 4.16148 6.37173 0.0222463
C 5.46371 2.10612 4.46017
C 1.75532 10.4254 9.83515
C -0.174996 5.23778 4.40045
C 3.22354 7.08745 9.80364
Ni 9.68934 8.65401 8.86897
Ni -0.953105 3.54794 3.39996
O 7.6262 4.78371 3.46756
O 11.0735 7.59065 8.96191
O 11.955 2.55991 3.61668
O 8.28914 9.69153 9.01468
O 12.913 4.7406 4.60557
O 9.14521 7.43824 10.0507
O 6.69171 2.64457 4.64394
O 10.1647 9.70752 10.2104
N 10.5182 9.85066 7.64274
N 7.01798 2.57036 2.0571
N 8.9439 7.62626 7.46237
N 12.6005 4.63628 2.04789
C 10.5186 1.57182 5.98114
C 7.14973 1.50652 -0.0952138
H -0.780478 1.36638 9.76525
C 11.908 1.38088 5.7839
C 8.4252 11.0213 0.1919
C 12.5976 10.6347 6.71529
C 8.96212 11.2647 1.462
C 8.81085 6.95464 5.15253
C 12.6899 5.73511 -0.0898275
H 5.79819 6.19984 9.86182
C 9.54242 7.48438 6.23964
C 13.3296 5.10405 0.995607
H 10.5529 7.83766 6.08604
H 7.22433 5.07494 0.815492
C 9.82325 10.6463 6.7741
C 6.47228 2.31129 0.830719
H 8.74555 10.6013 6.74068
H 12.6325 2.64092 0.576239
C 11.8827 9.96556 7.71234
C 8.24219 2.04082 2.37293
H 12.4159 9.53895 8.54733
H 8.7193 2.32928 3.29232
C 7.65928 7.1898 7.64752
C 11.2575 4.9007 2.12418
H 7.14233 7.42894 8.56209
H 10.6928 4.57717 2.98736
C 6.97604 6.50417 6.64737
C 10.5919 5.57145 1.09259
H 13.1347 7.29607 5.76391
H 9.52394 5.72198 1.15617
C 7.56688 6.32884 5.40312
C 11.3044 6.0402 -0.00827938
C 12.6236 1.96508 4.61309
C 8.93556 10.269 10.0327
C 6.91584 5.4586 4.38758
C 10.3769 6.88882 9.86331
C 6.12001 2.30691 7.37029
S 5.60796 3.50085 7.98274
H 7.18649 2.12992 7.35378
C 3.25929 1.30543 1.45397
S 4.00769 10.157 1.84583
H 3.7415 2.25918 1.37383
C 2.34548 4.37545 5.7948
S 1.93261 3.41463 6.77964
H 3.19258 4.15254 5.16318
C 2.23294 6.70936 1.61856
S 2.13043 7.52169 2.79896
H 1.36701 6.58738 0.988805
C 9.92609 2.91365 5.80095
S 10.4471 4.03562 6.53297
H 8.93208 2.98754 5.40324
C 10.3864 11.0778 1.69771
S 10.8851 9.91184 2.36752
H 11.0099 1.90992 1.57769
C 9.25175 7.24432 3.77233
S 8.34631 7.85624 2.83175
H 10.3103 7.20836 3.54133
C -1.12097 5.94631 9.57165
S -0.954115 4.86908 8.63673
H -0.546817 6.85437 9.45397
124
Atoms. Timestep: 19959
Ni 2.52391 8.7729 8.70851
Ni 6.21887 3.74826 3.34345
O 0.492518 4.5516 3.45126
O 3.92968 7.74005 8.86502
O 4.81598 2.72536 3.46993
O 1.12231 9.82708 8.82572
O 5.68886 4.91449 4.56123
O 1.98232 7.6154 9.91803
O -0.438626 2.45974 4.7092
O 2.98326 9.87341 10.0056
N 3.32164 9.91859 7.43888
N -0.222108 2.32855 2.09122
N 1.78922 7.67262 7.31928
N 5.46966 4.85434 1.98879
C 3.47802 10.8186 5.22689
C -0.0812201 1.46007 -0.159157
H 3.0347 10.9509 4.2632
H 6.4669 1.32587 9.84825
C 4.72494 1.36317 5.51967
C 1.23563 11.0651 0.0533674
C 5.1936 1.28751 6.83946
C 1.80972 1.26054 1.3169