ITEM: TIMESTEP
0
ITEM: NUMBER OF ATOMS
124
ITEM: BOX BOUNDS xy xz yz pp pp pp
-2.3945118233832213e-01 1.3873805917728800e+01 0.0000000000000000e+00
0.0000000000000000e+00 1.0270757913998301e+01 -2.3945118233832213e-01
0.0000000000000000e+00 1.0809547941614399e+01 0.0000000000000000e+00
ITEM: ATOMS id type x y z
1 1 2.62915 8.81083 8.69482
2 1 6.26762 3.67937 3.39087
3 2 0.68678 4.59286 3.39546
4 2 4.04615 7.78741 8.85483
5 2 4.87934 2.63341 3.49709
6 2 1.21018 9.85691 8.81535
7 2 5.69313 4.83092 4.59979
8 2 2.09067 7.64732 9.89886
9 2 13.6525 2.55088 4.72036
10 2 3.07986 9.90817 9.99021
11 3 3.42211 9.96949 7.42789
12 3 -0.00632074 2.30968 2.13081
13 3 1.91 7.70675 7.29976
14 3 5.51859 4.78011 2.02301
15 4 3.52572 0.701557 5.25397
16 4 -0.224275 1.26025 10.7702
17 5 3.06712 0.860558 4.29985
18 5 6.51126 1.21185 9.85601
19 4 4.77424 1.27111 5.55068
20 4 1.35344 0.871792 0.133385
21 4 5.25527 1.15735 6.86183
22 4 1.98646 1.18559 1.3513
23 5 13.5308 0.589511 6.66432
24 4 1.98043 5.79743 5.82854
25 4 5.36919 5.99355 10.759
26 4 2.63462 6.7284 6.66634
27 4 6.24667 5.27396 0.977477
28 5 3.67961 6.59511 6.88212
29 5 0.271164 4.63223 0.775082
30 4 2.83108 10.2497 6.23022
31 4 13.2177 1.96087 0.978289
32 5 1.82543 9.92265 6.02643
33 5 5.7091 2.80232 0.539796
34 4 4.6515 0.225675 7.7196
35 4 1.28102 1.90722 2.33192
36 5 5.13594 10.2325 8.64609
37 5 1.81596 2.29056 3.18787
38 4 0.569733 7.8124 7.03552
39 4 4.20365 5.13911 2.16438
40 5 -0.07245 8.32011 7.71627
41 5 3.64105 4.77489 3.0078
42 4 -0.00612195 7.14549 5.96181
43 4 3.59343 6.03878 1.27777
44 5 5.91878 6.16735 6.83106
45 4 0.688273 6.11431 5.35015
46 4 4.25932 6.37687 0.0848066
47 4 5.52259 2.02227 4.49858
48 4 1.85692 0.191223 9.82369
49 4 0.00689731 5.30562 4.3138
50 4 3.33828 7.12574 9.78606
51 1 9.60174 8.75663 8.80112
52 1 13.1379 3.56446 3.36809
53 2 7.65086 4.72991 3.53156
54 2 10.9783 7.65832 8.82731
55 2 11.7248 2.56103 3.61266
56 2 8.22652 9.80619 9.02027
57 2 12.6457 4.80044 4.51563
58 2 9.05588 7.51215 9.93538
59 2 6.74354 2.57872 4.69978
60 2 10.1327 9.74388 10.1693
61 3 10.4053 9.99569 7.59866
62 3 7.10613 2.51963 2.11274
63 3 8.81471 7.79937 7.37702
64 3 12.381 4.57968 1.9516
65 4 10.3465 1.57743 6.05525
66 4 6.98595 1.43373 10.7891
67 5 13.1505 1.09056 9.82863
68 4 11.7321 1.42703 5.8282
69 4 8.47917 0.891202 0.275764
70 4 12.4497 0.610406 6.6964
71 4 9.01637 1.11813 1.55726
72 4 8.72564 6.99767 5.11105
73 4 12.2545 5.58914 10.5715
74 5 5.91499 6.22602 9.85835
75 4 9.42854 7.61487 6.16792
76 4 13.1145 4.95092 0.857881
77 5 10.4277 7.99291 6.00281
78 5 7.28142 4.99769 0.867345
79 4 9.68145 0.569112 6.7981
80 4 6.57801 2.27714 0.878227
81 5 8.60723 0.483709 6.75084
82 5 12.2138 2.31471 0.79699
83 4 11.7635 10.1298 7.65468
84 4 8.32846 1.98441 2.4391
85 5 12.3083 9.67738 8.46453
86 5 8.77688 2.2333 3.38183
87 4 7.52813 7.37257 7.56306
88 4 11.0456 4.8653 2.00852
89 5 6.99932 7.64185 8.46342
90 5 10.4678 4.56733 2.87058
91 4 6.89085 6.58224 6.61481
92 4 10.412 5.55395 0.973501
93 5 12.8337 7.33917 5.70276
94 5 9.35783 5.75317 1.03784
95 4 7.50376 6.34974 5.39159
96 4 10.9014 5.99493 10.683
97 4 12.4108 2.02926 4.64324
98 4 8.91633 0.0618156 10.0389
99 4 6.91019 5.39274 4.43342
100 4 10.2624 6.93567 9.70672
101 6 6.15093 2.18036 7.42727
102 7 5.61408 3.43033 7.88865
103 5 7.15379 1.90275 7.71215
104 6 3.44343 1.16582 1.44236
105 7 4.14727 0.00327276 1.91504
106 5 3.94964 2.10056 1.35134
107 6 2.45981 4.40317 5.80459
108 7 2.0479 3.48395 6.82959
109 5 3.24394 4.11645 5.12228
110 6 2.32897 6.69701 1.67254
111 7 2.29423 7.59621 2.7911
112 5 1.43924 6.56056 1.07788
113 6 9.72211 2.91325 5.90568
114 7 9.3709 3.67923 7.07023
115 5 9.79263 3.42755 4.95845
116 6 10.2843 0.476951 1.98685
117 7 10.3945 10.1101 3.26419
118 5 11.1277 0.445561 1.32482
119 6 9.17347 7.19525 3.71638
120 7 8.26383 7.72137 2.72632
121 5 10.2332 7.14755 3.4914
122 6 12.9687 5.64692 9.28411
123 7 12.6343 4.72241 8.23657
124 5 0.0419676 6.16727 9.24032
