124
Atoms. Timestep: 0
Ni 2.89857 9.41116 8.59265
Ni 6.17525 3.10579 3.48481
O 1.44827 4.35425 3.93374
O 4.4416 8.15245 9.05464
O 4.63665 1.84729 3.87523
O 1.36499 10.6744 9.00295
O 5.80609 4.46033 4.96242
O 2.54244 8.0327 10.0675
O 0.25117 1.69264 4.94273
O 3.23722 10.8047 10.0626
N 3.69677 10.6606 7.2416
N 0.71256 1.8642 2.11704
N 2.17217 8.14409 7.25198
N 5.44023 4.39481 2.13747
C 3.48546 12.1483 5.36301
C 0.47488 0.38955 0.2292
H 2.86453 12.5181 4.55267
H 5.86971 0.03371 9.69377
C 4.76073 0.1474 5.61481
C 1.74333 12.3699 0.47412
C 5.50345 12.1502 6.68209
C 2.49852 0.35508 1.54004
H 0.24768 12.5084 6.91993
H 3.49155 12.5067 1.77336
C 2.48363 6.6337 5.40822
C 5.72803 5.90364 0.28669
H 3.13294 6.27291 4.61605
H -0.10828 6.26667 9.7662
C 2.92756 7.68099 6.23068
C 6.1883 4.86756 1.11596
C 2.98256 11.1359 6.19748
C -0.01036 1.40553 1.07106
H 5.26093 1.85011 0.92351
C 4.93641 11.1381 7.47507
C 1.94823 1.3719 2.3406
H 5.48559 10.7097 8.30944
C 0.94573 7.62654 7.47302
C 4.21083 4.90458 2.35686
H 0.36328 8.05184 8.28732
H 3.63605 4.47744 3.17528
C 0.43859 6.57577 6.69176
C 3.68763 5.945 1.56944
H 5.70774 6.17693 6.91975
H 2.69824 6.32683 1.80071
C 1.22745 6.06471 5.65205
C 4.46338 6.45777 0.52027
C 5.3126 1.24381 4.79419
C 2.0502 11.2675 9.92158
C 0.73548 4.94016 4.83586
C 3.73174 7.56629 9.95688
Ni 9.15137 9.41116 8.59265
Ni 12.4281 3.10579 3.48481
O 7.70109 4.35425 3.93374
O 10.6944 8.15245 9.05464
O 10.8895 1.84729 3.87523
O 7.61779 10.6744 9.00295
O 12.0589 4.46033 4.96242
O 8.79524 8.0327 10.0675
O 6.50397 1.69264 4.94273
O 9.49002 10.8047 10.0626
N 9.94957 10.6606 7.2416
N 6.96536 1.8642 2.11704
N 8.42499 8.14409 7.25198
N 11.693 4.39481 2.13747
C 9.73826 12.1483 5.36301
C 6.72768 0.38955 0.2292
H 9.11733 12.5181 4.55267
H 12.1225 0.03371 9.69377
C 11.0135 0.1474 5.61481
C 7.99613 12.3699 0.47412
C 11.7562 12.1502 6.68209
C 8.75132 0.35508 1.54004
H 6.50047 12.5084 6.91993
H 9.74435 12.5067 1.77336
C 8.73644 6.6337 5.40822
C 11.9808 5.90364 0.28669
H 9.38574 6.27291 4.61605
H 6.14452 6.26667 9.7662
C 9.18036 7.68099 6.23068
C 12.4411 4.86756 1.11596
H 10.1527 8.14655 6.0889
C 9.23536 11.1359 6.19748
C 6.24244 1.40553 1.07106
H 8.24672 10.709 6.04703
H 11.5137 1.85011 0.92351
C 11.1892 11.1381 7.47507
C 8.20102 1.3719 2.3406
C 7.19853 7.62654 7.47302
C 10.4636 4.90458 2.35686
H 9.88885 4.47744 3.17528
C 6.69139 6.57577 6.69176
C 9.94043 5.945 1.56944
H 11.9605 6.17693 6.91975
H 8.95104 6.32683 1.80071
C 7.48025 6.06471 5.65205
C 10.7162 6.45777 0.52027
C 11.5654 1.24381 4.79419
C 8.303 11.2675 9.92158
C 6.98827 4.94016 4.83586
C 9.98454 7.56629 9.95688
C 1.6139 10.4358 6.02655
S 0.71117 10.842 5.24277
H 1.30546 9.7655 6.82392
C 2.67111 2.05905 3.52608
S 3.74904 1.63791 4.03098
H 2.07589 2.73422 4.13439
C 4.26776 8.43584 6.07299
S 5.20222 8.05416 5.31449
H 4.53166 9.13328 6.863
C 7.56605 4.17442 0.99827
S 8.34364 4.32195 0.01451
H 7.72921 3.30255 1.62549
C 11.8957 10.4388 8.66362
S 0.46927 10.8459 9.17732
H 11.2886 9.76862 9.26566
C 8.90227 2.02032 3.56039
S 10.1221 1.8531 3.84031
H 8.41169 2.8828 4.00274
C 6.4413 8.32559 8.62773
S 5.36729 7.88939 9.12815
H 7.00912 9.03255 9.22605
C 1.29017 4.13664 0.96389
S 2.21918 4.53197 0.20569
H 1.56501 3.44755 1.7575
124
Atoms. Timestep: 231
Ni 2.30714 8.8633 8.86293
Ni 6.1285 3.56706 3.51491
O 0.058667 4.89947 3.71
O 3.71526 7.85107 9.00174
O 4.75175 2.48551 3.58209
O 0.879198 9.87724 8.98328
O 5.56964 4.72845 4.77799
O 1.80748 7.70721 10.1308
O -0.763468 2.64872 4.84141
O 2.77424 10.0196 10.1337
N 3.0617 10.029 7.52261
N -0.317507 2.7097 2.25919
N 1.56746 7.69648 7.55025
N 5.37547 4.68154 2.14034
C 3.41873 10.7111 5.225
C -0.192202 1.69297 0.0965367
H 3.10153 10.7082 4.19054
H 6.54289 1.20226 9.67504
C 4.67241 11.2475 5.55069
C 1.06664 11.3959 0.379409
C 5.11894 11.134 6.86065
C 1.6184 1.38388 1.63645
H -1.30527 1.43627 7.17347
H 2.58895 11.2253 1.89066
C 1.47065 6.47316 5.48651
C 5.10544 5.52708 -0.110963
H 1.95043 6.10537 4.59159
H 12.95 6.24443 9.58777
C 2.21589 7.21956 6.41734
C 5.92363 4.91754 0.887882
C 2.54789 10.24 6.25219
C -0.947344 2.26289 1.13131
H 5.35375 2.15377 0.9087
C 4.30757 10.5319 7.82689
C 0.998974 2.31262 2.49511
H 4.70743 10.3922 8.81686
C 0.282139 7.28719 7.81529
C 4.1492 5.22502 2.44856
H -0.156045 7.50086 8.77361
H 3.73114 5.08296 3.4293
C -0.48467 6.62273 6.8653
C 3.44054 6.00675 1.54383
H 5.98638 6.07549 7.11178
H 2.5344 6.5103 1.86513
C 0.103165 6.23467 5.68328
C 3.90656 6.1658 0.254708
C 5.39698 1.84848 4.56621
C 1.54083 10.55 9.93421
C -0.636035 5.50719 4.64551
C 3.03049 7.16194 9.91485
Ni 9.78665 8.86725 8.73725
Ni -1.23363 3.80107 3.53778
O 7.4663 4.65084 3.6668
O 11.0639 7.70132 8.8213
O 12.4087 2.67665 3.57343
O 8.50444 10.0306 8.83409
O 13.1301 4.90001 4.82576
O 9.20646 7.72315 10.0003
O 6.58118 2.4522 4.82835
O 10.3174 9.95472 10.0665
N 10.7272 9.96835 7.44993
N 7.00343 2.41089 2.24309
N 8.89559 7.81602 7.39533
N 12.951 4.96562 2.17404
C 10.9925 10.9031 5.2527
C 7.18791 1.33938 0.100415
H 10.6942 10.8345 4.21885
H -0.800716 1.7151 9.64344
C 12.2208 1.25047 5.59846
C 8.5268 11.2233 0.370988
C 12.6945 11.2916 6.88707
C 9.02764 1.20288 1.63852
H 6.09635 1.25761 7.14395
H 9.98363 11.0367 1.94678
C 8.88502 6.46067 5.41275
C 12.7283 5.93323 -0.0385287
H 9.37911 6.17591 4.49939
H 5.2214 5.60139 9.4275
C 9.57284 7.24987 6.35415
C 13.51 5.24772 0.934432
H 10.6307 7.44012 6.22028
C 10.1764 10.3275 6.25647
C 6.40035 1.94659 1.10262
H 9.13863 10.1056 6.05175
H 12.975 2.48008 0.974243
C 12.0489 10.3467 7.71813
C 8.29599 1.99433 2.53074
C 7.55894 7.46408 7.60386
C 11.7691 5.60755 2.49991
H 11.4712 5.72529 3.52717
C 6.95085 6.47074 6.82537
C 10.9209 6.13672 1.52116
H 13.4515 6.37675 7.08134
H 9.92697 6.47639 1.79089
C 7.54591 6.07702 5.64175
C 11.3949 6.31117 0.235013
C 13.0152 2.04442 4.57726
C 9.12477 10.5871 9.85363
C 6.7993 5.29756 4.60299
C 10.3949 7.08409 9.77504
C 1.09057 10.0324 5.95086
S 0.637376 9.6664 4.63323
H 0.367348 10.0562 6.74634
C 1.90698 3.15141 3.30451
S 1.9742 3.0399 4.73533
H 1.94485 3.05654 4.38488
C 3.65301 7.53426 6.10741
S 4.1013 7.73022 4.75109
H 4.37021 7.6674 6.88585
C 7.40006 4.77097 0.641137
S 7.68696 4.55397 9.87595
H 8.0999 4.78071 1.4626
C 12.9417 9.45241 8.48332
S 13.0088 9.48607 9.91842
H 12.9737 9.48607 9.56818
C 8.93379 2.38259 3.76556
S 9.87337 3.44756 3.78388
H 8.83463 1.74936 4.62772
C 6.65093 8.33811 8.36936
S 6.46117 8.17076 9.78399
H 6.53361 8.21581 9.4388
C -0.00705539 5.04534 0.671975
S 0.231289 4.64243 9.93149
H 0.702679 5.11622 1.47745
124
Atoms. Timestep: 3627
Ni 2.27798 8.8717 8.86782
Ni 6.19874 3.55612 3.51053
O -0.0429377 4.95476 3.66096
O 3.68119 7.84527 8.99027
O 4.77575 2.5236 3.57671
O 0.87779 9.90411 8.98746
O 5.6881 4.7097 4.78148
O 1.78954 7.72901 10.1511
O -0.790263 2.71008 4.8206
O 2.77546 10.0337 10.1339
N 3.05893 10.0146 7.52086
N -0.372147 2.72957 2.23252
N 1.48431 7.70974 7.56114
N 5.45201 4.72549 2.15394
C 3.38306 10.74 5.23741
C -0.183737 1.7578 0.0487178
H 3.03871 10.7634 4.2119
H 6.46798 11.293 9.71604
C 4.63565 11.292 5.56019
C 1.06745 1.19936 0.357633
C 5.09279 11.1619 6.86452
C 1.60632 1.46192 1.61135
H 13.4532 1.74392 7.26453
H 2.60497 11.3681 1.85067
C 1.34157 6.64998 5.41149
C 5.07777 5.51003 -0.105699
H 1.8201 6.35828 4.4844
H 12.9164 6.18861 9.61049
C 2.10881 7.25747 6.42362
C 5.93372 4.91046 0.870551
C 2.53077 10.2488 6.26855
C -0.965564 2.32823 1.06947
H 5.36615 2.08802 0.967058
C 4.30964 10.4988 7.81766
C 0.962382 2.38276 2.46254
H 4.72604 10.3204 8.79084
C 0.187642 7.32494 7.81257
C 4.25975 5.3227 2.50652
H -0.246416 7.5227 8.77608
H 3.84073 5.15539 3.48219
C -0.587536 6.67325 6.8443
C 3.55566 6.14691 1.62906
H 6.14127 5.94749 7.11421
H 2.70622 6.71076 1.99126
C -0.0178103 6.34834 5.62466
C 3.93274 6.2225 0.302066
C 5.39464 1.86237 4.56191
C 1.544 10.5759 9.93091
C -0.745665 5.56786 4.59259
C 3.01513 7.17766 9.93259
Ni 9.81871 8.88868 8.70014
Ni -1.31269 3.81486 3.51578
O 7.59143 4.57692 3.66229
O 11.1051 7.74652 8.84894
O 12.3413 2.66194 3.58018
O 8.51483 10.0526 8.74127
O 13.0266 4.93566 4.77885
O 9.21869 7.78706 9.98983
O 6.60928 2.41104 4.80981
O 10.3238 10.027 9.98871
N 10.7658 9.94762 7.39347
N 7.05254 2.39785 2.22375
N 8.97649 7.77865 7.37963
N 12.8347 4.88806 2.1544
C 11.2411 10.594 5.1232
C 7.18432 1.31286 0.0775474
H 11.033 10.464 4.0688
H -0.778815 1.76245 9.59002
C 12.3154 1.14789 5.54075
C 8.58095 11.3895 0.222802
C 12.6214 11.4092 6.89899
C 9.18324 1.59076 1.38183
H 6.06301 1.29846 7.14693
H 10.2439 1.42488 1.53931
C 9.03373 6.35737 5.44156
C 12.6863 5.93425 -0.00594867
H 9.55767 6.0426 4.5538
H 5.12581 5.51683 9.40911
C 9.69508 7.15362 6.3951
C 13.4578 5.33036 1.00814
H 10.7574 7.33328 6.29802
C 10.3607 10.0545 6.09162
C 6.42688 1.92556 1.10477
H 9.38871 9.6973 5.79192
H 12.9673 2.56632 0.878362
C 12.0263 10.4375 7.7277
C 8.39039 2.07899 2.43207
C 7.6447 7.41661 7.57019
C 11.5185 5.22057 2.37595
H 11.0416 4.91023 3.28552
C 7.08104 6.38233 6.81916
C 10.7927 5.99986 1.46652
H 13.3542 6.41104 7.06009
H 9.81199 6.36928 1.73355
C 7.69091 5.98665 5.64901
C 11.3539 6.31449 0.241346
C 13.0087 2.06364 4.57015
C 9.14117 10.6592 9.73811
C 6.93883 5.23076 4.60893
C 10.409 7.14773 9.79501
C 1.06293 10.271 6.06959
S 0.471506 9.7921 4.84784
H 0.445818 10.8048 6.77543
C 1.85034 3.27647 3.23181
S 1.99547 3.15447 4.65581
H 1.95198 3.17489 4.30711
C 3.56944 7.11214 6.37836
S 4.32535 7.64442 5.27751
H 4.02159 6.37041 7.01914
C 7.39209 4.7902 0.588924
S 7.64856 4.50276 9.82531
H 8.1018 4.89888 1.38863
C 12.9747 9.56883 8.45733
S 13.0256 9.53016 9.89445
H 13.002 9.54887 9.54152
C 8.88515 1.84568 3.79118
S 9.58188 2.86902 4.51806
H 8.58222 11.1953 4.29967
C 6.71339 8.2872 8.3068
S 6.47026 8.09839 9.70911
H 6.53356 8.13705 9.36605
C -0.0400411 5.4234 0.929482
S 0.433388 4.87627 10.3629
H 0.46933 6.12795 1.57355
124
Atoms. Timestep: 3632
Ni 2.28289 8.86366 8.86787
Ni 6.19878 3.56438 3.51076
O -0.0342589 4.95968 3.66022
O 3.68522 7.83997 8.98929
O 4.77659 2.5346 3.57588
O 0.88361 9.89338 8.98643
O 5.687 4.71502 4.7814
O 1.7934 7.72406 10.1508
O -0.779546 2.7207 4.82054
O 2.78146 10.0227 10.1336
N 3.06242 10.0038 7.52136
N -0.364026 2.73997 2.2334
N 1.49073 7.70471 7.56185
N 5.45355 4.73067 2.15464
C 3.38671 10.7259 5.23748
C -0.175385 1.77199 0.0489535
H 3.04268 10.7494 4.21178
H 6.46719 11.2776 9.71568
C 4.63763 11.2765 5.56003
C 1.07429 1.21487 0.357622
C 5.09488 11.1472 6.86452
C 1.61298 1.47611 1.61133
H 13.4442 1.75837 7.26451
H 2.61035 11.352 1.85082
C 1.348 6.64883 5.41142
C 5.07916 5.51192 -0.105368
H 1.826 6.35798 4.48419
H 12.9076 6.18883 9.6101
C 2.11463 7.25441 6.42347
C 5.93466 4.91429 0.870497
C 2.53482 10.2365 6.26835
C -0.957057 2.34015 1.06927
H 5.36659 2.10094 0.967209
C 4.31245 10.4861 7.81749
C 0.969483 2.39381 2.46275
H 4.7279 10.308 8.79082
C 0.194818 7.32137 7.81247
C 4.26183 5.32591 2.50651
H -0.23829 7.51874 8.77607
H 3.84365 5.15883 3.48237
C -0.579563 6.67175 6.84431
C 3.5584 6.14777 1.62926
H 6.14068 5.94796 7.11416
H 2.71018 6.70988 1.99144
C -0.00979845 6.3481 5.62448
C 3.93567 6.2226 0.302125
C 5.39546 1.87482 4.56255
C 1.5497 10.5637 9.93128
C -0.736493 5.57125 4.59317
C 3.01922 7.17394 9.93301
Ni 9.81374 8.88059 8.70012
Ni -1.30287 3.82239 3.51602
O 7.59039 4.58281 3.66143
O 11.0991 7.74105 8.84794
O 12.3324 2.67231 3.57939
O 8.51104 10.0419 8.74034
O 13.0157 4.9401 4.77873
O 9.21288 7.78204 9.98953
O 6.6101 2.42241 4.80984
O 10.3198 10.0158 9.98843
N 10.7591 9.93668 7.3939
N 7.0509 2.40904 2.22463
N 8.97309 7.77399 7.38061
N 12.8264 4.89284 2.15526
C 11.2345 10.5801 5.12334
C 7.18286 1.32796 0.0775743
H 11.0265 10.4509 4.06872
H -0.770035 1.77649 9.58971
C 12.3074 1.16357 5.54058
C 8.57785 1.15139 0.222807
C 12.6135 1.17183 6.8988
C 9.18021 1.60506 1.38226
H 6.06372 1.31403 7.14689
H 10.2393 1.43962 1.53946
C 9.03021 6.35706 5.44132
C 12.678 5.93508 -0.00579863
H 9.55344 6.04326 4.55359
H 5.12705 5.51903 9.40879
C 9.69127 7.1505 6.39473
C 13.4489 5.33314 1.00814
H 10.752 7.33009 6.298
C 10.3544 10.0426 6.09129
C 6.42577 1.93857 1.10469
H 9.38379 9.68659 5.79183
H 12.9578 2.5778 0.878503
C 12.0187 10.4256 7.72752
C 8.38806 2.09194 2.43221
C 7.64234 7.41239 7.57029
C 11.511 5.22389 2.37614
H 11.0351 4.91438 3.28577
C 7.07916 6.3814 6.81894
C 10.786 6.00094 1.46667
H 13.344 6.41036 7.06003
H 9.80666 6.3693 1.73372
C 7.68878 5.98727 5.64869
C 11.3471 6.31432 0.24133
C 12.9996 2.07558 4.57078
C 9.13686 10.647 9.73844
C 6.93801 5.23507 4.60952
C 10.4034 7.14383 9.79536
C 1.0693 10.2587 6.06967
S 0.478373 9.78104 4.84723
H 0.452828 10.7911 6.77562
C 1.85692 3.28655 3.23185
S 2.00088 3.16406 4.65611
H 1.95744 3.18429 4.30726
C 3.57291 7.10955 6.37841
S 4.32836 7.64038 5.27684
H 4.0246 6.36958 7.01943
C 7.39091 4.79487 0.589195
S 7.64698 4.50806 9.82472
H 8.09973 4.90306 1.38884
C 12.9665 9.55787 8.45723
S 13.0165 9.51998 9.89457
H 12.9929 9.53881 9.54146
C 8.88163 1.85824 3.7907
S 9.57822 2.88091 4.51865
H 8.57862 11.1792 4.29977
C 6.7116 8.28192 8.30655
S 6.46974 8.09267 9.70925
H 6.53296 8.13118 9.36602
C -0.0316711 5.426 0.929759
S 0.44131 4.88028 10.362
H 0.477217 6.12881 1.57404
124
Atoms. Timestep: 5326
Ni 2.2822 8.86534 8.86737
Ni 6.19991 3.56228 3.5095
O -0.038285 4.96725 3.65976
O 3.6835 7.83832 8.98897
O 4.77859 2.52926 3.57342
O 0.88417 9.89844 8.98626
O 5.6874 4.7126 4.78108
O 1.79247 7.72548 10.151
O -0.778114 2.72407 4.82183
O 2.78233 10.0267 10.1317
N 3.06217 10.0054 7.52012
N -0.363181 2.74169 2.23564
N 1.48833 7.70404 7.56312
N 5.45409 4.73158 2.15471
C 3.3865 10.7217 5.23513
C -0.177107 1.77371 0.0518042
H 3.0417 10.7437 4.20969
H 6.46888 11.2817 9.71276
C 4.64047 11.2701 5.5561
C 1.07659 1.2206 0.357058
C 5.09751 11.145 6.8606
C 1.61771 1.48238 1.60983
H 13.4448 1.76698 7.26651
H 2.61806 11.3599 1.84634
C 1.34339 6.65656 5.4096
C 5.07611 5.50604 -0.106358
H 1.82046 6.37073 4.4799
H 12.8979 6.16826 9.60228
C 2.11205 7.25458 6.42452
C 5.93426 4.91273 0.870397
C 2.53372 10.2372 6.26766
C -0.958591 2.33699 1.07509
H 5.36555 2.09378 0.970108
C 4.31265 10.4895 7.81612
C 0.97246 2.39871 2.46379
H 4.72811 10.3146 8.79004
C 0.192876 7.31712 7.81575
C 4.26358 5.33134 2.50806
H -0.23907 7.50873 8.78132
H 3.84582 5.16761 3.48461
C -0.583846 6.67247 6.8452
C 3.55824 6.15113 1.62904
H 6.13972 5.94016 7.11702
H 2.70976 6.71695 1.9905
C -0.0159108 6.35622 5.62273
C 3.93253 6.21988 0.301262
C 5.39862 1.86771 4.55737
C 1.55193 10.57 9.92849
C -0.74262 5.5793 4.59054
C 3.01647 7.17236 9.93128
Ni 9.81409 8.88117 8.69991
Ni -1.30431 3.82497 3.5169
O 7.5908 4.58324 3.66185
O 11.0973 7.7377 8.84922
O 12.3336 2.66999 3.58184
O 8.5132 10.0466 8.7384
O 13.0122 4.94441 4.77818
O 9.21054 7.78263 9.98918
O 6.61199 2.41728 4.80648
O 10.3213 10.0184 9.98686
N 10.7622 9.93598 7.39461
N 7.05352 2.40761 2.2234
N 8.97235 7.77292 7.38136
N 12.8226 4.89347 2.15604
C 11.242 10.5723 5.1242
C 7.1848 1.3296 0.0757178
H 11.0356 10.4392 4.0698
H -0.773885 1.78032 9.59331
C 12.314 1.15981 5.54164
C 8.58186 1.15781 0.218893
C 12.6165 1.17382 6.90047
C 9.18487 1.61154 1.37773
H 6.06866 1.31196 7.14141
H 10.2463 1.44847 1.53323
C 9.03135 6.35319 5.44456
C 12.6703 5.92241 -0.0101977
H 9.55448 6.04207 4.55538
H 5.1223 5.50929 9.40751
C 9.69213 7.14599 6.39927
C 13.444 5.32989 1.00709
H 10.7549 7.32394 6.30395
C 10.3591 10.0393 6.09223
C 6.42706 1.9346 1.10562
H 9.38608 9.68492 5.79265
H 12.9529 2.56966 0.887421
C 12.0219 10.4263 7.73011
C 8.39207 2.09217 2.43008
C 7.64098 7.41086 7.57242
C 11.5069 5.22609 2.37805
H 11.0304 4.91664 3.28785
C 7.07853 6.3768 6.82172
C 10.7815 6.00282 1.46769
H 13.3387 6.40863 7.06106
H 9.80344 6.37827 1.73618
C 7.68868 5.98386 5.65108
C 11.3399 6.30691 0.238941
C 13.0035 2.07468 4.57146
C 9.14079 10.6527 9.73451
C 6.93724 5.23473 4.60901
C 10.3987 7.14058 9.79387
C 1.06595 10.2627 6.06928
S 0.472961 9.78597 4.84738
H 0.450703 10.7981 6.77527
C 1.85874 3.2938 3.23337
S 2.00504 3.17125 4.6572
H 1.96119 3.19174 4.30854
C 3.57165 7.10084 6.38073
S 4.33239 7.63498 5.28419
H 4.01861 6.35366 7.01895
C 7.39304 4.79677 0.588353
S 7.6504 4.51274 9.82391
H 8.10219 4.90292 1.38869
C 12.9706 9.55722 8.45898
S 13.0193 9.51373 9.8962
H 12.996 9.53371 9.54314
C 8.88704 1.85127 3.78761
S 9.57687 2.87328 4.52307
H 8.58363 11.1664 4.2904
C 6.70917 8.28237 8.30733
S 6.46603 8.09634 9.71006
H 6.5294 8.1343 9.36688
C -0.0347275 5.43106 0.928889
S 0.442684 4.88167 10.3655
H 0.47042 6.14107 1.57037
124
Atoms. Timestep: 5328
Ni 2.28562 8.86399 8.86778
Ni 6.19988 3.56368 3.50933
O -0.0326289 4.96792 3.6596
O 3.68564 7.83751 8.98939
O 4.77985 2.5312 3.57325
O 0.888864 9.89655 8.98668
O 5.6878 4.7134 4.78104
O 1.7963 7.72472 10.1516
O -0.771809 2.72591 4.8218
O 2.78526 10.0248 10.1322
N 3.06491 10.0035 7.52038
N -0.357196 2.74352 2.23532
N 1.49251 7.70329 7.56338
N 5.45477 4.73237 2.15439
C 3.389 10.7194 5.23514
C -0.171242 1.77603 0.051253
H 3.04453 10.7414 4.20959
H 6.46846 11.2791 9.71326
C 4.64181 11.2675 5.55615
C 1.08131 1.22322 0.35654
C 5.09841 11.1425 6.86079
C 1.6219 1.48486 1.60945
H 13.4381 1.76931 7.26674
H 2.62133 11.3573 1.84598
C 1.34774 6.65636 5.40963
C 5.07718 5.50643 -0.106927
H 1.8244 6.37068 4.47983
H 12.8916 6.16831 9.60276
C 2.11568 7.25406 6.42466
C 5.93453 4.91343 0.869935
C 2.53697 10.2351 6.26778
C -0.952036 2.33903 1.07465
H 5.36633 2.09594 0.969656
C 4.31424 10.4873 7.81641
C 0.977221 2.40071 2.4635
H 4.7293 10.3125 8.79044
C 0.198227 7.31658 7.81604
C 4.26534 5.33182 2.50777
H -0.233347 7.50808 8.78171
H 3.84794 5.16818 3.48443
C -0.577764 6.67226 6.84539
C 3.56066 6.15119 1.62866
H 6.13966 5.94033 7.11723
H 2.71295 6.71671 1.99016
C -0.0103196 6.35617 5.62278
C 3.93463 6.21991 0.300738
C 5.39929 1.86999 4.55731
C 1.55599 10.5678 9.92901
C -0.736342 5.57966 4.59048
C 3.01919 7.17188 9.9318
Ni 9.81064 8.87981 8.7003
Ni 13.6395 3.82624 3.51672
O 7.58949 4.58411 3.66169
O 11.0927 7.73694 8.84962
O 12.328 2.67185 3.58167
O 8.51094 10.0447 8.73879
O 13.0059 4.94509 4.77814
O 9.20761 7.78184 9.9897
O 6.61155 2.41927 4.80645
O 10.3173 10.0164 9.98738
N 10.7579 9.93407 7.39485
N 7.05274 2.40961 2.22308
N 8.9697 7.77214 7.3816
N 12.8166 4.89418 2.15571
C 11.2373 10.57 5.1242
C 7.18395 1.33216 0.0751692
H 11.0312 10.437 4.06968
H -0.767692 1.78264 9.5938
C 12.3083 1.16246 5.54169
C 8.57973 1.16045 0.21836
C 12.6105 1.17645 6.90066
C 9.18216 1.61395 1.37732
H 6.06867 1.31453 7.14163
H 10.2426 1.45097 1.53284
C 9.02869 6.35314 5.44459
C 12.6644 5.92259 -0.0107556
H 9.55136 6.04218 4.55532
H 5.12312 5.50968 9.40797
C 9.68884 7.14554 6.39941
C 13.4375 5.33037 1.00664
H 10.7506 7.32339 6.30408
C 10.3552 10.0374 6.09234
C 6.42688 1.93685 1.10518
H 9.38309 9.68315 5.79272
H 12.9467 2.57157 0.886961
C 12.0164 10.4242 7.73039
C 8.39006 2.09433 2.42978
C 7.63954 7.41026 7.57268
C 11.502 5.22663 2.37775
H 11.0259 4.91734 3.28764
C 7.07762 6.37674 6.82191
C 10.7773 6.00296 1.46729
H 13.3321 6.40855 7.06127
H 9.80015 6.37821 1.73581
C 7.68724 5.98401 5.65114
C 11.3352 6.30689 0.23841
C 12.9973 2.07685 4.5714
C 9.13793 10.6504 9.73501
C 6.93651 5.23527 4.60896
C 10.3947 7.14013 9.79437
C 1.07055 10.2606 6.06939
S 0.478123 9.78414 4.84735
H 0.455843 10.7957 6.77545
C 1.86267 3.29534 3.23316
S 2.00881 3.17286 4.65715
H 1.96501 3.19333 4.30845
C 3.57395 7.10041 6.38087
S 4.33402 7.63427 5.2842
H 4.02048 6.35361 7.01915
C 7.39198 4.79753 0.58786
S 7.6489 4.51365 9.82441
H 8.10046 4.90362 1.38829
C 12.9643 9.55551 8.45934
S 13.0129 9.51205 9.89671
H 12.9896 9.53202 9.54362
C 8.88454 1.85355 3.78746
S 9.57373 2.87504 4.523
H 8.5814 11.1639 4.2903
C 6.70856 8.28132 8.30768
S 6.46562 8.09539 9.71056
H 6.52893 8.13333 9.36734
C -0.029013 5.43149 0.928433
S 0.447749 4.88238 10.3661
H 0.475659 6.14113 1.56998
124
Atoms. Timestep: 6638
Ni 2.28534 8.86441 8.86701
Ni 6.20026 3.56408 3.50909
O -0.0333001 4.9692 3.65939
O 3.68553 7.83651 8.98832
O 4.77944 2.5308 3.57251
O 0.888497 9.89845 8.98599
O 5.68718 4.71343 4.7808
O 1.79476 7.72549 10.1508
O -0.770997 2.72646 4.8221
O 2.78692 10.0253 10.1309
N 3.06526 10.0035 7.51952
N -0.356719 2.74319 2.23629
N 1.49103 7.70354 7.56315
N 5.45486 4.73349 2.15459
C 3.38863 10.7187 5.23436
C -0.171522 1.7768 0.0521253
H 3.04342 10.7405 4.20904
H 6.46716 11.2818 9.71315
C 4.64274 11.2666 5.55472
C 1.08271 1.22473 0.356073
C 5.10043 11.1419 6.85899
C 1.62482 1.48633 1.60854
H 13.4379 1.77313 7.26743
H 2.6257 11.3594 1.84401
C 1.34604 6.65915 5.40856
C 5.07611 5.50465 -0.107147
H 1.82288 6.37516 4.47818
H 12.8902 6.16213 9.60128
C 2.11474 7.25498 6.42425
C 5.93472 4.91315 0.869947
C 2.53622 10.2353 6.2673
C -0.952774 2.33777 1.07639
H 5.36448 2.09569 0.971364
C 4.31575 10.4874 7.81501
C 0.979244 2.40128 2.46367
H 4.73131 10.3129 8.78882
C 0.196076 7.31547 7.81607
C 4.26537 5.33505 2.50808
H -0.235296 7.50499 8.78225
H 3.84784 5.17292 3.48491
C -0.580617 6.67188 6.84497
C 3.56045 6.15422 1.62847
H 6.13946 5.93591 7.11882
H 2.71314 6.7219 1.98977
C -0.0129101 6.35808 5.62173
C 3.93356 6.21994 0.30026
C 5.40002 1.86915 4.55606
C 1.55711 10.5695 9.92798
C -0.738544 5.58101 4.58967
C 3.01804 7.17132 9.93078
Ni 9.81051 8.87988 8.70094
Ni 13.6388 3.82602 3.51693
O 7.59074 4.58521 3.66172
O 11.0934 7.73638 8.85053
O 12.3272 2.67018 3.58205
O 8.50988 10.0455 8.73884
O 13.0033 4.94515 4.77748
O 9.20638 7.78213 9.99005
O 6.61286 2.41915 4.80543
O 10.318 10.017 9.98727
N 10.7583 9.9339 7.39581
N 7.05348 2.4103 2.22304
N 8.96954 7.77167 7.3829
N 12.8151 4.89307 2.15581
C 11.2389 10.5671 5.12517
C 7.18334 1.33362 0.0751431
H 11.0333 10.4324 4.07081
H -0.768925 1.78432 9.59499
C 12.3095 1.16147 5.5423
C 8.58035 1.16248 0.217388
C 12.6111 1.17786 6.90134
C 9.18421 1.61592 1.37589
H 6.07185 1.31389 7.13922
H 10.2458 1.45301 1.53059
C 9.03009 6.35282 5.44608
C 12.6629 5.91856 -0.0115736
H 9.55334 6.0431 4.55657
H 5.12154 5.50614 9.40766
C 9.69013 7.14478 6.40143
C 13.4367 5.32829 1.00653
H 10.7529 7.32281 6.30682
C 10.3554 10.036 6.0933
C 6.42619 1.93698 1.10594
H 9.38211 9.68231 5.79394
H 12.9445 2.56895 0.889833
C 12.0173 10.4253 7.7315
C 8.39204 2.09509 2.42902
C 7.63862 7.40863 7.57407
C 11.4995 5.22576 2.37741
H 11.0225 4.916 3.28677
C 7.07726 6.37439 6.82316
C 10.7751 6.00307 1.46716
H 13.3287 6.40674 7.06095
H 9.79805 6.38097 1.73608
C 7.68767 5.98313 5.65209
C 11.3334 6.30489 0.237876
C 12.9978 2.07599 4.57184
C 9.1381 10.6517 9.73454
C 6.93673 5.23594 4.60911
C 10.3939 7.13956 9.7947
C 1.06847 10.2614 6.06951
S 0.474856 9.78527 4.84767
H 0.453939 10.7975 6.7755
C 1.86505 3.29678 3.23337
S 2.01049 3.17515 4.65742
H 1.96679 3.1954 4.30868
C 3.57408 7.09943 6.38092
S 4.33602 7.63423 5.28553
H 4.01963 6.35061 7.01815
C 7.39356 4.79767 0.587751
S 7.65106 4.51533 9.82414
H 8.10251 4.90077 1.38857
C 12.9668 9.55665 8.46007
S 13.0143 9.51101 9.89734
H 12.9912 9.53154 9.54422
C 8.88686 1.85096 3.78598
S 9.57299 2.87258 4.52553
H 8.58327 11.1595 4.28621
C 6.70606 8.27988 8.30834
S 6.4642 8.09579 9.71159
H 6.52732 8.13328 9.36826
C -0.0285169 5.43085 0.928733
S 0.44972 4.88156 10.367
H 0.475656 6.14191 1.56979
124
Atoms. Timestep: 6641
Ni 2.28752 8.86243 8.86842
Ni 6.20021 3.56612 3.50847
O -0.0295935 4.97019 3.65883
O 3.68689 7.83531 8.98977
O 4.78022 2.53362 3.57192
O 0.891497 9.8957 8.98744
O 5.68739 4.7146 4.78066
O 1.79718 7.72439 10.1527
O -0.766868 2.72915 4.82198
O 2.7888 10.0225 10.1328
N 3.067 10.0007 7.52042
N -0.352807 2.74585 2.2352
N 1.49372 7.70245 7.56407
N 5.45529 4.73465 2.15347
C 3.39024 10.7153 5.2344
C -0.167671 1.78021 0.0502115
H 3.04525 10.7371 4.20869
H 6.46682 11.278 9.71488
C 4.64358 11.2628 5.55487
C 1.0858 1.22854 0.354264
C 5.10098 11.1382 6.85964
C 1.62757 1.48994 1.60721
H 13.4334 1.77653 7.26823
H 2.62784 11.3555 1.84277
C 1.34886 6.65885 5.40867
C 5.07681 5.50522 -0.109118
H 1.82545 6.37508 4.47793
H 12.886 6.1622 9.60297
C 2.11709 7.25423 6.42474
C 5.93489 4.91416 0.868334
C 2.5383 10.2322 6.26773
C -0.948496 2.34075 1.07486
H 5.36498 2.09884 0.969791
C 4.31675 10.4842 7.81601
C 0.982355 2.4042 2.46266
H 4.73203 10.3098 8.79019
C 0.19953 7.31466 7.81708
C 4.2665 5.33575 2.50708
H -0.231599 7.50404 8.78362
H 3.8492 5.17374 3.48428
C -0.576684 6.67156 6.84562
C 3.56202 6.15431 1.62715
H 6.13936 5.93615 7.11957
H 2.71521 6.72156 1.98858
C -0.00927174 6.35801 5.62191
C 3.93495 6.21997 0.29843
C 5.40044 1.87247 4.55585
C 1.55971 10.5663 9.92979
C -0.734455 5.58153 4.58947
C 3.01977 7.17062 9.93259
Ni 9.80819 8.87789 8.70228
Ni 13.6343 3.82787 3.51632
O 7.58987 4.58648 3.66116
O 11.0903 7.73525 8.85193
O 12.3235 2.67289 3.58146
O 8.50832 10.0426 8.7402
O 12.9991 4.94615 4.77734
O 9.20437 7.78098 9.99188
O 6.61256 2.42207 4.8053
O 10.3154 10.0141 9.98909
N 10.7554 9.93111 7.39666
N 7.05295 2.41321 2.22194
N 8.96775 7.77053 7.38375
N 12.8111 4.89411 2.15469
C 11.2358 10.5638 5.12517
C 7.18277 1.33735 0.073236
H 11.0303 10.4292 4.07041
H -0.764925 1.78772 9.59668
C 12.3058 1.16533 5.54245
C 8.57894 1.16634 0.215527
C 12.6071 1.18172 6.90201
C 9.18244 1.61944 1.37447
H 6.07181 1.31765 7.13998
H 10.2434 1.45665 1.52923
C 9.0283 6.35276 5.4462
C 12.6591 5.91881 -0.0135116
H 9.55126 6.04326 4.55635
H 5.12201 5.50671 9.40928
C 9.68794 7.14412 6.4019
C 13.4324 5.32899 1.00497
H 10.7501 7.322 6.30726
C 10.3528 10.0331 6.09366
C 6.42604 1.94026 1.10442
H 9.3801 9.67971 5.79419
H 12.9404 2.57175 0.888229
C 12.0137 10.4221 7.73247
C 8.39071 2.09825 2.428
C 7.63762 7.40775 7.57498
C 11.4963 5.22655 2.37637
H 11.0195 4.91702 3.28607
C 7.0766 6.3743 6.82379
C 10.7723 6.00327 1.46577
H 13.3243 6.40662 7.06168
H 9.79587 6.38088 1.7348
C 7.68669 5.98334 5.65228
C 11.3303 6.30485 0.236023
C 12.9937 2.07916 4.57164
C 9.13616 10.6484 9.73628
C 6.93621 5.23673 4.60891
C 10.3912 7.13889 9.79647
C 1.07144 10.2584 6.06986
S 0.478208 9.7826 4.84756
H 0.457262 10.794 6.77611
C 1.86762 3.29903 3.23267
S 2.01293 3.17749 4.65723
H 1.96926 3.19772 4.30837
C 3.57555 7.0988 6.38139
S 4.33706 7.63319 5.28559
H 4.02082 6.35054 7.01886
C 7.39287 4.79878 0.586031
S 7.65001 4.51665 9.82591
H 8.10137 4.9018 1.38715
C 12.9626 9.55415 8.46134
S 13.01 9.50854 9.89913
H 12.9869 9.52906 9.54588
C 8.8852 1.85429 3.78546
S 9.5709 2.87516 4.5253
H 8.58177 11.1557 4.28588
C 6.70559 8.27836 8.30955
S 6.46386 8.0944 9.71331
H 6.52695 8.13186 9.36986
C -0.0247652 5.43148 0.927144
S 0.452982 4.8826 10.369
H 0.479091 6.142 1.56844
124
Atoms. Timestep: 7970
Ni 2.28736 8.86311 8.86776
Ni 6.20046 3.56614 3.5079
O -0.0300719 4.97186 3.65877
O 3.68676 7.83459 8.98911
O 4.78011 2.53254 3.57109
O 0.891348 9.89787 8.98666
O 5.68692 4.71468 4.77973
O 1.79612 7.72516 10.1518
O -0.766221 2.7294 4.82185
O 2.78996 10.0239 10.1312
N 3.06725 10.0013 7.51984
N -0.352535 2.74552 2.23622
N 1.49284 7.70229 7.5643
N 5.45525 4.73556 2.15358
C 3.38993 10.7144 5.23416
C -0.168313 1.78098 0.0514603
H 3.04434 10.7357 4.20893
H 6.46582 11.2795 9.7153
C 4.64435 11.2617 5.55364
C 1.0866 1.23004 0.35387
C 5.10254 11.1379 6.85785
C 1.62957 1.49103 1.6062
H 13.4331 1.78016 7.26817
H 2.6309 11.3569 1.84066
C 1.34795 6.66077 5.40863
C 5.07565 5.5033 -0.10891
H 1.82466 6.37853 4.47764
H 12.8848 6.15648 9.60224
C 2.11665 7.25449 6.4252
C 5.93474 4.9137 0.868599
C 2.53774 10.2326 6.26776
C -0.949292 2.33958 1.07689
H 5.36358 2.09751 0.971525
C 4.31784 10.4849 7.81467
C 0.983773 2.40458 2.46266
H 4.73347 10.3111 8.78846
C 0.198293 7.31323 7.81732
C 4.26662 5.33869 2.50713
H -0.232729 7.50102 8.78395
H 3.84934 5.17808 3.48426
C -0.578342 6.67073 6.84554
C 3.56191 6.15706 1.62679
H 6.13939 5.93186 7.1201
H 2.71547 6.72624 1.98779
C -0.0108343 6.35946 5.62152
C 3.93402 6.21994 0.298152
C 5.40115 1.87097 4.55445
C 1.56053 10.5687 9.92854
C -0.735903 5.5833 4.58894
C 3.01888 7.17019 9.93182
Ni 9.80809 8.87774 8.7026
Ni 13.6339 3.82801 3.51656
O 7.59053 4.58757 3.66071
O 11.0907 7.7341 8.85243
O 12.3231 2.67156 3.58185
O 8.50769 10.0435 8.74015
O 12.9975 4.94679 4.77663
O 9.2035 7.78065 9.9916
O 6.61364 2.42133 4.80376
O 10.3159 10.0147 9.98847
N 10.7556 9.93117 7.39751
N 7.05342 2.41308 2.22178
N 8.96766 7.7696 7.38487
N 12.8103 4.8941 2.15526
C 11.2366 10.5615 5.12651
C 7.18226 1.33783 0.0734849
H 11.0315 10.4252 4.07226
H -0.766419 1.7897 9.59852
C 12.3065 1.16459 5.543
C 8.57934 1.16766 0.214756
C 12.6074 1.18312 6.9022
C 9.18381 1.6206 1.37315
H 6.07427 1.31743 7.1374
H 10.2455 1.45802 1.52712
C 9.02916 6.35258 5.44716
C 12.658 5.91534 -0.0137799
H 9.55238 6.04458 4.5571
H 5.12032 5.50299 9.40969
C 9.68879 7.14312 6.40356
C 13.4319 5.3278 1.00544
H 10.7516 7.32109 6.3096
C 10.3527 10.0325 6.09501
C 6.4255 1.93946 1.10523
H 9.37876 9.67988 5.79614
H 12.9385 2.5694 0.891507
C 12.0143 10.4232 7.73305
C 8.39207 2.09836 2.42703
C 7.63705 7.40586 7.57593
C 11.4948 5.22713 2.37653
H 11.0175 4.91775 3.28581
C 7.07645 6.37185 6.82434
C 10.7709 6.00402 1.46573
H 13.3222 6.40461 7.06146
H 9.79467 6.38376 1.73473
C 7.68691 5.98261 5.65259
C 11.329 6.30303 0.235641
C 12.9942 2.07823 4.57185
C 9.13634 10.6496 9.73569
C 6.93621 5.23757 4.60844
C 10.3906 7.13765 9.79641
C 1.06999 10.2595 6.07052
S 0.475684 9.78374 4.84888
H 0.456168 10.7964 6.77646
C 1.86927 3.30036 3.23241
S 2.01417 3.17938 4.65658
H 1.97052 3.19948 4.30782
C 3.57579 7.09739 6.38237
S 4.3388 7.63246 5.28788
H 4.02022 6.34756 7.01919
C 7.39369 4.79917 0.586373
S 7.65139 4.51777 9.82664
H 8.10243 4.90099 1.38748
C 12.9643 9.55486 8.46131
S 13.011 9.50751 9.89859
H 12.988 9.52847 9.54544
C 8.88704 1.85203 3.78348
S 9.5705 2.8735 4.52577
H 8.5836 11.1518 4.28193
C 6.70391 8.27694 8.30968
S 6.46291 8.09428 9.71328
H 6.52587 8.13141 9.36986
C -0.0244748 5.43194 0.92806
S 0.45465 4.88256 10.371
H 0.478712 6.14395 1.56882
124
Atoms. Timestep: 7972
Ni 2.28952 8.86237 8.86885
Ni 6.20042 3.5669 3.50743
O -0.0264515 4.97222 3.65834
O 3.6881 7.83414 8.99024
O 4.7809 2.53359 3.57063
O 0.894323 9.89685 8.98778
O 5.68716 4.71511 4.77963
O 1.79854 7.72475 10.1532
O -0.76219 2.7304 4.82176
O 2.79179 10.0228 10.1327
N 3.06897 10.0002 7.52054
N -0.348697 2.74651 2.23537
N 1.49549 7.70189 7.56501
N 5.45567 4.73599 2.15271
C 3.39151 10.7132 5.23419
C -0.164541 1.78224 0.0499775
H 3.04614 10.7344 4.20866
H 6.4655 11.2781 9.71664
C 4.64519 11.2603 5.55376
C 1.08963 1.23146 0.352476
C 5.10308 11.1366 6.85835
C 1.63226 1.49237 1.60517
H 13.4287 1.78142 7.26879
H 2.63299 11.3555 1.8397
C 1.35073 6.66065 5.40871