/apps/openmpi/3.1_intel-19/bin/mpiexec
/apps/qe/6.6/bin/pw.x
starting QE Tue Nov 17 10:34:12 PST 2020

     Program PWSCF v.6.6 starts on 17Nov2020 at 10:34:13 

     This program is part of the open-source Quantum ESPRESSO suite
     for quantum simulation of materials; please cite
         "P. Giannozzi et al., J. Phys.:Condens. Matter 21 395502 (2009);
         "P. Giannozzi et al., J. Phys.:Condens. Matter 29 465901 (2017);
          URL http://www.quantum-espresso.org", 
     in publications or presentations arising from this work. More details at
     http://www.quantum-espresso.org/quote

     Parallel version (MPI), running on    32 processors

     MPI processes distributed on     1 nodes
     K-points division:     npool     =       2
     R & G space division:  proc/nbgrp/npool/nimage =      16
     Fft bands division:     nmany     =       1
     Reading input from ./QE_input_scripts/pw.NiPyC2_vdw-df2-vc-relax.in

     Current dimensions of program PWSCF are:
     Max number of different atomic species (ntypx) = 10
     Max number of k-points (npk) =  40000
     Max angular momentum in pseudopotentials (lmaxx) =  3

     IMPORTANT: XC functional enforced from input :
     Exchange-correlation= VDW-DF2
                           (   1   4  13   0   2   0   0)
     Any further DFT definition will be discarded
     Please, verify this is what you really want


     -------------------------------------------------
     Parameters for Dispersion (Grimme-D2) Correction:
     -------------------------------------------------
       atom      VdW radius       C_6     

        C          2.744         60.710
        H          1.892          4.857
        N          2.640         42.670
        Ni         2.952        374.666
        O          2.536         24.284

     gamma-point specific algorithms are used

     Subspace diagonalization in iterative solution of the eigenvalue problem:
     one sub-group per band group will be used
     scalapack distributed-memory algorithm (size of sub-group:  4*  4 procs)

     Message from routine setup:
     using ibrav=0 with symmetry is DISCOURAGED, use correct ibrav instead
 
     Parallelization info
     --------------------
     sticks:   dense  smooth     PW     G-vecs:    dense   smooth      PW
     Min         556     556    138                45842    45842    5724
     Max         558     558    140                45850    45850    5730
     Sum        8917    8917   2219               733525   733525   91637
 


     bravais-lattice index     =            0
     lattice parameter (alat)  =      11.8161  a.u.
     unit-cell volume          =    5429.3113 (a.u.)^3
     number of atoms/cell      =           54
     number of atomic types    =            5
     number of electrons       =       200.00 (up: 102.00, down:  98.00)
     number of Kohn-Sham states=          122
     kinetic-energy cutoff     =     100.0000  Ry
     charge density cutoff     =     400.0000  Ry
     convergence threshold     =      1.0E-06
     mixing beta               =       0.7000
     number of iterations used =            8  local-TF  mixing
     Exchange-correlation= VDW-DF2
                           (   1   4  13   0   2   0   0)
     nstep                     =          200


     celldm(1)=  11.816080  celldm(2)=   0.000000  celldm(3)=   0.000000
     celldm(4)=   0.000000  celldm(5)=   0.000000  celldm(6)=   0.000000

     crystal axes: (cart. coord. in units of alat)
               a(1) = (   1.000000   0.000000   0.000000 )  
               a(2) = (   0.000000   2.002847   0.000000 )  
               a(3) = (  -0.036399   0.000000   1.643149 )  

     reciprocal axes: (cart. coord. in units 2 pi/alat)
               b(1) = (  1.000000  0.000000  0.022152 )  
               b(2) = (  0.000000  0.499289  0.000000 )  
               b(3) = (  0.000000  0.000000  0.608588 )  


     PseudoPot. # 1 for C  read from file:
     ./pseudo/C.pbesol-nc.UPF
     MD5 check sum: ce26087537ded160c8d400e183a8bf42
     Pseudo is Norm-conserving, Zval =  4.0
     Generated using "atomic" code by A. Dal Corso v.6.5
     Using radial grid of 1073 points,  1 beta functions with: 
                l(1) =   1

     PseudoPot. # 2 for H  read from file:
     ./pseudo/H.pbesol-n-nc.UPF
     MD5 check sum: 7995ef24074557c85b430109caaacc09
     Pseudo is Norm-conserving, Zval =  1.0
     Generated using "atomic" code by A. Dal Corso v.6.5
     Using radial grid of  929 points,  0 beta functions with: 

     PseudoPot. # 3 for N  read from file:
     ./pseudo/N.pbesol-nc.UPF
     MD5 check sum: e18cc5e4b8a5600c1a19b30c2cab1ca0
     Pseudo is Norm-conserving, Zval =  5.0
     Generated using "atomic" code by A. Dal Corso v.6.5
     Using radial grid of 1085 points,  1 beta functions with: 
                l(1) =   1

     PseudoPot. # 4 for Ni read from file:
     ./pseudo/Ni.pbesol-n-nc.UPF
     MD5 check sum: 623411631e0c2eb7c0b2b9815547d2d9
     Pseudo is Norm-conserving + core correction, Zval = 10.0
     Generated using "atomic" code by A. Dal Corso v.6.5
     Using radial grid of 1195 points,  2 beta functions with: 
                l(1) =   1
                l(2) =   2

     PseudoPot. # 5 for O  read from file:
     ./pseudo/O.pbesol-nc.UPF
     MD5 check sum: 73d10e7e91dbfcbe8a7e362101007f84
     Pseudo is Norm-conserving, Zval =  6.0
     Generated using "atomic" code by A. Dal Corso v.6.5
     Using radial grid of 1095 points,  1 beta functions with: 
                l(1) =   1

     atomic species   valence    mass     pseudopotential
        C              4.00    12.01070     C ( 1.00)
        H              1.00     1.00794     H ( 1.00)
        N              5.00    14.00670     N ( 1.00)
        Ni            10.00    58.69340     Ni( 1.00)
        O              6.00    15.99940     O ( 1.00)

     Starting magnetic structure 
     atomic species   magnetization
        C            0.000
        H            0.000
        N            0.000
        Ni           0.250
        O            0.000

      2 Sym. Ops. (no inversion) found ( 1 have fractional translation)



   Cartesian axes

     site n.     atom                  positions (alat units)
         1           C   tau(   1) = (   0.5691129   1.9213309   0.8435924  )
         2           C   tau(   2) = (   0.7737740   1.9988410   0.8769484  )
         3           C   tau(   3) = (   0.8939722   1.9119175   1.0440566  )
         4           C   tau(   4) = (   0.3878954   1.0396777   0.8940371  )
         5           C   tau(   5) = (   0.4576709   1.2081171   1.0215454  )
         6           C   tau(   6) = (   0.4898428   1.7643077   0.9776734  )
         7           C   tau(   7) = (   0.8025222   1.7578986   1.1727151  )
         8           C   tau(   8) = (   0.1377615   1.2107208   1.2070569  )
         9           C   tau(   9) = (   0.0584822   1.0420812   1.0887502  )
        10           C   tau(  10) = (   0.1873493   0.9553579   0.9277216  )
        11           C   tau(  11) = (   0.8614386   0.1788542   0.7476326  )
        12           C   tau(  12) = (   0.1044740   0.7734994   0.7911760  )
        13           C   tau(  13) = (   0.0873123   0.0815159   0.0220182  )
        14           C   tau(  14) = (   0.2919734   0.0040057   0.0553741  )
        15           C   tau(  15) = (   0.4121716   0.0909292   0.2224823  )
        16           C   tau(  16) = (   0.9060948   0.9631690   0.0724628  )
        17           C   tau(  17) = (   0.9758703   0.7947296   0.1999712  )
        18           C   tau(  18) = (   0.0080421   0.2385390   0.1560991  )
        19           C   tau(  19) = (   0.3207216   0.2449482   0.3511408  )
        20           C   tau(  20) = (   0.6559609   0.7921259   0.3854826  )
        21           C   tau(  21) = (   0.5766816   0.9607656   0.2671759  )
        22           C   tau(  22) = (   0.7055486   1.0474888   0.1061474  )
        23           C   tau(  23) = (   0.3432392   1.8239925   1.5692068  )
        24           C   tau(  24) = (   0.5862746   1.2293473   1.6127503  )
        25           H   tau(  25) = (   0.4840353   1.9752074   0.7297223  )
        26           H   tau(  26) = (   0.0365226   1.9583835   1.0688681  )
        27           H   tau(  27) = (   0.4777087   0.9833977   0.7850964  )
        28           H   tau(  28) = (   0.5969732   1.2643971   0.9988700  )
        29           H   tau(  29) = (   0.3510215   1.7084283   0.9515473  )
        30           H   tau(  30) = (   0.8848144   1.6990149   1.2859280  )
        31           H   tau(  31) = (   0.0501555   1.2710065   1.3156690  )
        32           H   tau(  32) = (   0.9198816   0.9864020   1.1158622  )
        33           H   tau(  33) = (  -0.0341640   0.0276393   1.5512965  )
        34           H   tau(  34) = (   0.5547220   0.0444632   0.2472939  )
        35           H   tau(  35) = (   0.9595093   1.0194490   1.6066706  )
        36           H   tau(  36) = (   0.1151726   0.7384496   0.1772957  )
        37           H   tau(  37) = (   0.8692209   0.2944185   0.1299730  )
        38           H   tau(  38) = (   0.4030137   0.3038318   0.4643538  )
        39           H   tau(  39) = (   0.5683549   0.7318402   0.4940948  )
        40           H   tau(  40) = (   0.4380810   1.0164447   0.2942879  )
        41           N   tau(  41) = (   0.6025592   1.6881995   1.1439600  )
        42           N   tau(  42) = (   0.3350713   1.2940393   1.1750155  )
        43           N   tau(  43) = (   0.1207586   0.3146472   0.3223857  )
        44           N   tau(  44) = (   0.8532706   0.7088075   0.3534412  )
        45           Ni  tau(  45) = (   0.4642458   1.5100663   1.3793082  )
        46           Ni  tau(  46) = (   0.9824452   0.4927804   0.5577339  )
        47           O   tau(  47) = (   0.2269989   0.7002353   0.6455930  )
        48           O   tau(  48) = (   0.7414252   0.2665388   0.6082936  )
        49           O   tau(  49) = (   0.9187989   0.7054627   0.8171378  )
        50           O   tau(  50) = (   0.0492397   0.2399410   0.7791810  )
        51           O   tau(  51) = (   0.7087996   1.3026115   1.4671673  )
        52           O   tau(  52) = (   0.2232258   1.7363079   1.4298678  )
        53           O   tau(  53) = (   0.4005995   1.2973840   1.6387120  )
        54           O   tau(  54) = (   0.5310404   1.7629057   1.6007553  )

     number of k points=     1  Marzari-Vanderbilt smearing, width (Ry)=  0.2000
                       cart. coord. in units 2pi/alat
        k(    1) = (   0.0000000   0.0000000   0.0000000), wk =   1.0000000

     Dense  grid:   366763 G-vectors     FFT dimensions: (  80, 160, 128)

     Estimated max dynamical RAM per process >      64.84 MB

     Estimated total dynamical RAM >       2.03 GB

     Check: negative core charge=   -0.000145
     Generating pointlists ...
     new r_m :   0.0626 (alat units)  0.7399 (a.u.) for type    1
     new r_m :   0.0626 (alat units)  0.7399 (a.u.) for type    2
     new r_m :   0.0882 (alat units)  1.0416 (a.u.) for type    3
     new r_m :   0.1337 (alat units)  1.5801 (a.u.) for type    4
     new r_m :   0.0823 (alat units)  0.9721 (a.u.) for type    5

     Initial potential from superposition of free atoms

     starting charge  199.99835, renormalised to  200.00000


     %%%%%%%%%%%%%%%%%%%%%%%%%%%%%%%%%%%%%%%%%%%%%%%%%%%%%%%%%%%%%%%%%%%%%%%%
     %                                                                      %
     % You are using vdW-DF, which was implemented by the Thonhauser group. %
     % Please cite the following two papers that made this development      %
     % possible and the two reviews that describe the various versions:     %
     %                                                                      %
     %   T. Thonhauser et al., PRL 115, 136402 (2015).                      %
     %   T. Thonhauser et al., PRB 76, 125112 (2007).                       %
     %   K. Berland et al., Rep. Prog. Phys. 78, 066501 (2015).             %
     %   D.C. Langreth et al., J. Phys.: Condens. Matter 21, 084203 (2009). %
     %                                                                      %
     %                                                                      %
     % If you are calculating the stress with vdW-DF, please also cite:     %
     %                                                                      %
     %   R. Sabatini et al., J. Phys.: Condens. Matter 24, 424209 (2012).   %
     %                                                                      %
     %%%%%%%%%%%%%%%%%%%%%%%%%%%%%%%%%%%%%%%%%%%%%%%%%%%%%%%%%%%%%%%%%%%%%%%%




     Performing spin-balanced Ecnl calculation!
     Starting wfcs are  178 randomized atomic wfcs

     total cpu time spent up to now is        5.3 secs

     Self-consistent Calculation

     iteration #  1     ecut=   100.00 Ry     beta= 0.70
     Davidson diagonalization with overlap
     ethr =  1.00E-02,  avg # of iterations =  6.0


     Performing spin-balanced Ecnl calculation!

     total cpu time spent up to now is        8.7 secs

     total energy              =    -818.88112962 Ry
     estimated scf accuracy    <      15.59962639 Ry

     total magnetization       =     4.00 Bohr mag/cell
     absolute magnetization    =     4.56 Bohr mag/cell

     iteration #  2     ecut=   100.00 Ry     beta= 0.70
     Davidson diagonalization with overlap
     ethr =  7.80E-03,  avg # of iterations =  2.0


     Performing spin-balanced Ecnl calculation!

     total cpu time spent up to now is       11.2 secs

     total energy              =    -821.74600247 Ry
     estimated scf accuracy    <      11.54616824 Ry

     total magnetization       =     4.00 Bohr mag/cell
     absolute magnetization    =     4.11 Bohr mag/cell

     iteration #  3     ecut=   100.00 Ry     beta= 0.70
     Davidson diagonalization with overlap
     ethr =  5.77E-03,  avg # of iterations =  1.0


     Performing spin-balanced Ecnl calculation!

     total cpu time spent up to now is       13.6 secs

     total energy              =    -821.11571142 Ry
     estimated scf accuracy    <       3.77358202 Ry

     total magnetization       =     4.00 Bohr mag/cell
     absolute magnetization    =     4.13 Bohr mag/cell

     iteration #  4     ecut=   100.00 Ry     beta= 0.70
     Davidson diagonalization with overlap
     ethr =  1.89E-03,  avg # of iterations =  5.0


     Performing spin-balanced Ecnl calculation!

     total cpu time spent up to now is       16.8 secs

     total energy              =    -821.25167048 Ry
     estimated scf accuracy    <       6.75477032 Ry

     total magnetization       =     4.00 Bohr mag/cell
     absolute magnetization    =     4.13 Bohr mag/cell

     iteration #  5     ecut=   100.00 Ry     beta= 0.70
     Davidson diagonalization with overlap
     ethr =  1.89E-03,  avg # of iterations =  7.0


     Performing spin-balanced Ecnl calculation!

     total cpu time spent up to now is       19.7 secs

     total energy              =    -821.52190037 Ry
     estimated scf accuracy    <       0.15617925 Ry

     total magnetization       =     4.00 Bohr mag/cell
     absolute magnetization    =     4.17 Bohr mag/cell

     iteration #  6     ecut=   100.00 Ry     beta= 0.70
     Davidson diagonalization with overlap
     ethr =  7.81E-05,  avg # of iterations = 12.0


     Performing spin-balanced Ecnl calculation!

     total cpu time spent up to now is       23.8 secs

     total energy              =    -821.46659904 Ry
     estimated scf accuracy    <       0.78918797 Ry

     total magnetization       =     4.00 Bohr mag/cell
     absolute magnetization    =     4.16 Bohr mag/cell

     iteration #  7     ecut=   100.00 Ry     beta= 0.70
     Davidson diagonalization with overlap
     ethr =  7.81E-05,  avg # of iterations =  2.0


     Performing spin-balanced Ecnl calculation!

     total cpu time spent up to now is       26.3 secs

     total energy              =    -821.52529349 Ry
     estimated scf accuracy    <       0.09752045 Ry

     total magnetization       =     4.00 Bohr mag/cell
     absolute magnetization    =     4.16 Bohr mag/cell

     iteration #  8     ecut=   100.00 Ry     beta= 0.70
     Davidson diagonalization with overlap
     ethr =  4.88E-05,  avg # of iterations =  1.5


     Performing spin-balanced Ecnl calculation!

     total cpu time spent up to now is       28.9 secs

     total energy              =    -821.51593508 Ry
     estimated scf accuracy    <       0.16722874 Ry

     total magnetization       =     4.00 Bohr mag/cell
     absolute magnetization    =     4.15 Bohr mag/cell

     iteration #  9     ecut=   100.00 Ry     beta= 0.70
     Davidson diagonalization with overlap
     ethr =  4.88E-05,  avg # of iterations =  2.0


     Performing spin-balanced Ecnl calculation!

     total cpu time spent up to now is       31.4 secs

     total energy              =    -821.51583220 Ry
     estimated scf accuracy    <       0.01906707 Ry

     total magnetization       =     4.00 Bohr mag/cell
     absolute magnetization    =     4.14 Bohr mag/cell

     iteration # 10     ecut=   100.00 Ry     beta= 0.70
     Davidson diagonalization with overlap
     ethr =  9.53E-06,  avg # of iterations =  6.0


     Performing spin-balanced Ecnl calculation!

     total cpu time spent up to now is       34.4 secs

     total energy              =    -821.51767923 Ry
     estimated scf accuracy    <       0.03243418 Ry

     total magnetization       =     4.00 Bohr mag/cell
     absolute magnetization    =     4.13 Bohr mag/cell

     iteration # 11     ecut=   100.00 Ry     beta= 0.70
     Davidson diagonalization with overlap
     ethr =  9.53E-06,  avg # of iterations =  2.0


     Performing spin-balanced Ecnl calculation!

     total cpu time spent up to now is       36.9 secs

     total energy              =    -821.51757489 Ry
     estimated scf accuracy    <       0.00758428 Ry

     total magnetization       =     4.00 Bohr mag/cell
     absolute magnetization    =     4.12 Bohr mag/cell

     iteration # 12     ecut=   100.00 Ry     beta= 0.70
     Davidson diagonalization with overlap
     ethr =  3.79E-06,  avg # of iterations =  2.0


     Performing spin-balanced Ecnl calculation!

     total cpu time spent up to now is       39.4 secs

     total energy              =    -821.51811953 Ry
     estimated scf accuracy    <       0.00034330 Ry

     total magnetization       =     4.00 Bohr mag/cell
     absolute magnetization    =     4.12 Bohr mag/cell

     iteration # 13     ecut=   100.00 Ry     beta= 0.70
     Davidson diagonalization with overlap
     ethr =  1.72E-07,  avg # of iterations =  5.0


     Performing spin-balanced Ecnl calculation!

     total cpu time spent up to now is       42.4 secs

     total energy              =    -821.51817035 Ry
     estimated scf accuracy    <       0.00014735 Ry

     total magnetization       =     4.00 Bohr mag/cell
     absolute magnetization    =     4.12 Bohr mag/cell

     iteration # 14     ecut=   100.00 Ry     beta= 0.70
     Davidson diagonalization with overlap
     ethr =  7.37E-08,  avg # of iterations =  4.0


     Performing spin-balanced Ecnl calculation!

     total cpu time spent up to now is       45.2 secs

     total energy              =    -821.51819465 Ry
     estimated scf accuracy    <       0.00003907 Ry

     total magnetization       =     4.00 Bohr mag/cell
     absolute magnetization    =     4.12 Bohr mag/cell

     iteration # 15     ecut=   100.00 Ry     beta= 0.70
     Davidson diagonalization with overlap
     ethr =  1.95E-08,  avg # of iterations =  5.5


     Performing spin-balanced Ecnl calculation!

     total cpu time spent up to now is       48.1 secs

     total energy              =    -821.51820230 Ry
     estimated scf accuracy    <       0.00001060 Ry

     total magnetization       =     4.00 Bohr mag/cell
     absolute magnetization    =     4.12 Bohr mag/cell

     iteration # 16     ecut=   100.00 Ry     beta= 0.70
     Davidson diagonalization with overlap
     ethr =  5.30E-09,  avg # of iterations =  5.0


     Performing spin-balanced Ecnl calculation!

     total cpu time spent up to now is       51.2 secs

     total energy              =    -821.51820512 Ry
     estimated scf accuracy    <       0.00000317 Ry

     total magnetization       =     4.00 Bohr mag/cell
     absolute magnetization    =     4.12 Bohr mag/cell

     iteration # 17     ecut=   100.00 Ry     beta= 0.70
     Davidson diagonalization with overlap
     ethr =  1.58E-09,  avg # of iterations =  4.5


     Performing spin-balanced Ecnl calculation!

     total cpu time spent up to now is       54.1 secs

     total energy              =    -821.51820595 Ry
     estimated scf accuracy    <       0.00000137 Ry

     total magnetization       =     4.00 Bohr mag/cell
     absolute magnetization    =     4.12 Bohr mag/cell

     iteration # 18     ecut=   100.00 Ry     beta= 0.70
     Davidson diagonalization with overlap
     ethr =  6.86E-10,  avg # of iterations =  5.0


     Performing spin-balanced Ecnl calculation!
 
     Magnetic moment per site:
     atom:    1    charge:    0.6090    magn:    0.0039    constr:    0.0000
     atom:    2    charge:    0.5859    magn:    0.0039    constr:    0.0000
     atom:    3    charge:    0.6082    magn:    0.0040    constr:    0.0000
     atom:    4    charge:    0.6092    magn:    0.0039    constr:    0.0000
     atom:    5    charge:    0.6013    magn:    0.0034    constr:    0.0000
     atom:    6    charge:    0.6019    magn:    0.0036    constr:    0.0000
     atom:    7    charge:    0.6033    magn:    0.0033    constr:    0.0000
     atom:    8    charge:    0.6004    magn:    0.0035    constr:    0.0000
     atom:    9    charge:    0.6079    magn:    0.0039    constr:    0.0000
     atom:   10    charge:    0.5861    magn:    0.0037    constr:    0.0000
     atom:   11    charge:    0.5683    magn:   -0.0016    constr:    0.0000
     atom:   12    charge:    0.5684    magn:   -0.0015    constr:    0.0000
     atom:   13    charge:    0.6090    magn:    0.0039    constr:    0.0000
     atom:   14    charge:    0.5858    magn:    0.0039    constr:    0.0000
     atom:   15    charge:    0.6082    magn:    0.0040    constr:    0.0000
     atom:   16    charge:    0.6092    magn:    0.0039    constr:    0.0000
     atom:   17    charge:    0.6013    magn:    0.0034    constr:    0.0000
     atom:   18    charge:    0.6019    magn:    0.0036    constr:    0.0000
     atom:   19    charge:    0.6033    magn:    0.0033    constr:    0.0000
     atom:   20    charge:    0.6004    magn:    0.0035    constr:    0.0000
     atom:   21    charge:    0.6079    magn:    0.0039    constr:    0.0000
     atom:   22    charge:    0.5861    magn:    0.0037    constr:    0.0000
     atom:   23    charge:    0.5683    magn:   -0.0016    constr:    0.0000
     atom:   24    charge:    0.5684    magn:   -0.0015    constr:    0.0000
     atom:   25    charge:    0.4690    magn:   -0.0007    constr:    0.0000
     atom:   26    charge:    0.4691    magn:   -0.0008    constr:    0.0000
     atom:   27    charge:    0.4695    magn:   -0.0007    constr:    0.0000
     atom:   28    charge:    0.4729    magn:   -0.0005    constr:    0.0000
     atom:   29    charge:    0.4731    magn:   -0.0006    constr:    0.0000
     atom:   30    charge:    0.4715    magn:   -0.0005    constr:    0.0000
     atom:   31    charge:    0.4708    magn:   -0.0005    constr:    0.0000
     atom:   32    charge:    0.4696    magn:   -0.0008    constr:    0.0000
     atom:   33    charge:    0.4690    magn:   -0.0007    constr:    0.0000
     atom:   34    charge:    0.4691    magn:   -0.0008    constr:    0.0000
     atom:   35    charge:    0.4695    magn:   -0.0007    constr:    0.0000
     atom:   36    charge:    0.4729    magn:   -0.0005    constr:    0.0000
     atom:   37    charge:    0.4731    magn:   -0.0006    constr:    0.0000
     atom:   38    charge:    0.4715    magn:   -0.0005    constr:    0.0000
     atom:   39    charge:    0.4708    magn:   -0.0005    constr:    0.0000
     atom:   40    charge:    0.4696    magn:   -0.0008    constr:    0.0000
     atom:   41    charge:    2.4604    magn:    0.0138    constr:    0.0000
     atom:   42    charge:    2.4548    magn:    0.0130    constr:    0.0000
     atom:   43    charge:    2.4604    magn:    0.0138    constr:    0.0000
     atom:   44    charge:    2.4548    magn:    0.0130    constr:    0.0000
     atom:   45    charge:    7.5450    magn:    1.2707    constr:    0.0000
     atom:   46    charge:    7.5440    magn:    1.2710    constr:    0.0000
     atom:   47    charge:    3.1700    magn:    0.0523    constr:    0.0000
     atom:   48    charge:    3.1689    magn:    0.0531    constr:    0.0000
     atom:   49    charge:    3.1776    magn:    0.0503    constr:    0.0000
     atom:   50    charge:    3.1756    magn:    0.0524    constr:    0.0000
     atom:   51    charge:    3.1700    magn:    0.0523    constr:    0.0000
     atom:   52    charge:    3.1688    magn:    0.0531    constr:    0.0000
     atom:   53    charge:    3.1776    magn:    0.0503    constr:    0.0000
     atom:   54    charge:    3.1756    magn:    0.0525    constr:    0.0000

     total cpu time spent up to now is       57.0 secs

     End of self-consistent calculation

 ------ SPIN UP ------------


          k = 0.0000 0.0000 0.0000 ( 45819 PWs)   bands (ev):

   -22.7411 -22.7386 -22.6434 -22.6413 -20.1095 -20.1095 -20.0888 -20.0877
   -19.5973 -19.5838 -19.4753 -19.4682 -15.8891 -15.8272 -15.8229 -15.7963
   -14.9661 -14.9273 -14.9272 -14.8820 -12.0944 -12.0704 -12.0511 -12.0164
   -11.8518 -11.8142 -11.7870 -11.7240 -10.2762 -10.0139  -9.9889  -9.9164
    -8.5519  -8.3846  -8.3229  -8.2857  -8.0263  -8.0122  -7.9515  -7.8909
    -7.8655  -7.6878  -7.4911  -7.4418  -7.1438  -7.0080  -7.0013  -6.8880
    -6.8732  -6.8620  -6.7665  -6.7045  -6.7025  -6.6027  -6.5693  -6.5655
    -6.5597  -6.4980  -6.4518  -6.2689  -5.9141  -5.7164  -5.5198  -5.3143
    -4.9734  -4.9386  -4.9022  -4.9012  -4.8015  -4.7577  -4.4005  -4.3574
    -4.0368  -3.7646  -3.7383  -3.5578  -3.5317  -3.4981  -3.4518  -3.4125
    -3.3283  -3.0161  -2.8666  -2.8625  -2.7840  -2.7560  -2.7461  -2.7269
    -2.6669  -2.6285  -2.5805  -2.5657  -2.4591  -2.4393  -2.3837  -2.2830
    -2.2551  -2.1340  -0.9097  -0.8957  -0.6671  -0.6564   1.7398   1.8041
     1.8324   1.8707   2.2578   2.7408   2.8035   3.0360   3.0735   3.2354
     3.6791   4.0457   4.2314   4.4332   4.4552   4.6405   4.6632   4.7384
     4.9072   5.2809

 ------ SPIN DOWN ----------


          k = 0.0000 0.0000 0.0000 ( 45819 PWs)   bands (ev):

   -22.6529 -22.6503 -22.5548 -22.5526 -19.9942 -19.9942 -19.9705 -19.9694
   -19.5676 -19.5538 -19.4464 -19.4391 -15.8531 -15.7913 -15.7872 -15.7594
   -14.9323 -14.8932 -14.8931 -14.8478 -12.0574 -12.0353 -12.0170 -11.9832
   -11.8289 -11.7903 -11.7637 -11.7006 -10.2549  -9.9939  -9.9677  -9.8916
    -8.5064  -8.3538  -8.2886  -8.2484  -8.0016  -7.9862  -7.9242  -7.8721
    -7.8510  -7.6582  -7.4574  -7.4051  -7.0564  -6.9456  -6.9265  -6.8134
    -6.7779  -6.7676  -6.6983  -6.6360  -6.6135  -6.5521  -6.5219  -6.5157
    -6.4672  -6.3997  -6.3896  -6.1815  -5.8291  -5.6311  -5.4421  -5.2346
    -4.9541  -4.9316  -4.8871  -4.8851  -4.6782  -4.1667  -3.9253  -3.9049
    -3.6011  -3.4217  -3.2720  -3.2437  -3.0394  -3.0137  -2.9502  -2.9216
    -2.8966  -2.7219  -2.6968  -2.6354  -2.6104  -2.5914  -2.5110  -2.4663
    -2.3651  -2.2320  -2.1808  -2.0306  -1.9151  -1.6886  -1.6830  -1.6457
    -1.6238  -1.5132  -0.0065   0.0035   0.1788   0.2023   1.8203   1.9099
     1.9433   1.9634   2.2277   2.8304   2.8489   3.0956   3.1272   3.3351
     3.6639   4.0374   4.2833   4.4877   4.5082   4.6563   4.6717   4.7680
     4.9196   5.3038

     the spin up/dw Fermi energies are    -0.1958   -0.4928 ev

!    total energy              =    -821.51820547 Ry
     estimated scf accuracy    <       0.00000086 Ry
     smearing contrib. (-TS)   =       1.20802895 Ry
     internal energy E=F+TS    =    -822.72623442 Ry

     The total energy is F=E-TS. E is the sum of the following terms:
     one-electron contribution =   -1217.92420308 Ry
     hartree contribution      =     681.16846096 Ry
     xc contribution           =    -260.40671527 Ry
     ewald contribution        =     -25.36061189 Ry
     Dispersion Correction     =      -0.20316514 Ry

     total magnetization       =     4.00 Bohr mag/cell
     absolute magnetization    =     4.12 Bohr mag/cell

     convergence has been achieved in  18 iterations


     Performing spin-balanced Ecnl calculation!

     Forces acting on atoms (cartesian axes, Ry/au):

     atom    1 type  1   force =     0.13877636   -0.06256052    0.14836840
     atom    2 type  1   force =     0.01556181    0.01370918    0.00964875
     atom    3 type  1   force =    -0.20531566   -0.04024182   -0.07192474
     atom    4 type  1   force =    -0.13358453    0.07541609    0.15141031
     atom    5 type  1   force =    -0.19491802   -0.08634298    0.02012248
     atom    6 type  1   force =     0.19041835    0.07693656    0.03474668
     atom    7 type  1   force =    -0.10268741    0.07679053   -0.14823078
     atom    8 type  1   force =     0.12621309   -0.07091617   -0.14122857
     atom    9 type  1   force =     0.21918558    0.05928245   -0.07108357
     atom   10 type  1   force =    -0.03621087   -0.02209315   -0.00002570
     atom   11 type  1   force =    -0.05139347   -0.08870205    0.03998352
     atom   12 type  1   force =     0.06088929    0.09079508    0.04960753
     atom   13 type  1   force =     0.13877636    0.06256052    0.14836840
     atom   14 type  1   force =     0.01556181   -0.01370918    0.00964875
     atom   15 type  1   force =    -0.20531566    0.04024182   -0.07192474
     atom   16 type  1   force =    -0.13358453   -0.07541609    0.15141031
     atom   17 type  1   force =    -0.19491802    0.08634298    0.02012248
     atom   18 type  1   force =     0.19041835   -0.07693656    0.03474668
     atom   19 type  1   force =    -0.10268741   -0.07679053   -0.14823078
     atom   20 type  1   force =     0.12621309    0.07091617   -0.14122857
     atom   21 type  1   force =     0.21918558   -0.05928245   -0.07108357
     atom   22 type  1   force =    -0.03621087    0.02209315   -0.00002570
     atom   23 type  1   force =    -0.05139347    0.08870205    0.03998352
     atom   24 type  1   force =     0.06088929   -0.09079508    0.04960753
     atom   25 type  2   force =    -0.14642963    0.08456308   -0.18165339
     atom   26 type  2   force =     0.23216159    0.07273332    0.05122160
     atom   27 type  2   force =     0.15427657   -0.08745322   -0.17317275
     atom   28 type  2   force =     0.22865388    0.10246898   -0.02924070
     atom   29 type  2   force =    -0.23192237   -0.09877246   -0.03097928
     atom   30 type  2   force =     0.12481931   -0.10205262    0.19190246
     atom   31 type  2   force =    -0.13228012    0.10757877    0.18106888
     atom   32 type  2   force =    -0.23051000   -0.08685543    0.05277973
     atom   33 type  2   force =    -0.14642963   -0.08456308   -0.18165339
     atom   34 type  2   force =     0.23216159   -0.07273332    0.05122160
     atom   35 type  2   force =     0.15427657    0.08745322   -0.17317275
     atom   36 type  2   force =     0.22865388   -0.10246898   -0.02924070
     atom   37 type  2   force =    -0.23192237    0.09877246   -0.03097928
     atom   38 type  2   force =     0.12481931    0.10205262    0.19190246
     atom   39 type  2   force =    -0.13228012   -0.10757877    0.18106888
     atom   40 type  2   force =    -0.23051000    0.08685543    0.05277973
     atom   41 type  3   force =    -0.01590128   -0.01776730    0.01132483
     atom   42 type  3   force =    -0.00465780    0.00369473    0.01155389
     atom   43 type  3   force =    -0.01590128    0.01776730    0.01132483
     atom   44 type  3   force =    -0.00465780   -0.00369473    0.01155389
     atom   45 type  4   force =    -0.00821252   -0.02177692   -0.03805102
     atom   46 type  4   force =    -0.00821252    0.02177692   -0.03805102
     atom   47 type  5   force =     0.00564274   -0.03274863   -0.02924007
     atom   48 type  5   force =    -0.00115272    0.03593736   -0.02621337
     atom   49 type  5   force =    -0.05272201   -0.03729477   -0.00621986
     atom   50 type  5   force =     0.05129983    0.04194898   -0.00647527
     atom   51 type  5   force =     0.00564274    0.03274863   -0.02924007
     atom   52 type  5   force =    -0.00115272   -0.03593736   -0.02621337
     atom   53 type  5   force =    -0.05272201    0.03729477   -0.00621986
     atom   54 type  5   force =     0.05129983   -0.04194898   -0.00647527

     Total force =     1.349935     Total SCF correction =     0.002052


     Computing stress (Cartesian axis) and pressure



     Performing spin-balanced Ecnl calculation!


     Performing spin-balanced Ecnl stress calculation!
          total   stress  (Ry/bohr**3)                   (kbar)     P=      132.95
   0.00129455   0.00000000  -0.00000103          190.43        0.00       -0.15
   0.00000000   0.00060672   0.00000000            0.00       89.25        0.00
  -0.00000103   0.00000000   0.00081013           -0.15        0.00      119.17


     BFGS Geometry Optimization

     number of scf cycles    =   1
     number of bfgs steps    =   0

     enthalpy new            =    -821.5182054661 Ry

     new trust radius        =       0.4770456056 bohr
     new conv_thr            =       0.0000010000 Ry

     new unit-cell volume =   5805.33677 a.u.^3 (   860.26215 Ang^3 )
     density =      1.16934 g/cm^3

CELL_PARAMETERS (angstrom)
   6.455160407   0.000000000   0.000000000
   0.000000000  12.713355866   0.000000000
  -0.227594000   0.000000000  10.482468708

ATOMIC_POSITIONS (crystal)
C             0.5998228533        0.9566565006        0.5210417215
C             0.7945350916        0.9985792823        0.5341969594
C             0.8995892072        0.9528995790        0.6316955131
C             0.3966785342        0.5222867124        0.5518983951
C             0.4638417266        0.5995515709        0.6227364091
C             0.5276803288        0.8841509602        0.5967896292
C             0.8195316285        0.8809447895        0.7060653667
C             0.1749167054        0.6015034317        0.7273260160
C             0.1010165103        0.5228049843        0.6589388374
C             0.2048354096        0.4760664524        0.5645986764
C             0.8737255061        0.0855518881        0.4570593530
C             0.1272460878        0.3900365530        0.4840550380
C             0.0998228533        0.0433434994        0.0210417215
C             0.2945350916        0.0014207177        0.0341969594
C             0.3995892072        0.0471004210        0.1316955131
C             0.8966785342        0.4777132876        0.0518983951
C             0.9638417266        0.4004484291        0.1227364091
C             0.0276803288        0.1158490398        0.0967896292
C             0.3195316285        0.1190552105        0.2060653667
C             0.6749167054        0.3984965683        0.2273260160
C             0.6010165103        0.4771950157        0.1589388374
C             0.7048354096        0.5239335476        0.0645986764
C             0.3737255061        0.9144481119        0.9570593530
C             0.6272460878        0.6099634470        0.9840550380
H             0.4874670475        0.9897732193        0.4347439339
H             0.0799439636        0.9808733521        0.6531381707
H             0.5078318434        0.4873046575        0.4688807297
H             0.6383962598        0.6356298347        0.6063939567
H             0.3524142308        0.8488263621        0.5775044109
H             0.9242232765        0.8439877588        0.7924839450
H             0.0684445288        0.6391457489        0.8100259611
H             0.9251907843        0.4888299174        0.6818184225
H            -0.0125329525        0.0102267807        0.9347439339
H             0.5799439636        0.0191266479        0.1531381707
H             1.0078318434        0.5126953425        0.9688807297
H             0.1383962598        0.3643701653        0.1063939567
H             0.8524142308        0.1511736379        0.0775044109
H             0.4242232765        0.1560122412        0.2924839450
H             0.5684445288        0.3608542511        0.3100259611
H             0.4251907843        0.5111700826        0.1818184225
N             0.6265754984        0.8421492414        0.6967832857
N             0.3607274688        0.6462561213        0.7156950837
N             0.1265754984        0.1578507586        0.1967832857
N             0.8607274688        0.3537438787        0.2156950837
Ni            0.4940336358        0.7530398144        0.8374701805
Ni            0.9940336358        0.2469601856        0.3374701805
O             0.2417227304        0.3482362042        0.3913939889
O             0.7547533020        0.1345985360        0.3688498793
O             0.9324264527        0.3506541068        0.4969796460
O             0.0708293875        0.1215725574        0.4738664907
O             0.7417227304        0.6517637958        0.8913939889
O             0.2547533020        0.8654014640        0.8688498793
O             0.4324264527        0.6493458932        0.9969796460
O             0.5708293875        0.8784274426        0.9738664907



     Writing output data file /nfs/hpc/share/gantzlen/NiPyC2_vdw-df2_vc-relax.save/
     NEW-OLD atomic charge density approx. for the potential
     NEW k-points:
   0.0000000   0.0000000   0.0000000   1.0000000
   0.0000000   0.0000000   0.0000000   1.0000000

     Check: negative core charge=   -0.000182


     Performing spin-balanced Ecnl calculation!
     extrapolated charge  212.95437, renormalised to  200.00000
     Generating pointlists ...

     total cpu time spent up to now is       65.5 secs

     Self-consistent Calculation

     iteration #  1     ecut=   100.00 Ry     beta= 0.70
     Davidson diagonalization with overlap
     ethr =  1.00E-06,  avg # of iterations = 28.0


     Performing spin-balanced Ecnl calculation!

     total cpu time spent up to now is       78.2 secs

     total energy              =    -760.21772125 Ry
     estimated scf accuracy    <     173.86210318 Ry

     total magnetization       =     4.00 Bohr mag/cell
     absolute magnetization    =     4.01 Bohr mag/cell

     iteration #  2     ecut=   100.00 Ry     beta= 0.70
     Davidson diagonalization with overlap
     ethr =  1.00E-02,  avg # of iterations = 11.5


     Performing spin-balanced Ecnl calculation!

     total cpu time spent up to now is       84.2 secs

     total energy              =    -826.15404604 Ry
     estimated scf accuracy    <      53.46741243 Ry

     total magnetization       =     4.00 Bohr mag/cell
     absolute magnetization    =     4.12 Bohr mag/cell

     iteration #  3     ecut=   100.00 Ry     beta= 0.70
     Davidson diagonalization with overlap
     ethr =  1.00E-02,  avg # of iterations =  2.0


     Performing spin-balanced Ecnl calculation!

     total cpu time spent up to now is       86.7 secs

     total energy              =    -822.51499079 Ry
     estimated scf accuracy    <      22.01508929 Ry

     total magnetization       =     4.00 Bohr mag/cell
     absolute magnetization    =     4.05 Bohr mag/cell

     iteration #  4     ecut=   100.00 Ry     beta= 0.70
     Davidson diagonalization with overlap
     ethr =  1.00E-02,  avg # of iterations =  2.0


     Performing spin-balanced Ecnl calculation!

     total cpu time spent up to now is       89.3 secs

     total energy              =    -821.52309383 Ry
     estimated scf accuracy    <       9.60396440 Ry

     total magnetization       =     4.00 Bohr mag/cell
     absolute magnetization    =     4.15 Bohr mag/cell

     iteration #  5     ecut=   100.00 Ry     beta= 0.70
     Davidson diagonalization with overlap
     ethr =  4.80E-03,  avg # of iterations =  2.0


     Performing spin-balanced Ecnl calculation!

     total cpu time spent up to now is       91.8 secs

     total energy              =    -821.66433909 Ry
     estimated scf accuracy    <       1.88851336 Ry

     total magnetization       =     4.00 Bohr mag/cell
     absolute magnetization    =     4.13 Bohr mag/cell

     iteration #  6     ecut=   100.00 Ry     beta= 0.70
     Davidson diagonalization with overlap
     ethr =  9.44E-04,  avg # of iterations =  7.0


     Performing spin-balanced Ecnl calculation!

     total cpu time spent up to now is       95.0 secs

     total energy              =    -821.73931342 Ry
     estimated scf accuracy    <       2.47766936 Ry

     total magnetization       =     4.00 Bohr mag/cell
     absolute magnetization    =     4.13 Bohr mag/cell

     iteration #  7     ecut=   100.00 Ry     beta= 0.70
     Davidson diagonalization with overlap
     ethr =  9.44E-04,  avg # of iterations =  1.0


     Performing spin-balanced Ecnl calculation!

     total cpu time spent up to now is       97.4 secs

     total energy              =    -821.36862547 Ry
     estimated scf accuracy    <       2.69164778 Ry

     total magnetization       =     4.00 Bohr mag/cell
     absolute magnetization    =     4.14 Bohr mag/cell

     iteration #  8     ecut=   100.00 Ry     beta= 0.70
     Davidson diagonalization with overlap
     ethr =  9.44E-04,  avg # of iterations =  1.0


     Performing spin-balanced Ecnl calculation!

     total cpu time spent up to now is       99.7 secs

     total energy              =    -821.54365593 Ry
     estimated scf accuracy    <       1.35333280 Ry

     total magnetization       =     4.00 Bohr mag/cell
     absolute magnetization    =     4.16 Bohr mag/cell

     iteration #  9     ecut=   100.00 Ry     beta= 0.70
     Davidson diagonalization with overlap
     ethr =  6.77E-04,  avg # of iterations =  1.0


     Performing spin-balanced Ecnl calculation!

     total cpu time spent up to now is      102.1 secs

     total energy              =    -821.55607747 Ry
     estimated scf accuracy    <       0.46868377 Ry

     total magnetization       =     4.00 Bohr mag/cell
     absolute magnetization    =     4.16 Bohr mag/cell

     iteration # 10     ecut=   100.00 Ry     beta= 0.70
     Davidson diagonalization with overlap
     ethr =  2.34E-04,  avg # of iterations =  1.5


     Performing spin-balanced Ecnl calculation!

     total cpu time spent up to now is      104.6 secs

     total energy              =    -821.33611111 Ry
     estimated scf accuracy    <       0.42430992 Ry

     total magnetization       =     4.00 Bohr mag/cell
     absolute magnetization    =     4.16 Bohr mag/cell

     iteration # 11     ecut=   100.00 Ry     beta= 0.70
     Davidson diagonalization with overlap
     ethr =  2.12E-04,  avg # of iterations =  4.5


     Performing spin-balanced Ecnl calculation!

     total cpu time spent up to now is      107.8 secs

     total energy              =    -821.28086520 Ry
     estimated scf accuracy    <       0.98614920 Ry

     total magnetization       =     4.00 Bohr mag/cell
     absolute magnetization    =     4.18 Bohr mag/cell

     iteration # 12     ecut=   100.00 Ry     beta= 0.70
     Davidson diagonalization with overlap
     ethr =  2.12E-04,  avg # of iterations =  3.0


     Performing spin-balanced Ecnl calculation!

     total cpu time spent up to now is      110.5 secs

     total energy              =    -821.37197865 Ry
     estimated scf accuracy    <       0.51053885 Ry

     total magnetization       =     4.00 Bohr mag/cell
     absolute magnetization    =     4.12 Bohr mag/cell

     iteration # 13     ecut=   100.00 Ry     beta= 0.70
     Davidson diagonalization with overlap
     ethr =  2.12E-04,  avg # of iterations =  1.0


     Performing spin-balanced Ecnl calculation!

     total cpu time spent up to now is      112.9 secs

     total energy              =    -821.39539971 Ry
     estimated scf accuracy    <       0.00728443 Ry

     total magnetization       =     4.00 Bohr mag/cell
     absolute magnetization    =     4.11 Bohr mag/cell

     iteration # 14     ecut=   100.00 Ry     beta= 0.70
     Davidson diagonalization with overlap
     ethr =  3.64E-06,  avg # of iterations =  8.5


     Performing spin-balanced Ecnl calculation!

     total cpu time spent up to now is      116.6 secs

     total energy              =    -821.39528360 Ry
     estimated scf accuracy    <       0.02251243 Ry

     total magnetization       =     4.00 Bohr mag/cell
     absolute magnetization    =     4.09 Bohr mag/cell

     iteration # 15     ecut=   100.00 Ry     beta= 0.70
     Davidson diagonalization with overlap
     ethr =  3.64E-06,  avg # of iterations =  2.5


     Performing spin-balanced Ecnl calculation!

     total cpu time spent up to now is      119.2 secs

     total energy              =    -821.39590782 Ry
     estimated scf accuracy    <       0.00344568 Ry

     total magnetization       =     4.00 Bohr mag/cell
     absolute magnetization    =     4.08 Bohr mag/cell

     iteration # 16     ecut=   100.00 Ry     beta= 0.70
     Davidson diagonalization with overlap
     ethr =  1.72E-06,  avg # of iterations =  4.0


     Performing spin-balanced Ecnl calculation!

     total cpu time spent up to now is      121.9 secs

     total energy              =    -821.39593865 Ry
     estimated scf accuracy    <       0.00155652 Ry

     total magnetization       =     4.00 Bohr mag/cell
     absolute magnetization    =     4.08 Bohr mag/cell

     iteration # 17     ecut=   100.00 Ry     beta= 0.70
     Davidson diagonalization with overlap
     ethr =  7.78E-07,  avg # of iterations =  3.0


     Performing spin-balanced Ecnl calculation!

     total cpu time spent up to now is      124.5 secs

     total energy              =    -821.39605631 Ry
     estimated scf accuracy    <       0.00005745 Ry

     total magnetization       =     4.00 Bohr mag/cell
     absolute magnetization    =     4.08 Bohr mag/cell

     iteration # 18     ecut=   100.00 Ry     beta= 0.70
     Davidson diagonalization with overlap
     ethr =  2.87E-08,  avg # of iterations =  5.0


     Performing spin-balanced Ecnl calculation!

     total cpu time spent up to now is      127.7 secs

     total energy              =    -821.39607464 Ry
     estimated scf accuracy    <       0.00003123 Ry

     total magnetization       =     4.00 Bohr mag/cell
     absolute magnetization    =     4.09 Bohr mag/cell

     iteration # 19     ecut=   100.00 Ry     beta= 0.70
     Davidson diagonalization with overlap
     ethr =  1.56E-08,  avg # of iterations =  3.0


     Performing spin-balanced Ecnl calculation!

     total cpu time spent up to now is      130.3 secs

     total energy              =    -821.39608621 Ry
     estimated scf accuracy    <       0.00007548 Ry

     total magnetization       =     4.00 Bohr mag/cell
     absolute magnetization    =     4.09 Bohr mag/cell

     iteration # 20     ecut=   100.00 Ry     beta= 0.70
     Davidson diagonalization with overlap
     ethr =  1.56E-08,  avg # of iterations =  4.0


     Performing spin-balanced Ecnl calculation!

     total cpu time spent up to now is      133.1 secs

     total energy              =    -821.39609328 Ry
     estimated scf accuracy    <       0.00001702 Ry

     total magnetization       =     4.00 Bohr mag/cell
     absolute magnetization    =     4.09 Bohr mag/cell

     iteration # 21     ecut=   100.00 Ry     beta= 0.70
     Davidson diagonalization with overlap
     ethr =  8.51E-09,  avg # of iterations =  4.5


     Performing spin-balanced Ecnl calculation!

     total cpu time spent up to now is      135.9 secs

     total energy              =    -821.39609486 Ry
     estimated scf accuracy    <       0.00000895 Ry

     total magnetization       =     4.00 Bohr mag/cell
     absolute magnetization    =     4.09 Bohr mag/cell

     iteration # 22     ecut=   100.00 Ry     beta= 0.70
     Davidson diagonalization with overlap
     ethr =  4.48E-09,  avg # of iterations =  4.5


     Performing spin-balanced Ecnl calculation!

     total cpu time spent up to now is      138.7 secs

     total energy              =    -821.39609427 Ry
     estimated scf accuracy    <       0.00000449 Ry

     total magnetization       =     4.00 Bohr mag/cell
     absolute magnetization    =     4.09 Bohr mag/cell

     iteration # 23     ecut=   100.00 Ry     beta= 0.70
     Davidson diagonalization with overlap
     ethr =  2.24E-09,  avg # of iterations =  4.0


     Performing spin-balanced Ecnl calculation!

     total cpu time spent up to now is      141.6 secs

     total energy              =    -821.39609310 Ry
     estimated scf accuracy    <       0.00000229 Ry

     total magnetization       =     4.00 Bohr mag/cell
     absolute magnetization    =     4.09 Bohr mag/cell

     iteration # 24     ecut=   100.00 Ry     beta= 0.70
     Davidson diagonalization with overlap
     ethr =  1.14E-09,  avg # of iterations =  5.0


     Performing spin-balanced Ecnl calculation!
 
     Magnetic moment per site:
     atom:    1    charge:    0.5934    magn:    0.0039    constr:    0.0000
     atom:    2    charge:    0.5979    magn:    0.0032    constr:    0.0000
     atom:    3    charge:    0.5957    magn:    0.0036    constr:    0.0000
     atom:    4    charge:    0.5926    magn:    0.0039    constr:    0.0000
     atom:    5    charge:    0.5869    magn:    0.0028    constr:    0.0000
     atom:    6    charge:    0.5848    magn:    0.0029    constr:    0.0000
     atom:    7    charge:    0.5839    magn:    0.0034    constr:    0.0000
     atom:    8    charge:    0.5841    magn:    0.0032    constr:    0.0000
     atom:    9    charge:    0.5949    magn:    0.0035    constr:    0.0000
     atom:   10    charge:    0.5974    magn:    0.0033    constr:    0.0000
     atom:   11    charge:    0.5421    magn:   -0.0019    constr:    0.0000
     atom:   12    charge:    0.5424    magn:   -0.0018    constr:    0.0000
     atom:   13    charge:    0.5934    magn:    0.0039    constr:    0.0000
     atom:   14    charge:    0.5979    magn:    0.0032    constr:    0.0000
     atom:   15    charge:    0.5957    magn:    0.0036    constr:    0.0000
     atom:   16    charge:    0.5926    magn:    0.0039    constr:    0.0000
     atom:   17    charge:    0.5869    magn:    0.0028    constr:    0.0000
     atom:   18    charge:    0.5848    magn:    0.0029    constr:    0.0000
     atom:   19    charge:    0.5839    magn:    0.0034    constr:    0.0000
     atom:   20    charge:    0.5841    magn:    0.0032    constr:    0.0000
     atom:   21    charge:    0.5949    magn:    0.0035    constr:    0.0000
     atom:   22    charge:    0.5974    magn:    0.0033    constr:    0.0000
     atom:   23    charge:    0.5421    magn:   -0.0019    constr:    0.0000
     atom:   24    charge:    0.5424    magn:   -0.0018    constr:    0.0000
     atom:   25    charge:    0.3266    magn:    0.0004    constr:    0.0000
     atom:   26    charge:    0.3227    magn:    0.0005    constr:    0.0000
     atom:   27    charge:    0.3263    magn:    0.0004    constr:    0.0000
     atom:   28    charge:    0.3282    magn:    0.0006    constr:    0.0000
     atom:   29    charge:    0.3287    magn:    0.0005    constr:    0.0000
     atom:   30    charge:    0.3287    magn:    0.0007    constr:    0.0000
     atom:   31    charge:    0.3278    magn:    0.0007    constr:    0.0000
     atom:   32    charge:    0.3201    magn:    0.0006    constr:    0.0000
     atom:   33    charge:    0.3266    magn:    0.0004    constr:    0.0000
     atom:   34    charge:    0.3227    magn:    0.0005    constr:    0.0000
     atom:   35    charge:    0.3263    magn:    0.0004    constr:    0.0000
     atom:   36    charge:    0.3282    magn:    0.0006    constr:    0.0000
     atom:   37    charge:    0.3287    magn:    0.0005    constr:    0.0000
     atom:   38    charge:    0.3287    magn:    0.0007    constr:    0.0000
     atom:   39    charge:    0.3278    magn:    0.0007    constr:    0.0000
     atom:   40    charge:    0.3201    magn:    0.0006    constr:    0.0000
     atom:   41    charge:    2.4597    magn:    0.0132    constr:    0.0000
     atom:   42    charge:    2.4629    magn:    0.0127    constr:    0.0000
     atom:   43    charge:    2.4597    magn:    0.0132    constr:    0.0000
     atom:   44    charge:    2.4629    magn:    0.0127    constr:    0.0000
     atom:   45    charge:    7.5109    magn:    1.2870    constr:    0.0000
     atom:   46    charge:    7.5105    magn:    1.2871    constr:    0.0000
     atom:   47    charge:    3.1227    magn:    0.0481    constr:    0.0000
     atom:   48    charge:    3.1217    magn:    0.0497    constr:    0.0000
     atom:   49    charge:    3.1071    magn:    0.0575    constr:    0.0000
     atom:   50    charge:    3.1085    magn:    0.0592    constr:    0.0000
     atom:   51    charge:    3.1227    magn:    0.0481    constr:    0.0000
     atom:   52    charge:    3.1217    magn:    0.0497    constr:    0.0000
     atom:   53    charge:    3.1072    magn:    0.0575    constr:    0.0000
     atom:   54    charge:    3.1085    magn:    0.0591    constr:    0.0000

     total cpu time spent up to now is      144.5 secs

     End of self-consistent calculation

 ------ SPIN UP ------------


          k = 0.0000 0.0000 0.0000 ( 45819 PWs)   bands (ev):

   -22.1180 -22.1115 -22.0277 -22.0232 -20.4202 -20.4026 -20.3402 -20.3293
   -19.7410 -19.7404 -19.7309 -19.7297 -16.8042 -16.7498 -16.7496 -16.7267
   -14.9879 -14.9609 -14.9311 -14.9070 -12.9690 -12.8926 -12.8369 -12.8283
   -11.3637 -11.3453 -11.3159 -11.2599 -10.1411 -10.0357  -9.9979  -9.9085
    -8.8627  -8.6780  -8.6414  -8.6159  -8.5552  -8.4695  -8.2274  -8.1289
    -7.5270  -7.4069  -7.3621  -7.1814  -7.0964  -6.8704  -6.8676  -6.7480
    -6.7256  -6.6469  -6.6320  -6.5587  -6.4889  -6.1940  -6.0227  -5.9329
    -5.8788  -5.8620  -5.7481  -5.6863  -5.6552  -5.5739  -5.5146  -5.4767
    -5.2873  -5.2552  -5.0316  -4.8391  -4.6081  -4.5061  -4.3964  -4.2646
    -4.1304  -4.1044  -4.0808  -4.0455  -3.9996  -3.9108  -3.7997  -3.7962
    -3.6615  -3.5890  -3.4457  -3.4423  -3.3667  -3.2745  -3.2472  -3.2204
    -3.1404  -3.0934  -3.0742  -3.0116  -2.9691  -2.9546  -2.9251  -2.7990
    -2.7746  -2.6799  -1.6022  -1.5686  -1.4570  -1.4310   0.8366   0.8641
     0.9010   0.9627   1.7565   2.3884   2.9235   3.0120   3.0639   3.1610
     3.3418   3.3994   3.4283   3.4912   3.6505   3.8212   3.8602   3.9883
     4.0018   4.1359

 ------ SPIN DOWN ----------


          k = 0.0000 0.0000 0.0000 ( 45819 PWs)   bands (ev):

   -22.0258 -22.0188 -21.9359 -21.9311 -20.3927 -20.3745 -20.3122 -20.3007
   -19.6140 -19.6133 -19.6043 -19.6029 -16.7720 -16.7175 -16.7174 -16.6936
   -14.9539 -14.9267 -14.8961 -14.8719 -12.9376 -12.8613 -12.8064 -12.7958
   -11.3370 -11.3185 -11.2901 -11.2342 -10.1140 -10.0075  -9.9699  -9.8817
    -8.8263  -8.6559  -8.6163  -8.5908  -8.5326  -8.4201  -8.1760  -8.0706
    -7.4625  -7.3128  -7.2473  -7.0997  -7.0052  -6.7914  -6.7679  -6.6713
    -6.5876  -6.5651  -6.5509  -6.4938  -6.3698  -6.0980  -5.9937  -5.8807
    -5.8370  -5.8267  -5.7272  -5.6406  -5.6131  -5.5238  -5.4888  -5.4505
    -5.1711  -4.7124  -4.5712  -4.5370  -4.3589  -4.0014  -3.9489  -3.9410
    -3.9363  -3.9098  -3.7761  -3.6652  -3.6578  -3.5819  -3.4796  -3.4042
    -3.3374  -3.2772  -3.2247  -3.0976  -3.0538  -3.0102  -2.8820  -2.8628
    -2.8389  -2.7644  -2.7147  -2.5963  -2.5019  -2.2583  -2.2549  -2.2321
    -2.2215  -2.1099  -0.7220  -0.7136  -0.6035  -0.5562   0.9371   0.9458
     1.0104   1.0496   1.7376   2.3716   2.9890   3.0070   3.1306   3.2266
     3.3436   3.4644   3.4726   3.5435   3.7056   3.8720   3.8733   3.9978
     4.0189   4.1657

     the spin up/dw Fermi energies are    -0.9052   -1.1329 ev

!    total energy              =    -821.39609664 Ry
     estimated scf accuracy    <       0.00000098 Ry
     smearing contrib. (-TS)   =       1.49003892 Ry
     internal energy E=F+TS    =    -822.88613556 Ry

     The total energy is F=E-TS. E is the sum of the following terms:
     one-electron contribution =   -1218.84787555 Ry
     hartree contribution      =     678.49474466 Ry
     xc contribution           =    -257.43821584 Ry
     ewald contribution        =     -24.90704523 Ry
     Dispersion Correction     =      -0.18774361 Ry

     total magnetization       =     4.00 Bohr mag/cell
     absolute magnetization    =     4.09 Bohr mag/cell

     convergence has been achieved in  24 iterations


     Performing spin-balanced Ecnl calculation!

     Forces acting on atoms (cartesian axes, Ry/au):

     atom    1 type  1   force =    -0.10016813    0.16524239   -0.25326859
     atom    2 type  1   force =    -0.01027254    0.03760562   -0.03694672
     atom    3 type  1   force =     0.29239333    0.13083523    0.01482668
     atom    4 type  1   force =     0.09282519   -0.19498089   -0.25106386
     atom    5 type  1   force =     0.27261073    0.20007544    0.04069516
     atom    6 type  1   force =    -0.27854158   -0.18193854    0.03412299
     atom    7 type  1   force =     0.07041488   -0.17872470    0.25111176
     atom    8 type  1   force =    -0.09568065    0.18742081    0.24032805
     atom    9 type  1   force =    -0.28890021   -0.15627266    0.01888379
     atom   10 type  1   force =     0.02695997   -0.02348598   -0.03904470
     atom   11 type  1   force =     0.04457981    0.05975155   -0.03705511
     atom   12 type  1   force =    -0.04680489   -0.05907754   -0.04254537
     atom   13 type  1   force =    -0.10016813   -0.16524239   -0.25326859
     atom   14 type  1   force =    -0.01027254   -0.03760562   -0.03694672
     atom   15 type  1   force =     0.29239333   -0.13083523    0.01482668
     atom   16 type  1   force =     0.09282519    0.19498089   -0.25106386
     atom   17 type  1   force =     0.27261073   -0.20007544    0.04069516
     atom   18 type  1   force =    -0.27854158    0.18193854    0.03412299
     atom   19 type  1   force =     0.07041488    0.17872470    0.25111176
     atom   20 type  1   force =    -0.09568065   -0.18742081    0.24032805
     atom   21 type  1   force =    -0.28890021    0.15627266    0.01888379
     atom   22 type  1   force =     0.02695997    0.02348598   -0.03904470
     atom   23 type  1   force =     0.04457981   -0.05975155   -0.03705511
     atom   24 type  1   force =    -0.04680489    0.05907754   -0.04254537
     atom   25 type  2   force =     0.07263735   -0.04715750    0.10026790
     atom   26 type  2   force =    -0.12951522   -0.04345908   -0.01885947
     atom   27 type  2   force =    -0.07595918    0.05144308    0.09740493
     atom   28 type  2   force =    -0.12316915   -0.05302518    0.01772704
     atom   29 type  2   force =     0.11919966    0.05347104    0.02209705
     atom   30 type  2   force =    -0.06871919    0.05141265   -0.09351932
     atom   31 type  2   force =     0.07364343   -0.04998593   -0.08966707
     atom   32 type  2   force =     0.12663135    0.05515901   -0.02073561
     atom   33 type  2   force =     0.07263735    0.04715750    0.10026790
     atom   34 type  2   force =    -0.12951522    0.04345908   -0.01885947
     atom   35 type  2   force =    -0.07595918   -0.05144308    0.09740493
     atom   36 type  2   force =    -0.12316915    0.05302518    0.01772704
     atom   37 type  2   force =     0.11919966   -0.05347104    0.02209705
     atom   38 type  2   force =    -0.06871919   -0.05141265   -0.09351932
     atom   39 type  2   force =     0.07364343    0.04998593   -0.08966707
     atom   40 type  2   force =     0.12663135   -0.05515901   -0.02073561
     atom   41 type  3   force =     0.02133804    0.01464844   -0.00022579
     atom   42 type  3   force =    -0.00961273   -0.01333832   -0.00514428
     atom   43 type  3   force =     0.02133804   -0.01464844   -0.00022579
     atom   44 type  3   force =    -0.00961273    0.01333832   -0.00514428
     atom   45 type  4   force =     0.01564269   -0.00727639   -0.03314827
     atom   46 type  4   force =     0.01564269    0.00727639   -0.03314827
     atom   47 type  5   force =    -0.08043110    0.02461766    0.07501495
     atom   48 type  5   force =     0.08298273   -0.03357377    0.07333020
     atom   49 type  5   force =     0.12409078    0.03213435   -0.03159933
     atom   50 type  5   force =    -0.12817534   -0.02262352   -0.03298702
     atom   51 type  5   force =    -0.08043110   -0.02461766    0.07501495
     atom   52 type  5   force =     0.08298273    0.03357377    0.07333020
     atom   53 type  5   force =     0.12409078   -0.03213435   -0.03159933
     atom   54 type  5   force =    -0.12817534    0.02262352   -0.03298702

     Total force =     1.468338     Total SCF correction =     0.002100


     Computing stress (Cartesian axis) and pressure



     Performing spin-balanced Ecnl calculation!


     Performing spin-balanced Ecnl stress calculation!
          total   stress  (Ry/bohr**3)                   (kbar)     P=       30.90
  -0.00003133   0.00000000  -0.00000425           -4.61        0.00       -0.63
   0.00000000   0.00035914   0.00000000            0.00       52.83        0.00
  -0.00000425   0.00000000   0.00030229           -0.63        0.00       44.47


     number of scf cycles    =   2
     number of bfgs steps    =   1

     enthalpy old            =    -821.5182054661 Ry
     enthalpy new            =    -821.3960966415 Ry

     CASE: enthalpy_new > enthalpy_old

     new trust radius        =       0.2262864887 bohr
     new conv_thr            =       0.0000010000 Ry

     new unit-cell volume =   5605.40184 a.u.^3 (   830.63485 Ang^3 )
     density =      1.21105 g/cm^3

CELL_PARAMETERS (angstrom)
   6.348634001   0.000000000   0.000000000
   0.000000000  12.613359449   0.000000000
  -0.227594000   0.000000000  10.372873646

ATOMIC_POSITIONS (crystal)
C             0.5934937924        0.9580480895        0.5170189725
C             0.7938322737        0.9982743370        0.5339353504
C             0.9088072249        0.9537947133        0.6336456262
C             0.4024804455        0.5206091658        0.5477931701
C             0.4725056779        0.6014721740        0.6221908234
C             0.5191626929        0.8824395923        0.5958475340
C             0.8242527516        0.8792366700        0.7100843843
C             0.1694331515        0.6030808828        0.7311551809
C             0.0913217055        0.5214863125        0.6608661437
C             0.2064486689        0.4765578898        0.5645993732
C             0.8759756818        0.0875249662        0.4559752700
C             0.1244844464        0.3880169178        0.4827100169
C             0.0934937924        0.0419519105        0.0170189725
C             0.2938322737        0.0017256630        0.0339353504
C             0.4088072249        0.0462052867        0.1336456262
C             0.9024804455        0.4793908342        0.0477931701
C             0.9725056779        0.3985278260        0.1221908234
C             0.0191626929        0.1175604077        0.0958475340
C             0.3242527516        0.1207633300        0.2100843843
C             0.6694331515        0.3969191172        0.2311551809
C             0.5913217055        0.4785136875        0.1608661437
C             0.7064486689        0.5234421102        0.0645993732
C             0.3759756818        0.9124750338        0.9559752700
C             0.6244844464        0.6119830822        0.9827100169
H             0.4941699183        0.9878922080        0.4396691468
H             0.0695503619        0.9792554805        0.6517493870
H             0.5011295565        0.4892499568        0.4735760049
H             0.6282383380        0.6333505265        0.6071867668
H             0.3627771979        0.8510234453        0.5783443597
H             0.9184730539        0.8462578054        0.7872808465
H             0.0741590574        0.6367527794        0.8051165960
H             0.9354081683        0.4907619194        0.6803873927
H            -0.0058300817        0.0121077920        0.9396691468
H             0.5695503619        0.0207445195        0.1517493870
H             1.0011295565        0.5107500432        0.9735760049
H             0.1282383380        0.3666494735        0.1071867668
H             0.8627771979        0.1489765547        0.0783443597
H             0.4184730539        0.1537421946        0.2872808465
H             0.5741590574        0.3632472206        0.3051165960
H             0.4354081683        0.5092380806        0.1803873927
N             0.6272727415        0.8425444551        0.6964762329
N             0.3609235764        0.6461739360        0.7153818202
N             0.1272727415        0.1574555449        0.1964762329
N             0.8609235764        0.3538260640        0.2153818202
Ni            0.4944370646        0.7535242178        0.8385018671
Ni            0.9944370646        0.2464757822        0.3385018671
O             0.2415001970        0.3489646609        0.3921867821
O             0.7548305266        0.1337991495        0.3695606088
O             0.9347814139        0.3514836873        0.4971482865
O             0.0685503147        0.1206394491        0.4740420564
O             0.7415001970        0.6510353391        0.8921867821
O             0.2548305266        0.8662008505        0.8695606088
O             0.4347814139        0.6485163127        0.9971482865
O             0.5685503147        0.8793605509        0.9740420564



     Writing output data file /nfs/hpc/share/gantzlen/NiPyC2_vdw-df2_vc-relax.save/
     NEW-OLD atomic charge density approx. for the potential
     NEW k-points:
   0.0000000   0.0000000   0.0000000   1.0000000
   0.0000000   0.0000000   0.0000000   1.0000000

     Check: negative core charge=   -0.000163


     Performing spin-balanced Ecnl calculation!
     extrapolated charge  192.86641, renormalised to  200.00000
     Generating pointlists ...

     total cpu time spent up to now is      152.9 secs

     Self-consistent Calculation

     iteration #  1     ecut=   100.00 Ry     beta= 0.70
     Davidson diagonalization with overlap
     c_bands:  2 eigenvalues not converged
     ethr =  1.00E-06,  avg # of iterations = 20.0


     Performing spin-balanced Ecnl calculation!

     total cpu time spent up to now is      160.9 secs

     total energy              =    -817.59684373 Ry
     estimated scf accuracy    <      10.42498217 Ry

     total magnetization       =     4.00 Bohr mag/cell
     absolute magnetization    =     4.40 Bohr mag/cell

     iteration #  2     ecut=   100.00 Ry     beta= 0.70
     Davidson diagonalization with overlap
     ethr =  5.21E-03,  avg # of iterations =  3.0


     Performing spin-balanced Ecnl calculation!

     total cpu time spent up to now is      163.8 secs

     total energy              =    -819.04168492 Ry
     estimated scf accuracy    <      69.97020968 Ry

     total magnetization       =     4.00 Bohr mag/cell
     absolute magnetization    =     4.13 Bohr mag/cell

     iteration #  3     ecut=   100.00 Ry     beta= 0.70
     Davidson diagonalization with overlap
     ethr =  5.21E-03,  avg # of iterations =  3.0


     Performing spin-balanced Ecnl calculation!

     total cpu time spent up to now is      166.4 secs

     total energy              =    -821.89754112 Ry
     estimated scf accuracy    <       2.43019709 Ry

     total magnetization       =     4.00 Bohr mag/cell
     absolute magnetization    =     4.17 Bohr mag/cell

     iteration #  4     ecut=   100.00 Ry     beta= 0.70
     Davidson diagonalization with overlap
     ethr =  1.22E-03,  avg # of iterations =  1.5


     Performing spin-balanced Ecnl calculation!

     total cpu time spent up to now is      168.8 secs

     total energy              =    -821.94113107 Ry
     estimated scf accuracy    <       1.69150902 Ry

     total magnetization       =     4.00 Bohr mag/cell
     absolute magnetization    =     4.19 Bohr mag/cell

     iteration #  5     ecut=   100.00 Ry     beta= 0.70
     Davidson diagonalization with overlap
     ethr =  8.46E-04,  avg # of iterations =  1.0


     Performing spin-balanced Ecnl calculation!

     total cpu time spent up to now is      171.2 secs

     total energy              =    -821.92858592 Ry
     estimated scf accuracy    <       0.50310166 Ry

     total magnetization       =     4.00 Bohr mag/cell
     absolute magnetization    =     4.19 Bohr mag/cell

     iteration #  6     ecut=   100.00 Ry     beta= 0.70
     Davidson diagonalization with overlap
     ethr =  2.52E-04,  avg # of iterations =  1.0


     Performing spin-balanced Ecnl calculation!

     total cpu time spent up to now is      173.5 secs

     total energy              =    -821.93762623 Ry
     estimated scf accuracy    <       0.20008259 Ry

     total magnetization       =     4.00 Bohr mag/cell
     absolute magnetization    =     4.18 Bohr mag/cell

     iteration #  7     ecut=   100.00 Ry     beta= 0.70
     Davidson diagonalization with overlap
     ethr =  1.00E-04,  avg # of iterations =  2.0


     Performing spin-balanced Ecnl calculation!

     total cpu time spent up to now is      176.0 secs

     total energy              =    -821.92963731 Ry
     estimated scf accuracy    <       0.16067306 Ry

     total magnetization       =     4.00 Bohr mag/cell
     absolute magnetization    =     4.18 Bohr mag/cell

     iteration #  8     ecut=   100.00 Ry     beta= 0.70
     Davidson diagonalization with overlap
     ethr =  8.03E-05,  avg # of iterations =  1.5


     Performing spin-balanced Ecnl calculation!

     total cpu time spent up to now is      178.5 secs

     total energy              =    -821.92917487 Ry
     estimated scf accuracy    <       0.05876364 Ry

     total magnetization       =     4.00 Bohr mag/cell
     absolute magnetization    =     4.17 Bohr mag/cell

     iteration #  9     ecut=   100.00 Ry     beta= 0.70
     Davidson diagonalization with overlap
     ethr =  2.94E-05,  avg # of iterations =  4.5


     Performing spin-balanced Ecnl calculation!

     total cpu time spent up to now is      181.5 secs

     total energy              =    -821.92883801 Ry
     estimated scf accuracy    <       0.01831457 Ry

     total magnetization       =     4.00 Bohr mag/cell
     absolute magnetization    =     4.15 Bohr mag/cell

     iteration # 10     ecut=   100.00 Ry     beta= 0.70
     Davidson diagonalization with overlap
     ethr =  9.16E-06,  avg # of iterations =  6.0


     Performing spin-balanced Ecnl calculation!

     total cpu time spent up to now is      184.5 secs

     total energy              =    -821.92968383 Ry
     estimated scf accuracy    <       0.00212278 Ry

     total magnetization       =     4.00 Bohr mag/cell
     absolute magnetization    =     4.14 Bohr mag/cell

     iteration # 11     ecut=   100.00 Ry     beta= 0.70
     Davidson diagonalization with overlap
     ethr =  1.06E-06,  avg # of iterations =  5.0


     Performing spin-balanced Ecnl calculation!

     total cpu time spent up to now is      187.6 secs

     total energy              =    -821.93007504 Ry
     estimated scf accuracy    <       0.00005293 Ry

     total magnetization       =     4.00 Bohr mag/cell
     absolute magnetization    =     4.13 Bohr mag/cell

     iteration # 12     ecut=   100.00 Ry     beta= 0.70
     Davidson diagonalization with overlap
     ethr =  2.65E-08,  avg # of iterations =  5.5


     Performing spin-balanced Ecnl calculation!

     total cpu time spent up to now is      191.3 secs

     total energy              =    -821.93011761 Ry
     estimated scf accuracy    <       0.00002020 Ry

     total magnetization       =     4.00 Bohr mag/cell
     absolute magnetization    =     4.12 Bohr mag/cell

     iteration # 13     ecut=   100.00 Ry     beta= 0.70
     Davidson diagonalization with overlap
     ethr =  1.01E-08,  avg # of iterations =  3.5


     Performing spin-balanced Ecnl calculation!

     total cpu time spent up to now is      194.1 secs

     total energy              =    -821.93012775 Ry
     estimated scf accuracy    <       0.00000978 Ry

     total magnetization       =     4.00 Bohr mag/cell
     absolute magnetization    =     4.12 Bohr mag/cell

     iteration # 14     ecut=   100.00 Ry     beta= 0.70
     Davidson diagonalization with overlap
     ethr =  4.89E-09,  avg # of iterations =  5.0


     Performing spin-balanced Ecnl calculation!

     total cpu time spent up to now is      197.2 secs

     total energy              =    -821.93013002 Ry
     estimated scf accuracy    <       0.00001073 Ry

     total magnetization       =     4.00 Bohr mag/cell
     absolute magnetization    =     4.12 Bohr mag/cell

     iteration # 15     ecut=   100.00 Ry     beta= 0.70
     Davidson diagonalization with overlap
     ethr =  4.89E-09,  avg # of iterations =  4.0


     Performing spin-balanced Ecnl calculation!

     total cpu time spent up to now is      199.9 secs

     total energy              =    -821.93013553 Ry
     estimated scf accuracy    <       0.00000263 Ry

     total magnetization       =     4.00 Bohr mag/cell
     absolute magnetization    =     4.12 Bohr mag/cell

     iteration # 16     ecut=   100.00 Ry     beta= 0.70
     Davidson diagonalization with overlap
     ethr =  1.32E-09,  avg # of iterations =  5.0


     Performing spin-balanced Ecnl calculation!

     total cpu time spent up to now is      203.0 secs

     total energy              =    -821.93013956 Ry
     estimated scf accuracy    <       0.00000173 Ry

     total magnetization       =     4.00 Bohr mag/cell
     absolute magnetization    =     4.12 Bohr mag/cell

     iteration # 17     ecut=   100.00 Ry     beta= 0.70
     Davidson diagonalization with overlap
     ethr =  8.64E-10,  avg # of iterations =  5.5


     Performing spin-balanced Ecnl calculation!

     total cpu time spent up to now is      206.2 secs

     total energy              =    -821.93014040 Ry
     estimated scf accuracy    <       0.00000710 Ry

     total magnetization       =     4.00 Bohr mag/cell
     absolute magnetization    =     4.12 Bohr mag/cell

     iteration # 18     ecut=   100.00 Ry     beta= 0.70
     Davidson diagonalization with overlap
     ethr =  8.64E-10,  avg # of iterations =  4.0


     Performing spin-balanced Ecnl calculation!
 
     Magnetic moment per site:
     atom:    1    charge:    0.5973    magn:    0.0039    constr:    0.0000
     atom:    2    charge:    0.5916    magn:    0.0035    constr:    0.0000
     atom:    3    charge:    0.5979    magn:    0.0038    constr:    0.0000
     atom:    4    charge:    0.5977    magn:    0.0038    constr:    0.0000
     atom:    5    charge:    0.5890    magn:    0.0030    constr:    0.0000
     atom:    6    charge:    0.5888    magn:    0.0031    constr:    0.0000
     atom:    7    charge:    0.5902    magn:    0.0033    constr:    0.0000
     atom:    8    charge:    0.5878    magn:    0.0032    constr:    0.0000
     atom:    9    charge:    0.5964    magn:    0.0036    constr:    0.0000
     atom:   10    charge:    0.5914    magn:    0.0034    constr:    0.0000
     atom:   11    charge:    0.5550    magn:   -0.0019    constr:    0.0000
     atom:   12    charge:    0.5539    magn:   -0.0017    constr:    0.0000
     atom:   13    charge:    0.5973    magn:    0.0039    constr:    0.0000
     atom:   14    charge:    0.5916    magn:    0.0035    constr:    0.0000
     atom:   15    charge:    0.5979    magn:    0.0038    constr:    0.0000
     atom:   16    charge:    0.5977    magn:    0.0038    constr:    0.0000
     atom:   17    charge:    0.5890    magn:    0.0030    constr:    0.0000
     atom:   18    charge:    0.5888    magn:    0.0031    constr:    0.0000
     atom:   19    charge:    0.5902    magn:    0.0033    constr:    0.0000
     atom:   20    charge:    0.5878    magn:    0.0032    constr:    0.0000
     atom:   21    charge:    0.5964    magn:    0.0036    constr:    0.0000
     atom:   22    charge:    0.5914    magn:    0.0034    constr:    0.0000
     atom:   23    charge:    0.5550    magn:   -0.0019    constr:    0.0000
     atom:   24    charge:    0.5539    magn:   -0.0017    constr:    0.0000
     atom:   25    charge:    0.3898    magn:   -0.0006    constr:    0.0000
     atom:   26    charge:    0.3868    magn:   -0.0006    constr:    0.0000
     atom:   27    charge:    0.3900    magn:   -0.0006    constr:    0.0000
     atom:   28    charge:    0.3914    magn:   -0.0005    constr:    0.0000
     atom:   29    charge:    0.3914    magn:   -0.0005    constr:    0.0000
     atom:   30    charge:    0.3925    magn:   -0.0003    constr:    0.0000
     atom:   31    charge:    0.3913    magn:   -0.0004    constr:    0.0000
     atom:   32    charge:    0.3854    magn:   -0.0006    constr:    0.0000
     atom:   33    charge:    0.3898    magn:   -0.0006    constr:    0.0000
     atom:   34    charge:    0.3868    magn:   -0.0006    constr:    0.0000
     atom:   35    charge:    0.3900    magn:   -0.0006    constr:    0.0000
     atom:   36    charge:    0.3914    magn:   -0.0005    constr:    0.0000
     atom:   37    charge:    0.3914    magn:   -0.0005    constr:    0.0000
     atom:   38    charge:    0.3925    magn:   -0.0003    constr:    0.0000
     atom:   39    charge:    0.3912    magn:   -0.0003    constr:    0.0000
     atom:   40    charge:    0.3854    magn:   -0.0006    constr:    0.0000
     atom:   41    charge:    2.4618    magn:    0.0133    constr:    0.0000
     atom:   42    charge:    2.4600    magn:    0.0126    constr:    0.0000
     atom:   43    charge:    2.4618    magn:    0.0133    constr:    0.0000
     atom:   44    charge:    2.4601    magn:    0.0126    constr:    0.0000
     atom:   45    charge:    7.5268    magn:    1.2869    constr:    0.0000
     atom:   46    charge:    7.5273    magn:    1.2867    constr:    0.0000
     atom:   47    charge:    3.1471    magn:    0.0511    constr:    0.0000
     atom:   48    charge:    3.1458    magn:    0.0524    constr:    0.0000
     atom:   49    charge:    3.1419    magn:    0.0544    constr:    0.0000
     atom:   50    charge:    3.1414    magn:    0.0564    constr:    0.0000
     atom:   51    charge:    3.1471    magn:    0.0511    constr:    0.0000
     atom:   52    charge:    3.1457    magn:    0.0524    constr:    0.0000
     atom:   53    charge:    3.1419    magn:    0.0544    constr:    0.0000
     atom:   54    charge:    3.1414    magn:    0.0564    constr:    0.0000

     total cpu time spent up to now is      208.8 secs

     End of self-consistent calculation

 ------ SPIN UP ------------


          k = 0.0000 0.0000 0.0000 ( 45819 PWs)   bands (ev):

   -22.4288 -22.4252 -22.3360 -22.3333 -19.9381 -19.9285 -19.9126 -19.9072
   -19.9056 -19.9045 -19.8482 -19.8399 -16.2545 -16.1964 -16.1937 -16.1706
   -14.8819 -14.8487 -14.8482 -14.8133 -12.4012 -12.3274 -12.3110 -12.2858
   -11.5185 -11.4974 -11.4710 -11.4166 -10.0660  -9.8764  -9.8297  -9.7640
    -8.7522  -8.3707  -8.3205  -8.2632  -8.2018  -8.1810  -8.1288  -8.0957
    -7.2518  -7.2395  -7.1407  -7.0342  -6.9546  -6.9357  -6.7849  -6.7715
    -6.7400  -6.7329  -6.7171  -6.6592  -6.6190  -6.5325  -6.4580  -6.2930
    -6.2759  -6.2425  -6.2114  -6.0551  -5.9984  -5.9875  -5.6894  -5.4861
    -5.0607  -5.0228  -4.7361  -4.6749  -4.4355  -4.3963  -4.3753  -4.3019
[...]

     total energy              =    -821.89265658 Ry
     estimated scf accuracy    <       0.00012711 Ry

     total magnetization       =     4.00 Bohr mag/cell
     absolute magnetization    =     4.10 Bohr mag/cell

     iteration # 14     ecut=   100.00 Ry     beta= 0.70
     Davidson diagonalization with overlap
     ethr =  6.36E-08,  avg # of iterations =  5.5


     Performing spin-balanced Ecnl calculation!

     total cpu time spent up to now is     3225.2 secs

     total energy              =    -821.89268366 Ry
     estimated scf accuracy    <       0.00005462 Ry

     total magnetization       =     4.00 Bohr mag/cell
     absolute magnetization    =     4.10 Bohr mag/cell

     iteration # 15     ecut=   100.00 Ry     beta= 0.70
     Davidson diagonalization with overlap
     ethr =  2.73E-08,  avg # of iterations =  4.5


     Performing spin-balanced Ecnl calculation!

     total cpu time spent up to now is     3228.9 secs

     total energy              =    -821.89270307 Ry
     estimated scf accuracy    <       0.00002434 Ry

     total magnetization       =     4.00 Bohr mag/cell
     absolute magnetization    =     4.10 Bohr mag/cell

     iteration # 16     ecut=   100.00 Ry     beta= 0.70
     Davidson diagonalization with overlap
     ethr =  1.22E-08,  avg # of iterations =  5.0


     Performing spin-balanced Ecnl calculation!

     total cpu time spent up to now is     3232.8 secs

     total energy              =    -821.89271018 Ry
     estimated scf accuracy    <       0.00000330 Ry

     total magnetization       =     4.00 Bohr mag/cell
     absolute magnetization    =     4.10 Bohr mag/cell

     iteration # 17     ecut=   100.00 Ry     beta= 0.70
     Davidson diagonalization with overlap
     ethr =  1.65E-09,  avg # of iterations =  6.0


     Performing spin-balanced Ecnl calculation!

     total cpu time spent up to now is     3237.0 secs

     total energy              =    -821.89271328 Ry
     estimated scf accuracy    <       0.00000151 Ry

     total magnetization       =     4.00 Bohr mag/cell
     absolute magnetization    =     4.11 Bohr mag/cell

     iteration # 18     ecut=   100.00 Ry     beta= 0.70
     Davidson diagonalization with overlap
     ethr =  7.56E-10,  avg # of iterations =  6.0


     Performing spin-balanced Ecnl calculation!

     total cpu time spent up to now is     3241.4 secs

     total energy              =    -821.89271399 Ry
     estimated scf accuracy    <       0.00000086 Ry

     total magnetization       =     4.00 Bohr mag/cell
     absolute magnetization    =     4.11 Bohr mag/cell

     iteration # 19     ecut=   100.00 Ry     beta= 0.70
     Davidson diagonalization with overlap
     ethr =  4.29E-10,  avg # of iterations =  5.5


     Performing spin-balanced Ecnl calculation!

     total cpu time spent up to now is     3245.5 secs

     total energy              =    -821.89271348 Ry
     estimated scf accuracy    <       0.00000062 Ry

     total magnetization       =     4.00 Bohr mag/cell
     absolute magnetization    =     4.11 Bohr mag/cell

     iteration # 20     ecut=   100.00 Ry     beta= 0.70
     Davidson diagonalization with overlap
     ethr =  3.08E-10,  avg # of iterations =  6.0


     Performing spin-balanced Ecnl calculation!

     total cpu time spent up to now is     3249.7 secs

     total energy              =    -821.89271215 Ry
     estimated scf accuracy    <       0.00000031 Ry

     total magnetization       =     4.00 Bohr mag/cell
     absolute magnetization    =     4.11 Bohr mag/cell

     iteration # 21     ecut=   100.00 Ry     beta= 0.70
     Davidson diagonalization with overlap
     ethr =  1.56E-10,  avg # of iterations =  6.5


     Performing spin-balanced Ecnl calculation!

     total cpu time spent up to now is     3254.2 secs

     total energy              =    -821.89271168 Ry
     estimated scf accuracy    <       0.00000019 Ry

     total magnetization       =     4.00 Bohr mag/cell
     absolute magnetization    =     4.11 Bohr mag/cell

     iteration # 22     ecut=   100.00 Ry     beta= 0.70
     Davidson diagonalization with overlap
     ethr =  9.59E-11,  avg # of iterations =  5.5


     Performing spin-balanced Ecnl calculation!

     total cpu time spent up to now is     3258.4 secs

     total energy              =    -821.89271117 Ry
     estimated scf accuracy    <       0.00000003 Ry

     total magnetization       =     4.00 Bohr mag/cell
     absolute magnetization    =     4.11 Bohr mag/cell

     iteration # 23     ecut=   100.00 Ry     beta= 0.70
     Davidson diagonalization with overlap
     ethr =  1.56E-11,  avg # of iterations =  8.0


     Performing spin-balanced Ecnl calculation!

     total cpu time spent up to now is     3263.0 secs

     total energy              =    -821.89271107 Ry
     estimated scf accuracy    <       0.00000001 Ry

     total magnetization       =     4.00 Bohr mag/cell
     absolute magnetization    =     4.11 Bohr mag/cell

     iteration # 24     ecut=   100.00 Ry     beta= 0.70
     Davidson diagonalization with overlap
     ethr =  6.75E-12,  avg # of iterations =  7.5


     Performing spin-balanced Ecnl calculation!
 
     Magnetic moment per site:
     atom:    1    charge:    0.5806    magn:    0.0026    constr:    0.0000
     atom:    2    charge:    0.5794    magn:    0.0021    constr:    0.0000
     atom:    3    charge:    0.5800    magn:    0.0026    constr:    0.0000
     atom:    4    charge:    0.5804    magn:    0.0026    constr:    0.0000
     atom:    5    charge:    0.5731    magn:    0.0023    constr:    0.0000
     atom:    6    charge:    0.5734    magn:    0.0023    constr:    0.0000
     atom:    7    charge:    0.5728    magn:    0.0023    constr:    0.0000
     atom:    8    charge:    0.5734    magn:    0.0023    constr:    0.0000
     atom:    9    charge:    0.5800    magn:    0.0026    constr:    0.0000
     atom:   10    charge:    0.5780    magn:    0.0021    constr:    0.0000
     atom:   11    charge:    0.5575    magn:   -0.0015    constr:    0.0000
     atom:   12    charge:    0.5572    magn:   -0.0015    constr:    0.0000
     atom:   13    charge:    0.5806    magn:    0.0026    constr:    0.0000
     atom:   14    charge:    0.5794    magn:    0.0021    constr:    0.0000
     atom:   15    charge:    0.5800    magn:    0.0026    constr:    0.0000
     atom:   16    charge:    0.5804    magn:    0.0026    constr:    0.0000
     atom:   17    charge:    0.5731    magn:    0.0023    constr:    0.0000
     atom:   18    charge:    0.5734    magn:    0.0023    constr:    0.0000
     atom:   19    charge:    0.5728    magn:    0.0023    constr:    0.0000
     atom:   20    charge:    0.5734    magn:    0.0023    constr:    0.0000
     atom:   21    charge:    0.5800    magn:    0.0026    constr:    0.0000
     atom:   22    charge:    0.5780    magn:    0.0021    constr:    0.0000
     atom:   23    charge:    0.5575    magn:   -0.0015    constr:    0.0000
     atom:   24    charge:    0.5572    magn:   -0.0015    constr:    0.0000
     atom:   25    charge:    0.3886    magn:   -0.0005    constr:    0.0000
     atom:   26    charge:    0.3881    magn:   -0.0006    constr:    0.0000
     atom:   27    charge:    0.3885    magn:   -0.0005    constr:    0.0000
     atom:   28    charge:    0.3897    magn:   -0.0004    constr:    0.0000
     atom:   29    charge:    0.3902    magn:   -0.0004    constr:    0.0000
     atom:   30    charge:    0.3876    magn:   -0.0004    constr:    0.0000
     atom:   31    charge:    0.3878    magn:   -0.0004    constr:    0.0000
     atom:   32    charge:    0.3883    magn:   -0.0006    constr:    0.0000
     atom:   33    charge:    0.3886    magn:   -0.0005    constr:    0.0000
     atom:   34    charge:    0.3881    magn:   -0.0006    constr:    0.0000
     atom:   35    charge:    0.3885    magn:   -0.0005    constr:    0.0000
     atom:   36    charge:    0.3897    magn:   -0.0004    constr:    0.0000
     atom:   37    charge:    0.3902    magn:   -0.0004    constr:    0.0000
     atom:   38    charge:    0.3876    magn:   -0.0004    constr:    0.0000
     atom:   39    charge:    0.3878    magn:   -0.0004    constr:    0.0000
     atom:   40    charge:    0.3883    magn:   -0.0006    constr:    0.0000
     atom:   41    charge:    2.4350    magn:    0.0078    constr:    0.0000
     atom:   42    charge:    2.4333    magn:    0.0077    constr:    0.0000
     atom:   43    charge:    2.4350    magn:    0.0078    constr:    0.0000
     atom:   44    charge:    2.4333    magn:    0.0077    constr:    0.0000
     atom:   45    charge:    7.5133    magn:    1.4391    constr:    0.0000
     atom:   46    charge:    7.5133    magn:    1.4391    constr:    0.0000
     atom:   47    charge:    3.1491    magn:    0.0430    constr:    0.0000
     atom:   48    charge:    3.1452    magn:    0.0406    constr:    0.0000
     atom:   49    charge:    3.1487    magn:    0.0394    constr:    0.0000
     atom:   50    charge:    3.1488    magn:    0.0412    constr:    0.0000
     atom:   51    charge:    3.1491    magn:    0.0430    constr:    0.0000
     atom:   52    charge:    3.1452    magn:    0.0406    constr:    0.0000
     atom:   53    charge:    3.1487    magn:    0.0394    constr:    0.0000
     atom:   54    charge:    3.1488    magn:    0.0412    constr:    0.0000

     total cpu time spent up to now is     3267.4 secs

     End of self-consistent calculation

 ------ SPIN UP ------------


          k = 0.0000 0.0000 0.0000 ( 54769 PWs)   bands (ev):

   -23.1624 -23.1611 -23.1122 -23.1112 -20.3978 -20.3975 -20.3842 -20.3839
   -20.1292 -20.1212 -20.0676 -20.0637 -16.5859 -16.5505 -16.5465 -16.5332
   -15.3277 -15.3063 -15.3041 -15.2786 -12.7489 -12.6950 -12.6828 -12.6725
   -12.1996 -12.1808 -12.1704 -12.1329 -10.4949 -10.3433 -10.3257 -10.2854
    -9.0947  -8.7698  -8.6936  -8.6634  -8.6295  -8.5784  -8.5710  -8.5335
    -7.9378  -7.8744  -7.8730  -7.8326  -7.6215  -7.6160  -7.5410  -7.4264
    -7.3442  -7.3332  -7.2536  -7.2315  -7.2074  -7.0748  -7.0598  -7.0144
    -6.9478  -6.9178  -6.8715  -6.8479  -6.5396  -6.3548  -6.1943  -6.0447
    -5.5105  -5.5023  -5.4814  -5.4645  -5.4281  -5.3490  -5.0080  -4.9298
    -4.7054  -4.6322  -4.5810  -4.5140  -4.3896  -4.2513  -4.2406  -4.1725
    -4.1165  -3.7895  -3.7304  -3.5842  -3.5464  -3.5215  -3.5177  -3.4686
    -3.4457  -3.4017  -3.3558  -3.3391  -3.1687  -3.1465  -3.0899  -3.0222
    -3.0201  -2.9188  -2.2325  -2.2003  -1.9171  -1.8905   0.7253   0.7832
     0.7955   0.8592   1.3629   1.7658   1.8383   1.9734   2.0777   2.1200
     2.6226   2.8488   3.1467   3.3148   3.3352   3.3801   3.4435   3.5445
     3.5505   3.5790

 ------ SPIN DOWN ----------


          k = 0.0000 0.0000 0.0000 ( 54769 PWs)   bands (ev):

   -23.0924 -23.0910 -23.0424 -23.0415 -20.3043 -20.3040 -20.2912 -20.2908
   -20.1115 -20.1034 -20.0500 -20.0459 -16.5637 -16.5287 -16.5245 -16.5109
   -15.3051 -15.2836 -15.2814 -15.2558 -12.7246 -12.6729 -12.6588 -12.6505
   -12.1838 -12.1649 -12.1550 -12.1177 -10.4799 -10.3293 -10.3120 -10.2705
    -9.0578  -8.7356  -8.6674  -8.6289  -8.6112  -8.5608  -8.5372  -8.5196
    -7.9295  -7.8656  -7.8593  -7.8223  -7.5562  -7.5529  -7.4593  -7.3721
    -7.2676  -7.2541  -7.1822  -7.1726  -7.1284  -7.0328  -6.9926  -6.9919
    -6.9294  -6.8914  -6.8395  -6.8229  -6.4695  -6.2964  -6.1390  -5.9902
    -5.4992  -5.4925  -5.4581  -5.4148  -5.3479  -4.7182  -4.6053  -4.5041
    -4.4418  -4.1916  -4.0471  -3.9748  -3.9085  -3.8360  -3.6704  -3.6152
    -3.5848  -3.5729  -3.3682  -3.3147  -3.2843  -3.2783  -3.0853  -3.0341
    -2.9906  -2.9620  -2.9466  -2.8462  -2.6033  -2.4554  -2.4396  -2.4252
    -2.3750  -2.3203  -1.2934  -1.2853  -0.9783  -0.9669   0.7776   0.8636
     0.8727   0.9192   1.3433   1.8259   1.8831   2.0347   2.0790   2.1844
     2.6110   2.8423   3.1774   3.3365   3.3516   3.4128   3.4791   3.5814
     3.5892   3.5996

     the spin up/dw Fermi energies are    -1.1704   -1.3433 ev

!    total energy              =    -821.89271113 Ry
     estimated scf accuracy    <          5.5E-09 Ry
     smearing contrib. (-TS)   =       1.23082286 Ry
     internal energy E=F+TS    =    -823.12353399 Ry

     The total energy is F=E-TS. E is the sum of the following terms:
     one-electron contribution =   -1276.32733243 Ry
     hartree contribution      =     704.29115928 Ry
     xc contribution           =    -257.61821260 Ry
     ewald contribution        =       6.69699580 Ry
     Dispersion Correction     =      -0.16614403 Ry

     total magnetization       =     4.00 Bohr mag/cell
     absolute magnetization    =     4.11 Bohr mag/cell

     convergence has been achieved in  24 iterations


     Performing spin-balanced Ecnl calculation!

     Forces acting on atoms (cartesian axes, Ry/au):

     atom    1 type  1   force =    -0.00151936   -0.00048986    0.00062039
     atom    2 type  1   force =    -0.00124419    0.00017087    0.00072328
     atom    3 type  1   force =    -0.00031015   -0.00080249    0.00070160
     atom    4 type  1   force =    -0.00057913    0.00066050    0.00110107
     atom    5 type  1   force =    -0.00054170   -0.00069543    0.00059825
     atom    6 type  1   force =    -0.00046928    0.00077831    0.00040840
     atom    7 type  1   force =    -0.00004638    0.00013041    0.00057924
     atom    8 type  1   force =    -0.00046400   -0.00082171   -0.00010499
     atom    9 type  1   force =    -0.00085497    0.00077196    0.00101916
     atom   10 type  1   force =    -0.00026991    0.00063059    0.00068395
     atom   11 type  1   force =     0.00083387    0.00149126   -0.00044030
     atom   12 type  1   force =    -0.00086031   -0.00108046   -0.00111700
     atom   13 type  1   force =    -0.00151936    0.00048986    0.00062039
     atom   14 type  1   force =    -0.00124419   -0.00017087    0.00072328
     atom   15 type  1   force =    -0.00031015    0.00080249    0.00070160
     atom   16 type  1   force =    -0.00057913   -0.00066050    0.00110107
     atom   17 type  1   force =    -0.00054170    0.00069543    0.00059825
     atom   18 type  1   force =    -0.00046928   -0.00077831    0.00040840
     atom   19 type  1   force =    -0.00004638   -0.00013041    0.00057924
     atom   20 type  1   force =    -0.00046400    0.00082171   -0.00010499
     atom   21 type  1   force =    -0.00085497   -0.00077196    0.00101916
     atom   22 type  1   force =    -0.00026991   -0.00063059    0.00068395
     atom   23 type  1   force =     0.00083387   -0.00149126   -0.00044030
     atom   24 type  1   force =    -0.00086031    0.00108046   -0.00111700
     atom   25 type  2   force =     0.00050547   -0.00120614    0.00168769
     atom   26 type  2   force =    -0.00159056   -0.00079921    0.00041248
     atom   27 type  2   force =    -0.00142350    0.00129305    0.00185164
     atom   28 type  2   force =    -0.00242542   -0.00063080    0.00141838
     atom   29 type  2   force =     0.00093393    0.00074685    0.00104311
     atom   30 type  2   force =    -0.00128006    0.00110398   -0.00116932
     atom   31 type  2   force =     0.00087329   -0.00164880   -0.00138774
     atom   32 type  2   force =     0.00082867    0.00043089   -0.00010662
     atom   33 type  2   force =     0.00050547    0.00120614    0.00168769
     atom   34 type  2   force =    -0.00159056    0.00079921    0.00041248
     atom   35 type  2   force =    -0.00142350   -0.00129305    0.00185164
     atom   36 type  2   force =    -0.00242542    0.00063080    0.00141838
     atom   37 type  2   force =     0.00093393   -0.00074685    0.00104311
     atom   38 type  2   force =    -0.00128006   -0.00110398   -0.00116932
     atom   39 type  2   force =     0.00087329    0.00164880   -0.00138774
     atom   40 type  2   force =     0.00082867   -0.00043089   -0.00010662
     atom   41 type  3   force =     0.00073410   -0.00075178    0.00077499
     atom   42 type  3   force =     0.00013824    0.00053242    0.00016658
     atom   43 type  3   force =     0.00073410    0.00075178    0.00077499
     atom   44 type  3   force =     0.00013824   -0.00053242    0.00016658
     atom   45 type  4   force =     0.00424073    0.00657024   -0.01254227
     atom   46 type  4   force =     0.00424073   -0.00657024   -0.01254227
     atom   47 type  5   force =    -0.00070839    0.00012851    0.00042975
     atom   48 type  5   force =     0.00354828    0.00020913    0.00191218
     atom   49 type  5   force =     0.00399685    0.00027328    0.00100550
     atom   50 type  5   force =    -0.00204615   -0.00315718   -0.00026939
     atom   51 type  5   force =    -0.00070839   -0.00012851    0.00042975
     atom   52 type  5   force =     0.00354828   -0.00020913    0.00191218
     atom   53 type  5   force =     0.00399685   -0.00027328    0.00100550
     atom   54 type  5   force =    -0.00204615    0.00315718   -0.00026939

     Total force =     0.025547     Total SCF correction =     0.000130


     Computing stress (Cartesian axis) and pressure



     Performing spin-balanced Ecnl calculation!


     Performing spin-balanced Ecnl stress calculation!
          total   stress  (Ry/bohr**3)                   (kbar)     P=       21.22
   0.00020019   0.00000000   0.00000476           29.45        0.00        0.70
   0.00000000   0.00009428   0.00000000            0.00       13.87        0.00
   0.00000476   0.00000000   0.00013823            0.70        0.00       20.33


     Writing output data file /nfs/hpc/share/gantzlen/NiPyC2_vdw-df2_vc-relax.save/
 
     init_run     :      7.26s CPU      8.52s WALL (       2 calls)
     electrons    :   1598.37s CPU   2722.41s WALL (      66 calls)
     update_pot   :    155.17s CPU    174.61s WALL (      64 calls)
     forces       :     99.71s CPU    118.61s WALL (      66 calls)
     stress       :    192.76s CPU    230.87s WALL (      66 calls)

     Called by init_run:
     wfcinit      :      1.05s CPU      1.53s WALL (       2 calls)
     potinit      :      4.18s CPU      4.89s WALL (       2 calls)
     hinit0       :      1.86s CPU      1.90s WALL (       2 calls)

     Called by electrons:
     c_bands      :    772.38s CPU   1527.37s WALL (     898 calls)
     sum_band     :    167.41s CPU    225.35s WALL (     898 calls)
     v_of_rho     :    576.86s CPU    825.32s WALL (     963 calls)
     mix_rho      :    108.76s CPU    170.74s WALL (     898 calls)
     vdW_kernel   :      1.36s CPU      1.51s WALL (       1 calls)

     Called by c_bands:
     init_us_2    :      5.20s CPU      5.48s WALL (    1798 calls)
     regterg      :    757.85s CPU   1439.21s WALL (     900 calls)

     Called by *egterg:
     rdiaghg      :     56.31s CPU    426.58s WALL (    4185 calls)
     h_psi        :    546.42s CPU    765.32s WALL (    4254 calls)
     g_psi        :      2.78s CPU      2.95s WALL (    3352 calls)

     Called by h_psi:
     h_psi:calbec :     12.99s CPU     16.95s WALL (    4254 calls)
     vloc_psi     :    511.23s CPU    725.69s WALL (    4254 calls)
     add_vuspsi   :     15.04s CPU     15.30s WALL (    4254 calls)

     General routines
     calbec       :     14.69s CPU     19.11s WALL (    4584 calls)
     fft          :    328.91s CPU    605.55s WALL (   89409 calls)
     ffts         :     63.39s CPU    111.40s WALL (   16765 calls)
     fftw         :    507.55s CPU    753.07s WALL (  335704 calls)
 
     Parallel routines
     fft_scatt_xy :    168.78s CPU    178.69s WALL (  441878 calls)
     fft_scatt_yz :    301.10s CPU    822.64s WALL (  441878 calls)
 
     PWSCF        :  34m28.56s CPU  54m36.45s WALL

 
   This run was terminated on:  11:28:49  17Nov2020            

=------------------------------------------------------------------------------=
   JOB DONE.
=------------------------------------------------------------------------------=
QE finished Tue Nov 17 11:28:49 PST 2020
